 +---------------------------------------------------------------+
 |                                                               |
 |        ####### #     # ####### ####### ####### ######         |
 |        #     # ##    # #          #    #       #     #        |
 |        #     # # #   # #          #    #       #     #        |
 |        #     # #  #  # #####      #    #####   ######         |
 |        #     # #   # # #          #    #       #              |
 |        #     # #    ## #          #    #       #              |
 |        ####### #     # #######    #    ####### #              |
 |                                                               |
 |        Linear-Scaling Ab Initio Total Energy Program          |
 |                                                               |
 |          Release for academic collaborators of ODG            |
 |                                             Version 5.3.2.6.  |
 |                                                               |
 +---------------------------------------------------------------+
 |                                                               |
 |  Authors:                                                     |
 |  Jacek Dziedzic, Peter D. Haynes, Nicholas D. M. Hine,        |
 |  Arash. A. Mostofi, Mike C. Payne and Chris-Kriton Skylaris   |
 |                                                               |
 |  Contributors:                                                |
 |  J. Aarons, L. Andrinopoulos, P. W. Avraam, R. A. Bell,       |
 |  A. Bhandari, G. A. Bramley, R. J. Charlton, S. J. Clark,     |
 |  R. J. Clements, G. C. Constantinescu, F. Corsetti,           |
 |  N. Corsini, O. Dieguez, S. M. M. Dubois, K. K. B. Duff,      |
 |  J. M. Escartin, A. Greco, H. Helal, Q. O. Hill, L. P. Lee,   |
 |  J.-H. Li, E. B. Linscott, G. Moynihan, D. D. O`Regan,        |
 |  O. K. Okan, M. J. S. Phipps, C. J. Pickard,                  |
 |  J. C. A. Prentice, M. I. J. Probert, L. E. Ratcliff,         |
 |  M. Robinson, A. Ruiz Serrano, J. S. Spencer, E. W. Tait,     |
 |  G. Teobaldi, D. Turban, V. Vitale, K. A. Wilkinson,          |
 |  C. Weber, J. C. Womack, N. Yeung and T. J. Zuehlsdorff       |
 |                                                               |
 |                                   Copyright (c) 2004-2019     |
 |                                                               |
 |  Please cite:                                                 |
 |  "Introducing ONETEP: Linear-scaling density functional       |
 |   simulations on parallel computers".                         |
 |   C.-K. Skylaris, P. D. Haynes, A. A. Mostofi, M. C. Payne.   |
 |   J. Chem. Phys. 122 084119 (2005).                           |
 |                                                               |
 |          in all publications arising from your use of ONETEP. |
 |                                                               |
 +---------------------------------------------------------------+
 |                                                               |
 |   ONETEP is based on developments described in the following  |
 |   publications:                                               |
 |                                                               |
 |  "Nonorthogonal generalized Wannier function pseudopotential  |
 |   plane-wave method".                                         |
 |   C.-K. Skylaris, A. A. Mostofi, P. D. Haynes, O. Dieguez,    |
 |   M. C. Payne.                                                |
 |   Phys. Rev. B 66 035119 (2002).                              |
 |                                                               |
 |  "Preconditioned iterative minimization for linear-scaling    |
 |   electronic structure calculations".                         |
 |   A. A. Mostofi, P. D. Haynes, C.-K. Skylaris, M. C. Payne.   |
 |   J. Chem. Phys. 119(17), pp.8842-8848 (2003).                |
 |                                                               |
 |  "Total-energy calculations on a real space grid with         |
 |   localized functions and a plane-wave basis".                |
 |   A. A. Mostofi, C.-K. Skylaris, P. D. Haynes, M. C. Payne.   |
 |   Comput. Phys. Commun. 147, pp.788-802 (2002).               |
 |                                                               |
 |  "Accurate kinetic energy evaluation in electronic structure  |
 |   calculations with localized functions on real space grids"  |
 |   C.-K. Skylaris, A. A. Mostofi, P. D. Haynes, C. J. Pickard, |
 |   M. C. Payne.                                                |
 |   Comput. Phys. Commun. 140, pp.315-322 (2001).               |
 |                                                               |
 |  "Accurate ionic forces and geometry optimization in linear-  |
 |   scaling density-functional theory with local orbitals"      |
 |   N. D. M. Hine, M. Robinson, P. D. Haynes, C.-K. Skylaris,   |
 |   M. C. Payne, and A. A. Mostofi.                             |
 |   Phys. Rev. B 83 195102 (2011).                              |
 |                                                               |
 +---------------------------------------------------------------+

Job started: 21-03-2020 06:40 (-0000)
 
Reading parameters from file "complex_11881.dat" ...... done

If your calculation crashes here, before "Checking processes and threads..."
is displayed, then your stack size is insufficient.
If so, use "ulimit -s unlimited" at runtime.
You can disable this check with "check_stack_size F".

Checking processes and threads...
   Determining the default number of threads...
      No default threads set at compilation time: defaulting to 1.
      OpenMP library call suggests 4 threads.
      Hybrid MPI-OpenMP compilation detected.
      Number of MPI processes > 1.
      OMP_NUM_THREADS environment variable present and
      its value matches the one obtained from the OpenMP library call.
      Using this value as default.
      Default threads: 4
      Default applies to threads_max and threads_num_fftboxes.
      Settings in the input file override this default.
   ... done

   Running with 40 MPI processes.
   There are 10 MPI processes running on the same node as the root process.
   Each MPI process is using: 
               1 threads for simulation cell FFTs.
               1 threads for parallel FFT box operations.
               4 threads for loops over batched FFT box operations.
               4 threads in other parallel regions.
... done

Basic input checks...... done

Reading geometry and species blocks from file "complex_11881.dat" ...
  <species_atomic_set> block not found: NGWF initialisation set to SOLVE
IS: Dielectric excluded regions:
    - NONE.
    
  Number of PPD points along a3 set to 1.  This is 
  the default value, it may have been provided also in the input file.
... done
 Writing xyz coordinates to file "complex_11881.xyz" ... done


--------------------------------------------------------------------------------
---------------------------------- INPUT FILE ----------------------------------
--------------------------------------------------------------------------------

cutoff_energy       : 800 eV                                                    
xc_functional B97M-V                                                            
task SINGLEPOINT                                                                
write_xyz true                                                                  
output_detail VERBOSE                                                           
ngwf_threshold_orig : 0.000002                                                  
kernel_cutoff       : 1000                                                      
k_zero              : 3.5                                                       
elec_cg_max 0                                                                   
occ_mix 1.0                                                                     
dispersion 0                                                                    
maxit_ngwf_cg 40                                                                
minit_lnv 10                                                                    
maxit_lnv 10                                                                    
write_denskern T                                                                
write_tightbox_ngwfs T                                                          
charge 9                                                                        
is_implicit_solvent T                                                           
is_auto_solvation T                                                             
is_include_apolar T                                                             
is_smeared_ion_rep T                                                            
is_solvent_surf_tension 4.7624E-5 Ha/bohr**2                                    
is_apolar_scaling_factor 0.281075                                               
is_solvation_beta 1.3                                                           
is_density_threshold 0.00035                                                    
is_bulk_permittivity 78.54                                                      
is_dielectric_model fix_initial                                                 
is_smeared_ion_width 0.8                                                        
mg_defco_fd_order 8                                                             
is_bc_coarseness 10                                                             
is_bc_surface_coarseness 1                                                      
fine_grid_scale 2.0                                                             
%block species                                                                  
N   N   7 4 8.0                                                                 
H   H   1 1 8.0                                                                 
C   C   6 4 8.0                                                                 
S   S  16 9 8.0                                                                 
O   O   8 4 8.0                                                                 
%endblock species                                                               
%block species_pot                                                              
N   N_00.recpot                                                                 
H   H_04.recpot                                                                 
C   C_01.recpot                                                                 
S   S_00.recpot                                                                 
O   O_02.recpot                                                                 
%endblock species_pot                                                           
%block lattice_cart                                                             
142.669   0.000   0.000                                                         
0.000 146.65   0.000                                                            
0.000   0.000   162.396                                                         
%endblock lattice_cart                                                          
%block positions_abs                                                            
     Hash =   000009083941171810555757
%endblock positions_abs                                                         

--------------------------------------------------------------------------------
-------------------------------- END INPUT FILE --------------------------------
--------------------------------------------------------------------------------


 
 ESDF WARNING(1): "kernelcutoff" (esdf_physical) has no units. Assume "bohr".
 ESDF WARNING(2): "kzero" (esdf_physical) has no units. Assume "1/bohr".
 ESDF WARNING(3
 ): "issmearedionwidth" (esdf_physical) has no units. Assume "bohr".
<<<<<<<<<<<<<<<<<<<<<<<<<<<<<<<<< Full system >>>>>>>>>>>>>>>>>>>>>>>>>>>>>>>>>>
<<<<<<<<<<<<<<<<<<<<<<<<< Pseudopotential information >>>>>>>>>>>>>>>>>>>>>>>>>>
File: N_00.recpot [ 2001 points up to Gmax=  52.9 (1/bohr)]
  Atomic number:  7;  ionic charge:  5.000000
    Shell 1: l = 0; rc = 1.48 bohr
File: H_04.recpot [ 2001 points up to Gmax=  52.9 (1/bohr)]
  Atomic number:  1;  ionic charge:  1.000000
    Local potential
File: C_01.recpot [ 2001 points up to Gmax=  52.9 (1/bohr)]
  Atomic number:  6;  ionic charge:  4.000000
    Shell 1: l = 0; rc = 1.48 bohr
File: S_00.recpot [ 2001 points up to Gmax=  52.9 (1/bohr)]
  Atomic number: 16;  ionic charge:  6.000000
    Shell 1: l = 0; rc = 1.90 bohr
    Shell 2: l = 2; rc = 1.84 bohr
File: O_02.recpot [ 2001 points up to Gmax=  52.9 (1/bohr)]
  Atomic number:  8;  ionic charge:  6.000000
    Shell 1: l = 0; rc = 1.31 bohr
<<<<<<<<<<<<<<<<<<<<<<<<<<<<<<<<<<<<<<<<>>>>>>>>>>>>>>>>>>>>>>>>>>>>>>>>>>>>>>>>

-------------------------- Atom counting information ---------------------------
Symbol    Natoms    Nngwfs    Nprojs
  N        236       944       236
  H       1317      1317         0
  C        816      3264       816
  S          6        54        36
  O        241       964       241
.......   ......    ......    ......
Totals:   2616      6543      1329
--------------------------------------------------------------------------------

=============================== PSINC grid sizes ===============================
                      Simulation cell:  286 x 294 x 320
                              FFT-box:  105 x 105 x  99
                                  PPD:   11 x   6 x   1
Grid space d1=  0.498842657343a0 (KE cutoff=  30.52649Eh = 830.66799eV)
Grid space d2=  0.498809523810a0 (KE cutoff=  30.53054Eh = 830.77835eV)
Grid space d3=  0.507487500000a0 (KE cutoff=  29.49533Eh = 802.60885eV)
================================================================================

********************* Fourier parallelisation information **********************
       Coarse grid (whole simulation cell) dimensions:    286   294   320
          Real-space ('12') slabs/node (min max mean):      8     8     8
         Recip-space ('23') slabs/node (min max mean):      3     4     3
********************************************************************************

********************* Fourier parallelisation information **********************
       Double grid (whole simulation cell) dimensions:    572   588   640
          Real-space ('12') slabs/node (min max mean):     16    16    16
         Recip-space ('23') slabs/node (min max mean):      7     8     7
********************************************************************************
ONETEP fine grid is 572 x 588 x 640 gridpoints, 142.6690 x 146.6500 x 162.3960 bohr.
FD multigrid is     569 x 585 x 633 gridpoints, 141.9207 x 145.9018 x 160.6198 bohr.


Calculating local pseudopotential in open BC on a radial grid ...
Discrepancy between calculated realspace psloc and -Z/x on [5a0,261.215a0]:
max |rel. diff| # avg |rel. diff| #  avg rel. diff #  f # pseudopotential file
 0.000261901569    0.000004963664   0.000000071970   55  'N_00.recpot'
 0.000422260137    0.000017549664  -0.000000063361   55  'H_04.recpot'
 0.000361991046    0.000016543264   0.000000134927   55  'C_01.recpot'
 0.000447743184    0.000019132268   0.000000438157   55  'S_00.recpot'
 0.000711628927    0.000028437426   0.000000135877   55  'O_02.recpot'
... done
 WARNING: meta-GGA functionality under development.
          Using this functional is experimental.
          Minimum tau threshold, xc_min_tau =   1.00000000E-12
 WARNING: Using alternative XC functional PBE for 
          radial densities (xc_radial).

Atom SCF Calculation for N  : Z (AE atom) =   7 : Z (PS atom) =   5
Config String:
Orbitals (num,occ):  2     2.00 3.00
Orbitals   (num,l):  2        0    1
Real-space Grid (nr,dr,rmax): 1203    0.0066555740    8.0000000000
Spherical Bessel Basis (nsws,lmax,cutoff):   47    1  176.3951722778
Confining potential (l,width,scale):  0    3.0000000000  100.0000000000
Confining potential (l,width,scale):  1    3.0000000000  100.0000000000
  1         -4.7312375307   -3.4155304497    7.0523828109   -1.9351020946
  2         -9.7309464766   -2.0532547791    8.2966052865   -2.2494486027
  3         -9.6627394379   -2.1124926340    8.2327997121   -2.2369778124
  4         -9.6814993499   -2.1215521045    8.2229805960   -2.2365178421
  5         -9.6843326483   -2.1250939529    8.2191374534   -2.2362718126
  6         -9.6859628709   -2.1267894855    8.2172963573   -2.2362066344
  7         -9.6867347035   -2.1276425665    8.2163697352   -2.2361903369
  8         -9.6870802100   -2.1280764625    8.2158983890   -2.2361891460
  9         -9.6872290423   -2.1282977424    8.2156580222   -2.2361920435
 10         -9.6872901988   -2.1284107021    8.2155353368   -2.2361953393
 11         -9.6873135296   -2.1284684031    8.2154726809   -2.2361979819
 12         -9.6873212476   -2.1284978948    8.2154406648   -2.2361998431
 13         -9.6873229586   -2.1285129774    8.2154242957   -2.2362010676
 14         -9.6873226456   -2.1285206957    8.2154159216   -2.2362018403
 15         -9.6873218534   -2.1285246479    8.2154116349   -2.2362023142
 16         -9.6873212599   -2.1285262679    8.2154098784   -2.2362025420
 17         -9.6873207834   -2.1285272564    8.2154088068   -2.2362026955
 18         -9.6873204210   -2.1285278597    8.2154081529   -2.2362027982
 19         -9.6873201550   -2.1285282280    8.2154077538   -2.2362028667
 20         -9.6873199645   -2.1285284529    8.2154075102   -2.2362029121
 21         -9.6873198305   -2.1285285903    8.2154073614   -2.2362029421
 22         -9.6873197377   -2.1285286742    8.2154072705   -2.2362029618
Atom SCF converged after  22 iterations to a total energy of     -9.68731974

Atom SCF Calculation for H  : Z (AE atom) =   1 : Z (PS atom) =   1
Config String:
Orbitals (num,occ):  1     1.00
Orbitals   (num,l):  1        0
Real-space Grid (nr,dr,rmax): 1203    0.0066555740    8.0000000000
Spherical Bessel Basis (nsws,lmax,cutoff):   47    0  176.3951722778
Confining potential (l,width,scale):  0    3.0000000000  100.0000000000
  1         -0.3194257691   -0.2393854593    0.2820953124   -0.2424203209
  2         -0.3951823392   -0.2377116493    0.2886404059   -0.2475147891
  3         -0.4317044583   -0.2352244387    0.2921333887   -0.2514046172
  4         -0.4470703708   -0.2341892222    0.2934391879   -0.2531009782
  5         -0.4532132900   -0.2338556667    0.2938388426   -0.2537313520
  6         -0.4556579251   -0.2337612552    0.2939448584   -0.2539550462
  7         -0.4566418315   -0.2337377355    0.2939680120   -0.2540342273
  8         -0.4570437922   -0.2337331116    0.2939708287   -0.2540627372
  9         -0.4572102946   -0.2337328328    0.2939698291   -0.2540732650
 10         -0.4572800424   -0.2337332404    0.2939687193   -0.2540772588
 11         -0.4573095100   -0.2337335791    0.2939680317   -0.2540788122
 12         -0.4573220379   -0.2337337762    0.2939676699   -0.2540794294
 13         -0.4573273880   -0.2337338775    0.2939674931   -0.2540796787
 14         -0.4573296803   -0.2337339266    0.2939674099   -0.2540797808
 15         -0.4573306647   -0.2337339495    0.2939673718   -0.2540798230
 16         -0.4573310882   -0.2337339601    0.2939673545   -0.2540798406
 17         -0.4573312706   -0.2337339649    0.2939673467   -0.2540798479
 18         -0.4573313493   -0.2337339670    0.2939673433   -0.2540798510
Atom SCF converged after  18 iterations to a total energy of     -0.45733135

Atom SCF Calculation for C  : Z (AE atom) =   6 : Z (PS atom) =   4
Config String:
Orbitals (num,occ):  2     2.00 2.00
Orbitals   (num,l):  2        0    1
Real-space Grid (nr,dr,rmax): 1203    0.0066555740    8.0000000000
Spherical Bessel Basis (nsws,lmax,cutoff):   47    1  176.3951722778
Confining potential (l,width,scale):  0    3.0000000000  100.0000000000
Confining potential (l,width,scale):  1    3.0000000000  100.0000000000
  1         -5.2976922011   -1.3069684169    4.5135249990   -1.4493313817
  2         -5.3721716256   -1.3429755895    4.4750154450   -1.4361613026
  3         -5.3809959565   -1.3617365618    4.4541655428   -1.4305930207
  4         -5.3918938866   -1.3667928461    4.4484735100   -1.4294652294
  5         -5.3956096428   -1.3688539142    4.4461376126   -1.4290734646
  6         -5.3968271862   -1.3696852393    4.4451910874   -1.4289366866
  7         -5.3972028401   -1.3700178062    4.4448112275   -1.4288900460
  8         -5.3973067903   -1.3701500158    4.4446598370   -1.4288749220
  9         -5.3973286940   -1.3702023868    4.4445997329   -1.4288704293
 10         -5.3973289850   -1.3702230869    4.4445759233   -1.4288693188
 11         -5.3973254264   -1.3702312560    4.4445665049   -1.4288691775
 12         -5.3973224003   -1.3702344755    4.4445627836   -1.4288692549
 13         -5.3973208708   -1.3702354890    4.4445616088   -1.4288693270
 14         -5.3973198783   -1.3702360102    4.4445610034   -1.4288693814
 15         -5.3973192535   -1.3702362780    4.4445606917   -1.4288694190
 16         -5.3973188684   -1.3702364155    4.4445605313   -1.4288694437
 17         -5.3973186349   -1.3702364860    4.4445604489   -1.4288694595
 18         -5.3973184951   -1.3702365221    4.4445604065   -1.4288694693
 19         -5.3973184122   -1.3702365405    4.4445603848   -1.4288694753
Atom SCF converged after  19 iterations to a total energy of     -5.39731841

Atom SCF Calculation for S  : Z (AE atom) =  16 : Z (PS atom) =   6
Config String:
Orbitals (num,occ):  3     2.00 4.00 0.00
Orbitals   (num,l):  3        0    1    2
Real-space Grid (nr,dr,rmax): 1203    0.0066555740    8.0000000000
Spherical Bessel Basis (nsws,lmax,cutoff):   47    2  176.3951722778
Confining potential (l,width,scale):  0    3.0000000000  100.0000000000
Confining potential (l,width,scale):  1    3.0000000000  100.0000000000
Confining potential (l,width,scale):  2    3.0000000000  100.0000000000
  1        -12.4735062396   -1.0328741412   10.1554312477   -2.4512393157
  2         -9.9458301913   -2.4607392455    8.3041325857   -2.0306994528
  3        -10.1450417646   -2.2931184565    8.4831893826   -2.0812538287
  4        -10.1528335592   -2.2733105793    8.5050388867   -2.0896035179
  5        -10.1571940363   -2.2633716629    8.5160794258   -2.0939370707
  6        -10.1594380571   -2.2584938667    8.5215163935   -2.0961289008
  7        -10.1605856507   -2.2561081821    8.5241804044   -2.0972291378
  8        -10.1611799191   -2.2549395235    8.5254868240   -2.0977806248
  9        -10.1614918752   -2.2543658586    8.5261285885   -2.0980571586
 10        -10.1616572884   -2.2540839121    8.5264441898   -2.0981959233
 11        -10.1617455602   -2.2539453058    8.5265994231   -2.0982656006
 12        -10.1617928447   -2.2538772062    8.5266757320   -2.0983006047
 13        -10.1618182292   -2.2538437891    8.5267131983   -2.0983181961
 14        -10.1618318741   -2.2538274201    8.5267315620   -2.0983270391
 15        -10.1618392144   -2.2538194197    8.5267405433   -2.0983314852
 16        -10.1618431651   -2.2538155200    8.5267449245   -2.0983337210
 17        -10.1618452923   -2.2538136252    8.5267470551   -2.0983348455
 18        -10.1618464380   -2.2538127080    8.5267480875   -2.0983354110
 19        -10.1618470552   -2.2538122659    8.5267485856   -2.0983356955
 20        -10.1618473878   -2.2538120540    8.5267488248   -2.0983358386
 21        -10.1618475670   -2.2538119530    8.5267489389   -2.0983359106
 22        -10.1618476637   -2.2538119053    8.5267489929   -2.0983359468
Atom SCF converged after  22 iterations to a total energy of    -10.16184766

Atom SCF Calculation for O  : Z (AE atom) =   8 : Z (PS atom) =   6
Config String:
Orbitals (num,occ):  2     2.00 4.00
Orbitals   (num,l):  2        0    1
Real-space Grid (nr,dr,rmax): 1203    0.0066555740    8.0000000000
Spherical Bessel Basis (nsws,lmax,cutoff):   47    1  176.3951722778
Confining potential (l,width,scale):  0    3.0000000000  100.0000000000
Confining potential (l,width,scale):  1    3.0000000000  100.0000000000
  1         -1.8735052164   -7.5539365035   10.1554312477   -2.4512393157
  2        -16.0318313751   -3.1285771268   13.6395848164   -3.2358799643
  3        -15.9524020423   -3.0762819706   13.6967272503   -3.2536856837
  4        -15.8521515939   -3.0781493909   13.6951909330   -3.2561700440
  5        -15.8357139793   -3.0748501933   13.6988803334   -3.2580493133
  6        -15.8246052853   -3.0740779781   13.6997881576   -3.2588327446
  7        -15.8189019501   -3.0737449687   13.7001869911   -3.2592378801
  8        -15.8159785510   -3.0736026016   13.7003615168   -3.2594475790
  9        -15.8144776168   -3.0735437994   13.7004360379   -3.2595560735
 10        -15.8137058024   -3.0735207882   13.7004667348   -3.2596122456
 11        -15.8133083127   -3.0735125946   13.7004786868   -3.2596413656
 12        -15.8131032938   -3.0735102195   13.7004828997   -3.2596564858
 13        -15.8129973902   -3.0735099286   13.7004840891   -3.2596643505
 14        -15.8129426040   -3.0735102506   13.7004842061   -3.2596684489
 15        -15.8129142203   -3.0735106556   13.7004840157   -3.2596705887
 16        -15.8128994940   -3.0735109855   13.7004837906   -3.2596717080
 17        -15.8128918425   -3.0735112169   13.7004836103   -3.2596722946
 18        -15.8128878614   -3.0735113674   13.7004834848   -3.2596726026
 19        -15.8128857871   -3.0735114608   13.7004834035   -3.2596727646
 20        -15.8128847048   -3.0735115170   13.7004833533   -3.2596728500
 21        -15.8128841394   -3.0735115501   13.7004833231   -3.2596728951
 22        -15.8128838436   -3.0735115693   13.7004833054   -3.2596729190
 23        -15.8128836887   -3.0735115802   13.7004832951   -3.2596729316
 24        -15.8128836074   -3.0735115864   13.7004832893   -3.2596729383
Atom SCF converged after  24 iterations to a total energy of    -15.81288361

========================== Calculation in vacuum ==============================
= Adjusting the following parameters: 
= is_implicit_solvent: F
= is_include_apolar: F
= write_denskern: T
= write_tightbox_ngwfs: T
= restart read filename prefix: ""
= restart write filename prefix: "vacuum_"
===============================================================================

Determining parallel strategy ...
... using space-filling curve
... NGWF load balancing: max    164;  min    163;  average    164
... Projector load balancing: max     36;  min     32;  average     33
... done
Calculating direct Ion-Ion energy ...
Ion-Ion Energy        :    829198.21070395736024
Basis initialisation ...... NGWF spheres initialised
... Projector spheres initialised
... NGWF tight boxes initialised
... Tight-boxes gathered
... NGWF basis size (local,global):    1184188  47621461
... Nonlocal pseudopotential projector initialisation
... done

========================== Sparse matrix information ===========================
                        Overlap matrix filling:   6.69%
                        Density kernel filling: 100.00%
              NGWF-Proj overlap matrix filling:   1.74%
                    Hamiltonian matrix filling:   7.53%
                  NGWF diagonal matrix filling:   0.05%
                             KS matrix filling: 100.00% 
                           KSKS matrix filling: 100.00% 
================================================================================

Sparse matrix initialisation ... done

Generating smeared ion density ... done
Smeared ion self correction:     -14543.939510
Smeared ion non-self correction: -829150.051396
NGWF initialisation ...... done
============ Calculation of NGWF S^-1 using Hotelling algorithm ================ 
         Iteration  |  Frobenius norm and Maximum abs value    (of I-S*S_n^-1)   
               1       0.78692083E+02     0.98250324E+00
               2       0.76823032E+02     0.96544921E+00
               3       0.73799749E+02     0.93259371E+00
               4       0.69507968E+02     0.87144195E+00
               5       0.64167649E+02     0.76659836E+00
               6       0.58171468E+02     0.70333779E+00
               7       0.52151236E+02     0.67138813E+00
               8       0.46588362E+02     0.64326668E+00
               9       0.40482792E+02     0.60062959E+00
              10       0.32156503E+02     0.53004435E+00
              11       0.21537223E+02     0.43704699E+00
              12       0.10940290E+02     0.29994232E+00
              13       0.35725957E+01     0.14320088E+00
              14       0.55936605E+00     0.33039017E-01
              15       0.26799760E-01     0.25916155E-02
              16       0.14529265E-03     0.18399079E-04
              17       0.74406517E-08     0.94126329E-09
              18       0.91533707E-13     0.49960036E-14
================================================================================
Calculating local pseudopotential in open BC on the fine real space grid ...
... done

MG BCs: +ve charge blocks (gridpoints):     21212 (   16636071).
MG BCs: -ve charge blocks (gridpoints):      8254 (    1102804).
MG BCs:     Elided blocks (gridpoints):    194020 (  192964670).
MG BCs: Computational effort saved:  99.9860%.
MG BCs: Charge after coarse-graining:           -9.0002406.
MG DL_MG: Calling solver with defect correction order = 8
MG DL_MG: Solver finished
MG Hartree energy from (\int phi*rho dr):              1471.467483
MG Hartree energy from (\int eps (grad phi)^2 dr):     1470.865890
MG Discrepancy due to finite box and discretization:     -0.601593 (  -0.04088%)
MG Correction to account for finite box:                  0.453973
MG Remaining discrepancy, due to discretization:         -0.147620 (  -0.01003%)
 WARNING: xc_energy_potential using alternative initial XC functional PBE.
Up spin density kernel initialisation ... 
======= Optimisation of K by Palser-Manolopoulos canonical purification ======== 
         Iteration  |  Band structure energy |    c_n   
               1       -2589.01665788352102    0.5267538
               2       -2765.50587032721614    0.5169496
               3       -2946.21947992860350    0.5154460
               4       -3096.86425038654352    0.5293515
               5       -3189.21878317821529    0.5658019
               6       -3227.72413006477655    0.6111050
               7       -3240.83687016626936    0.6245620
               8       -3246.52726602939856    0.6269597
               9       -3249.27215443712794    0.6454116
              10       -3250.41992407277576    0.6700722
              11       -3250.88941178754339    0.6841568
              12       -3251.10593927062928    0.6774872
              13       -3251.22212388537628    0.6460680
              14       -3251.29077547323914    0.5840382
              15       -3251.33189315840082    0.5210298
              16       -3251.34934622264063    0.5017207
              17       -3251.35326237571735    0.5074212
              18       -3251.35469376025367    0.5057640
              19       -3251.35509944323258    0.5007336
              20       -3251.35514506596974    0.5000040
              21       -3251.35514583561599    0.5000564
              22       -3251.35514583585064    0.5000564
Termination criterion satisfied: band energy change below threshold.
Final occupancy bounds: [    0.00000000000000:    1.00000000000000]
Closest occupancy to 0.5:     1.00000000000000
================================================================================
... done

Writing density kernel to file "complex_11881.vacuum_dkn" ... done

>>> Optimising kernel for current NGWFs:
   Initial electron number for spin 1:    7234.00000000
     Final electron number for spin 1:    7234.00000000

=================== Penalty functional idempotency correction ==================
 RMS occupancy error at iteration   1:  0.000000 (step -0.5000 Ne1=   7234.0000)
            Final RMS occupancy error   :  0.000000 (Ne1=   7234.0000)
               Final occupancy bounds   : [  0.0000,  1.0000]
================================================================================

................................................................................
<<<<<<<<<<<<<< LNV (Original version) density kernel optimisation >>>>>>>>>>>>>>
~~~~~~~~~~~~~~~~~~~~~~~~~~~~~~~~~~~~~~~~~~~~~~~~~~~~~~~~~~~~~~~~~~~~~~~~~~~~~~~~
   iter  |      energy (Eh)       | rms gradient |  commutator  |   dE (Eh)
MG BCs: +ve charge blocks (gridpoints):     32438 (   17768988).
MG BCs: -ve charge blocks (gridpoints):      8556 (    1137147).
MG BCs:     Elided blocks (gridpoints):    182786 (  191797410).
MG BCs: Computational effort saved:  99.9805%.
MG BCs: Charge after coarse-graining:           -9.0010236.
MG DL_MG: Calling solver with defect correction order = 8
MG DL_MG: Solver finished
MG Hartree energy from (\int phi*rho dr):              1426.548173
MG Hartree energy from (\int eps (grad phi)^2 dr):     1425.901179
MG Discrepancy due to finite box and discretization:     -0.646993 (  -0.04535%)
MG Correction to account for finite box:                  0.457816
MG Remaining discrepancy, due to discretization:         -0.189177 (  -0.01326%)
      ideal mu1:      -0.741067605856
             Q0:  -11541.566735259024
             G0:    -125.641651453093
   RMS gradient:       0.001713128333
MG BCs: +ve charge blocks (gridpoints):     32358 (   17846849).
MG BCs: -ve charge blocks (gridpoints):      8453 (    1113667).
MG BCs:     Elided blocks (gridpoints):    182864 (  191743029).
MG BCs: Computational effort saved:  99.9806%.
MG BCs: Charge after coarse-graining:           -9.0010445.
MG DL_MG: Calling solver with defect correction order = 8
MG DL_MG: Solver finished
MG Hartree energy from (\int phi*rho dr):              1448.520801
MG Hartree energy from (\int eps (grad phi)^2 dr):     1447.889737
MG Discrepancy due to finite box and discretization:     -0.631064 (  -0.04357%)
MG Correction to account for finite box:                  0.457070
MG Remaining discrepancy, due to discretization:         -0.173994 (  -0.01201%)
     Trial step:       0.500000000000
             Q1:  -11553.721971135354
 Quadratic coef:      50.665589850218
 Linear coef   :     -62.820825726546
           Qmin:  -11561.039794571232
Quadratic minimum step length (  0.309977767516) accepted
    Initial Ne1:    7234.00000000
      Final Ne1:    7234.00000000

=================== Penalty functional idempotency correction ==================
 RMS occupancy error at iteration   1:  0.003185 (step -0.4892 Ne1=   7234.0000)
 RMS occupancy error at iteration   2:  0.000024 (step -0.5000 Ne1=   7234.0000)
            Final RMS occupancy error   :  0.000000 (Ne1=   7234.0000)
               Final occupancy bounds   : [  0.0000,  1.0000]
================================================================================

    1        -1.154156673526E+04     1.7131E-03     1.5495E-03
MG BCs: +ve charge blocks (gridpoints):     32372 (   17819205).
MG BCs: -ve charge blocks (gridpoints):      8480 (    1122778).
MG BCs:     Elided blocks (gridpoints):    182851 (  191761562).
MG BCs: Computational effort saved:  99.9806%.
MG BCs: Charge after coarse-graining:           -9.0010363.
MG DL_MG: Calling solver with defect correction order = 8
MG DL_MG: Solver finished
MG Hartree energy from (\int phi*rho dr):              1433.617077
MG Hartree energy from (\int eps (grad phi)^2 dr):     1432.980814
MG Discrepancy due to finite box and discretization:     -0.636263 (  -0.04438%)
MG Correction to account for finite box:                  0.457207
MG Remaining discrepancy, due to discretization:         -0.179056 (  -0.01249%)
      ideal mu1:      -0.779354377300
             Q0:  -11561.420157431392
             G0:     -11.136291813651
   RMS gradient:       0.000506337218
MG BCs: +ve charge blocks (gridpoints):     32361 (   17835839).
MG BCs: -ve charge blocks (gridpoints):      8469 (    1115861).
MG BCs:     Elided blocks (gridpoints):    182861 (  191751845).
MG BCs: Computational effort saved:  99.9806%.
MG BCs: Charge after coarse-graining:           -9.0010406.
MG DL_MG: Calling solver with defect correction order = 8
MG DL_MG: Solver finished
MG Hartree energy from (\int phi*rho dr):              1439.052633
MG Hartree energy from (\int eps (grad phi)^2 dr):     1438.419767
MG Discrepancy due to finite box and discretization:     -0.632866 (  -0.04398%)
MG Correction to account for finite box:                  0.456795
MG Remaining discrepancy, due to discretization:         -0.176070 (  -0.01224%)
     Trial step:       0.393686275806
             Q1:  -11563.980422245804
 Quadratic coef:       1.823940435990
 Linear coef   :      -4.384205250403
           Qmin:  -11564.054735745791
Quadratic minimum step length (  0.473151810043) accepted
    Initial Ne1:    7233.99992442
      Final Ne1:    7234.00000000

=================== Penalty functional idempotency correction ==================
 RMS occupancy error at iteration   1:  0.001515 (step -0.4945 Ne1=   7234.0000)
 RMS occupancy error at iteration   2:  0.000007 (step -0.5000 Ne1=   7234.0000)
            Final RMS occupancy error   :  0.000000 (Ne1=   7234.0000)
               Final occupancy bounds   : [  0.0000,  1.0000]
================================================================================

    2        -1.156142015743E+04     5.0634E-04     4.5797E-04    -1.9853E+01
MG BCs: +ve charge blocks (gridpoints):     32357 (   17839217).
MG BCs: -ve charge blocks (gridpoints):      8463 (    1114468).
MG BCs:     Elided blocks (gridpoints):    182865 (  191749860).
MG BCs: Computational effort saved:  99.9806%.
MG BCs: Charge after coarse-graining:           -9.0010415.
MG DL_MG: Calling solver with defect correction order = 8
MG DL_MG: Solver finished
MG Hartree energy from (\int phi*rho dr):              1440.173925
MG Hartree energy from (\int eps (grad phi)^2 dr):     1439.541695
MG Discrepancy due to finite box and discretization:     -0.632230 (  -0.04390%)
MG Correction to account for finite box:                  0.456725
MG Remaining discrepancy, due to discretization:         -0.175505 (  -0.01219%)
      ideal mu1:      -0.799469871198
             Q0:  -11564.088699780521
             G0:      -1.839442896243
   RMS gradient:       0.000205867936
MG BCs: +ve charge blocks (gridpoints):     32356 (   17840191).
MG BCs: -ve charge blocks (gridpoints):      8456 (    1114577).
MG BCs:     Elided blocks (gridpoints):    182866 (  191748777).
MG BCs: Computational effort saved:  99.9806%.
MG BCs: Charge after coarse-graining:           -9.0010417.
MG DL_MG: Calling solver with defect correction order = 8
MG DL_MG: Solver finished
MG Hartree energy from (\int phi*rho dr):              1439.554820
MG Hartree energy from (\int eps (grad phi)^2 dr):     1438.922916
MG Discrepancy due to finite box and discretization:     -0.631904 (  -0.04390%)
MG Correction to account for finite box:                  0.456583
MG Remaining discrepancy, due to discretization:         -0.175321 (  -0.01218%)
     Trial step:       0.431593992065
             Q1:  -11564.560842717299
 Quadratic coef:       0.321749565986
 Linear coef   :      -0.793892502765
           Qmin:  -11564.578417073546
Quadratic minimum step length (  0.532462621183) accepted
    Initial Ne1:    7233.99997610
      Final Ne1:    7234.00000000

=================== Penalty functional idempotency correction ==================
 RMS occupancy error at iteration   1:  0.000575 (step -0.4978 Ne1=   7234.0000)
 RMS occupancy error at iteration   2:  0.000001 (step -0.5000 Ne1=   7234.0000)
            Final RMS occupancy error   :  0.000000 (Ne1=   7234.0000)
               Final occupancy bounds   : [  0.0000,  1.0000]
================================================================================

    3        -1.156408869978E+04     2.0587E-04     1.8620E-04    -2.6685E+00
MG BCs: +ve charge blocks (gridpoints):     32356 (   17840588).
MG BCs: -ve charge blocks (gridpoints):      8459 (    1114509).
MG BCs:     Elided blocks (gridpoints):    182866 (  191748448).
MG BCs: Computational effort saved:  99.9806%.
MG BCs: Charge after coarse-graining:           -9.0010416.
MG DL_MG: Calling solver with defect correction order = 8
MG DL_MG: Solver finished
MG Hartree energy from (\int phi*rho dr):              1439.415018
MG Hartree energy from (\int eps (grad phi)^2 dr):     1438.783180
MG Discrepancy due to finite box and discretization:     -0.631839 (  -0.04390%)
MG Correction to account for finite box:                  0.456551
MG Remaining discrepancy, due to discretization:         -0.175288 (  -0.01218%)
      ideal mu1:      -0.802238972609
             Q0:  -11564.583049665205
             G0:      -0.399120543931
   RMS gradient:       0.000096059873
MG BCs: +ve charge blocks (gridpoints):     32352 (   17841001).
MG BCs: -ve charge blocks (gridpoints):      8451 (    1114478).
MG BCs:     Elided blocks (gridpoints):    182870 (  191748066).
MG BCs: Computational effort saved:  99.9806%.
MG BCs: Charge after coarse-graining:           -9.0010417.
MG DL_MG: Calling solver with defect correction order = 8
MG DL_MG: Solver finished
MG Hartree energy from (\int phi*rho dr):              1440.492538
MG Hartree energy from (\int eps (grad phi)^2 dr):     1439.860591
MG Discrepancy due to finite box and discretization:     -0.631947 (  -0.04387%)
MG Correction to account for finite box:                  0.456505
MG Remaining discrepancy, due to discretization:         -0.175442 (  -0.01218%)
     Trial step:       0.479382590737
             Q1:  -11564.681115871645
 Quadratic coef:       0.093265233927
 Linear coef   :      -0.191331440366
           Qmin:  -11564.681177656021
Quadratic minimum step length (  0.491721071776) accepted
    Initial Ne1:    7233.99999505
      Final Ne1:    7234.00000000

=================== Penalty functional idempotency correction ==================
 RMS occupancy error at iteration   1:  0.000183 (step -0.4992 Ne1=   7234.0000)
            Final RMS occupancy error   :  0.000000 (Ne1=   7234.0000)
               Final occupancy bounds   : [ -0.0000,  1.0000]
================================================================================

    4        -1.156458304967E+04     9.6060E-05     8.6884E-05    -4.9435E-01
MG BCs: +ve charge blocks (gridpoints):     32352 (   17841044).
MG BCs: -ve charge blocks (gridpoints):      8450 (    1114448).
MG BCs:     Elided blocks (gridpoints):    182871 (  191748053).
MG BCs: Computational effort saved:  99.9806%.
MG BCs: Charge after coarse-graining:           -9.0010417.
MG DL_MG: Calling solver with defect correction order = 8
MG DL_MG: Solver finished
MG Hartree energy from (\int phi*rho dr):              1440.520510
MG Hartree energy from (\int eps (grad phi)^2 dr):     1439.888560
MG Discrepancy due to finite box and discretization:     -0.631951 (  -0.04387%)
MG Correction to account for finite box:                  0.456504
MG Remaining discrepancy, due to discretization:         -0.175446 (  -0.01218%)
      ideal mu1:      -0.802382407281
             Q0:  -11564.681603682227
             G0:      -0.103826887823
   RMS gradient:       0.000049142631
MG BCs: +ve charge blocks (gridpoints):     32354 (   17840748).
MG BCs: -ve charge blocks (gridpoints):      8453 (    1114509).
MG BCs:     Elided blocks (gridpoints):    182869 (  191748288).
MG BCs: Computational effort saved:  99.9806%.
MG BCs: Charge after coarse-graining:           -9.0010415.
MG DL_MG: Calling solver with defect correction order = 8
MG DL_MG: Solver finished
MG Hartree energy from (\int phi*rho dr):              1440.243924
MG Hartree energy from (\int eps (grad phi)^2 dr):     1439.611830
MG Discrepancy due to finite box and discretization:     -0.632094 (  -0.04389%)
MG Correction to account for finite box:                  0.456514
MG Remaining discrepancy, due to discretization:         -0.175580 (  -0.01219%)
     Trial step:       0.485512637640
             Q1:  -11564.705795663642
 Quadratic coef:       0.026217284751
 Linear coef   :      -0.050409266165
           Qmin:  -11564.705834777662
Quadratic minimum step length (  0.466759544513) accepted
    Initial Ne1:    7234.00176227
      Final Ne1:    7234.00000000

=================== Penalty functional idempotency correction ==================
 RMS occupancy error at iteration   1:  0.000062 (step -0.4997 Ne1=   7234.0000)
            Final RMS occupancy error   :  0.000000 (Ne1=   7234.0000)
               Final occupancy bounds   : [ -0.0000,  1.0000]
================================================================================

    5        -1.156468160368E+04     4.9143E-05     4.4448E-05    -9.8554E-02
MG BCs: +ve charge blocks (gridpoints):     32354 (   17840754).
MG BCs: -ve charge blocks (gridpoints):      8453 (    1114502).
MG BCs:     Elided blocks (gridpoints):    182869 (  191748289).
MG BCs: Computational effort saved:  99.9806%.
MG BCs: Charge after coarse-graining:           -9.0010415.
MG DL_MG: Calling solver with defect correction order = 8
MG DL_MG: Solver finished
MG Hartree energy from (\int phi*rho dr):              1440.254595
MG Hartree energy from (\int eps (grad phi)^2 dr):     1439.622506
MG Discrepancy due to finite box and discretization:     -0.632089 (  -0.04389%)
MG Correction to account for finite box:                  0.456514
MG Remaining discrepancy, due to discretization:         -0.175575 (  -0.01219%)
      ideal mu1:      -0.801849563199
             Q0:  -11564.705880168127
             G0:      -0.025245831914
   RMS gradient:       0.000024256698
MG BCs: +ve charge blocks (gridpoints):     32354 (   17840445).
MG BCs: -ve charge blocks (gridpoints):      8454 (    1114727).
MG BCs:     Elided blocks (gridpoints):    182869 (  191748373).
MG BCs: Computational effort saved:  99.9806%.
MG BCs: Charge after coarse-graining:           -9.0010414.
MG DL_MG: Calling solver with defect correction order = 8
MG DL_MG: Solver finished
MG Hartree energy from (\int phi*rho dr):              1439.755152
MG Hartree energy from (\int eps (grad phi)^2 dr):     1439.123047
MG Discrepancy due to finite box and discretization:     -0.632105 (  -0.04390%)
MG Correction to account for finite box:                  0.456519
MG Remaining discrepancy, due to discretization:         -0.175585 (  -0.01220%)
     Trial step:       0.476043755972
             Q1:  -11564.713219219702
 Quadratic coef:       0.004679069072
 Linear coef   :      -0.012018120647
           Qmin:  -11564.713597260014
Quadratic minimum step length (  0.611355721018) accepted
    Initial Ne1:    7234.00083660
      Final Ne1:    7234.00000000

=================== Penalty functional idempotency correction ==================
 RMS occupancy error at iteration   1:  0.000026 (step -0.4999 Ne1=   7234.0000)
            Final RMS occupancy error   :  0.000000 (Ne1=   7234.0000)
               Final occupancy bounds   : [ -0.0000,  1.0000]
================================================================================

    6        -1.156470588017E+04     2.4257E-05     2.1940E-05    -2.4276E-02
MG BCs: +ve charge blocks (gridpoints):     32355 (   17840380).
MG BCs: -ve charge blocks (gridpoints):      8454 (    1114775).
MG BCs:     Elided blocks (gridpoints):    182868 (  191748390).
MG BCs: Computational effort saved:  99.9806%.
MG BCs: Charge after coarse-graining:           -9.0010414.
MG DL_MG: Calling solver with defect correction order = 8
MG DL_MG: Solver finished
MG Hartree energy from (\int phi*rho dr):              1439.613020
MG Hartree energy from (\int eps (grad phi)^2 dr):     1438.980911
MG Discrepancy due to finite box and discretization:     -0.632109 (  -0.04391%)
MG Correction to account for finite box:                  0.456521
MG Remaining discrepancy, due to discretization:         -0.175588 (  -0.01220%)
      ideal mu1:      -0.801779265514
             Q0:  -11564.713603358949
             G0:      -0.009737378333
   RMS gradient:       0.000015081485
MG BCs: +ve charge blocks (gridpoints):     32356 (   17840748).
MG BCs: -ve charge blocks (gridpoints):      8453 (    1114524).
MG BCs:     Elided blocks (gridpoints):    182867 (  191748273).
MG BCs: Computational effort saved:  99.9806%.
MG BCs: Charge after coarse-graining:           -9.0010415.
MG DL_MG: Calling solver with defect correction order = 8
MG DL_MG: Solver finished
MG Hartree energy from (\int phi*rho dr):              1440.132355
MG Hartree energy from (\int eps (grad phi)^2 dr):     1439.500245
MG Discrepancy due to finite box and discretization:     -0.632110 (  -0.04389%)
MG Correction to account for finite box:                  0.456517
MG Remaining discrepancy, due to discretization:         -0.175593 (  -0.01219%)
     Trial step:       0.539473885993
             Q1:  -11564.716084501008
 Quadratic coef:       0.002771919269
 Linear coef   :      -0.005253061329
           Qmin:  -11564.716092126715
Quadratic minimum step length (  0.511178200545) accepted
    Initial Ne1:    7234.00005603
      Final Ne1:    7234.00000000

=================== Penalty functional idempotency correction ==================
 RMS occupancy error at iteration   1:  0.000001 (step -0.5000 Ne1=   7234.0000)
            Final RMS occupancy error   :  0.000000 (Ne1=   7234.0000)
               Final occupancy bounds   : [  0.0000,  1.0000]
================================================================================

    7        -1.156471360336E+04     1.5081E-05     1.3641E-05    -7.7232E-03
MG BCs: +ve charge blocks (gridpoints):     32355 (   17840747).
MG BCs: -ve charge blocks (gridpoints):      8453 (    1114519).
MG BCs:     Elided blocks (gridpoints):    182868 (  191748279).
MG BCs: Computational effort saved:  99.9806%.
MG BCs: Charge after coarse-graining:           -9.0010415.
MG DL_MG: Calling solver with defect correction order = 8
MG DL_MG: Solver finished
MG Hartree energy from (\int phi*rho dr):              1440.105092
MG Hartree energy from (\int eps (grad phi)^2 dr):     1439.472982
MG Discrepancy due to finite box and discretization:     -0.632110 (  -0.04389%)
MG Correction to account for finite box:                  0.456517
MG Remaining discrepancy, due to discretization:         -0.175593 (  -0.01219%)
      ideal mu1:      -0.802081505805
             Q0:  -11564.716092160321
             G0:      -0.005354963999
   RMS gradient:       0.000011184356
MG BCs: +ve charge blocks (gridpoints):     32356 (   17840786).
MG BCs: -ve charge blocks (gridpoints):      8453 (    1114509).
MG BCs:     Elided blocks (gridpoints):    182867 (  191748250).
MG BCs: Computational effort saved:  99.9806%.
MG BCs: Charge after coarse-graining:           -9.0010415.
MG DL_MG: Calling solver with defect correction order = 8
MG DL_MG: Solver finished
MG Hartree energy from (\int phi*rho dr):              1440.157046
MG Hartree energy from (\int eps (grad phi)^2 dr):     1439.524948
MG Discrepancy due to finite box and discretization:     -0.632098 (  -0.04389%)
MG Correction to account for finite box:                  0.456512
MG Remaining discrepancy, due to discretization:         -0.175587 (  -0.01219%)
     Trial step:       0.525135497070
             Q1:  -11564.718145648483
 Quadratic coef:       0.000758593518
 Linear coef   :      -0.002812081681
           Qmin:  -11564.718698234323
Quadratic minimum step length (  0.973330166995) accepted
    Initial Ne1:    7234.00005828
      Final Ne1:    7234.00000000

=================== Penalty functional idempotency correction ==================
 RMS occupancy error at iteration   1:  0.000012 (step -0.4997 Ne1=   7234.0000)
            Final RMS occupancy error   :  0.000000 (Ne1=   7234.0000)
               Final occupancy bounds   : [ -0.0000,  1.0000]
================================================================================

    8        -1.156471609216E+04     1.1184E-05     1.0116E-05    -2.4888E-03
MG BCs: +ve charge blocks (gridpoints):     32356 (   17840849).
MG BCs: -ve charge blocks (gridpoints):      8452 (    1114450).
MG BCs:     Elided blocks (gridpoints):    182867 (  191748246).
MG BCs: Computational effort saved:  99.9806%.
MG BCs: Charge after coarse-graining:           -9.0010416.
MG DL_MG: Calling solver with defect correction order = 8
MG DL_MG: Solver finished
MG Hartree energy from (\int phi*rho dr):              1440.200623
MG Hartree energy from (\int eps (grad phi)^2 dr):     1439.568535
MG Discrepancy due to finite box and discretization:     -0.632088 (  -0.04389%)
MG Correction to account for finite box:                  0.456507
MG Remaining discrepancy, due to discretization:         -0.175581 (  -0.01219%)
      ideal mu1:      -0.802180431913
             Q0:  -11564.718695727177
             G0:      -0.007020443987
   RMS gradient:       0.000012818256
MG BCs: +ve charge blocks (gridpoints):     32357 (   17840705).
MG BCs: -ve charge blocks (gridpoints):      8452 (    1114557).
MG BCs:     Elided blocks (gridpoints):    182866 (  191748283).
MG BCs: Computational effort saved:  99.9806%.
MG BCs: Charge after coarse-graining:           -9.0010415.
MG DL_MG: Calling solver with defect correction order = 8
MG DL_MG: Solver finished
MG Hartree energy from (\int phi*rho dr):              1439.901532
MG Hartree energy from (\int eps (grad phi)^2 dr):     1439.269467
MG Discrepancy due to finite box and discretization:     -0.632065 (  -0.04390%)
MG Correction to account for finite box:                  0.456498
MG Remaining discrepancy, due to discretization:         -0.175567 (  -0.01219%)
     Trial step:       0.714933717947
             Q1:  -11564.721686062869
 Quadratic coef:       0.002028816429
 Linear coef   :      -0.005019152121
           Qmin:  -11564.721799986348
Quadratic minimum step length (  0.884348390578) accepted
    Initial Ne1:    7234.00012466
      Final Ne1:    7234.00000000

=================== Penalty functional idempotency correction ==================
 RMS occupancy error at iteration   1:  0.000053 (step -0.4984 Ne1=   7234.0000)
            Final RMS occupancy error   :  0.000000 (Ne1=   7234.0000)
               Final occupancy bounds   : [ -0.0000,  1.0000]
================================================================================

    9        -1.156471869573E+04     1.2818E-05     1.1594E-05    -2.6036E-03
MG BCs: +ve charge blocks (gridpoints):     32357 (   17840646).
MG BCs: -ve charge blocks (gridpoints):      8452 (    1114608).
MG BCs:     Elided blocks (gridpoints):    182866 (  191748291).
MG BCs: Computational effort saved:  99.9806%.
MG BCs: Charge after coarse-graining:           -9.0010415.
MG DL_MG: Calling solver with defect correction order = 8
MG DL_MG: Solver finished
MG Hartree energy from (\int phi*rho dr):              1439.829733
MG Hartree energy from (\int eps (grad phi)^2 dr):     1439.197673
MG Discrepancy due to finite box and discretization:     -0.632060 (  -0.04390%)
MG Correction to account for finite box:                  0.456496
MG Remaining discrepancy, due to discretization:         -0.175563 (  -0.01219%)
      ideal mu1:      -0.801945704113
   10        -1.156472179490E+04     1.3071E-05     1.1823E-05    -3.0992E-03
Finished density kernel iterations (  10)

Writing density kernel to file "complex_11881.vacuum_dkn" ... done


>>> Density kernel optimised for the current NGWF basis:
     ~~~~~~~~~~~~~~~~~~~~~~~~~~~~~~~~~~~~~~~~~~~~~~~~~~~~~~~~~~~
     Total energy                =  -1.15647217949004E+04  Eh
     Estimated bandgap           =  -2.2572E-01  Eh
     RMS occupancy error         =   8.1925E-08
     [H,K] commutator            =   1.1823E-05
     Occupancy bounds            = [ -0.000:  1.000]
     ~~~~~~~~~~~~~~~~~~~~~~~~~~~~~~~~~~~~~~~~~~~~~~~~~~~~~~~~~~~




################################################################################
########################### NGWF CG iteration  001 #############################
################################################################################
****** Reciprocal space K.E. preconditioning with k_zero =  3.5000 a0^-1 *******

>>> Checking for convergence of NGWFs:   NOT CONVERGED
  ========================================================================
         NGWF RMS gradient =  1.6206E-03 >  2.0000E-06  | above tolerance
  ========================================================================

>>> Improving NGWFs using line search:
============ Calculation of NGWF S^-1 using Hotelling algorithm ================ 
         Iteration  |  Frobenius norm and Maximum abs value    (of I-S*S_n^-1)   
               1       0.23326204E+00     0.60517885E-02
               2       0.12493949E-02     0.50367681E-04
               3       0.59492002E-07     0.38656810E-08
               4       0.13080115E-12     0.79936058E-14
================================================================================
MG BCs: +ve charge blocks (gridpoints):     31816 (   17788281).
MG BCs: -ve charge blocks (gridpoints):      8467 (    1111410).
MG BCs:     Elided blocks (gridpoints):    183409 (  191803854).
MG BCs: Computational effort saved:  99.9809%.
MG BCs: Charge after coarse-graining:           -9.0010447.
MG DL_MG: Calling solver with defect correction order = 8
MG DL_MG: Solver finished
MG Hartree energy from (\int phi*rho dr):              1411.890766
MG Hartree energy from (\int eps (grad phi)^2 dr):     1411.260020
MG Discrepancy due to finite box and discretization:     -0.630746 (  -0.04467%)
MG Correction to account for finite box:                  0.456468
MG Remaining discrepancy, due to discretization:         -0.174277 (  -0.01234%)
============ Calculation of NGWF S^-1 using Hotelling algorithm ================ 
         Iteration  |  Frobenius norm and Maximum abs value    (of I-S*S_n^-1)   
               1       0.21728825E+01     0.46431643E-01
               2       0.96632756E-01     0.29310539E-02
               3       0.26228602E-03     0.14476504E-04
               4       0.33768109E-08     0.38006687E-09
               5       0.11581525E-12     0.59952043E-14
================================================================================
------------------------------- NGWF line search -------------------------------
RMS gradient                =       0.00162055173082
Trial step length           =               0.122474
Gradient along search dir.  =       -291.83516326601
Functional at step 0        =  -11564.72179490036797
Functional at step 1        =  -11597.71018565609120
Functional predicted        =  -11680.69218343873763
Selected quadratic step     =               0.794766
--------------------------- NGWF line search finished --------------------------
                                               
Writing NGWFs to file "complex_11881.vacuum_tightbox_ngwfs"....  done

>>> Optimising kernel for current NGWFs:
   Initial electron number for spin 1:    7280.02674533
     Final electron number for spin 1:    7234.00000000

=================== Penalty functional idempotency correction ==================
 RMS occupancy error at iteration   1:  0.005203 (step -0.4829 Ne1=   7234.0000)
 RMS occupancy error at iteration   2:  0.000094 (step -0.5003 Ne1=   7234.0000)
            Final RMS occupancy error   :  0.000000 (Ne1=   7234.0000)
               Final occupancy bounds   : [  0.0000,  1.0000]
================================================================================

................................................................................
<<<<<<<<<<<<<< LNV (Original version) density kernel optimisation >>>>>>>>>>>>>>
~~~~~~~~~~~~~~~~~~~~~~~~~~~~~~~~~~~~~~~~~~~~~~~~~~~~~~~~~~~~~~~~~~~~~~~~~~~~~~~~
   iter  |      energy (Eh)       | rms gradient |  commutator  |   dE (Eh)
MG BCs: +ve charge blocks (gridpoints):     25925 (   17586799).
MG BCs: -ve charge blocks (gridpoints):      8580 (    1081466).
MG BCs:     Elided blocks (gridpoints):    189307 (  192035280).
MG BCs: Computational effort saved:  99.9836%.
MG BCs: Charge after coarse-graining:           -9.0007565.
MG DL_MG: Calling solver with defect correction order = 8
MG DL_MG: Solver finished
MG Hartree energy from (\int phi*rho dr):              1280.777905
MG Hartree energy from (\int eps (grad phi)^2 dr):     1280.149770
MG Discrepancy due to finite box and discretization:     -0.628135 (  -0.04904%)
MG Correction to account for finite box:                  0.456352
MG Remaining discrepancy, due to discretization:         -0.171783 (  -0.01341%)
      ideal mu1:      -0.743925393371
             Q0:  -11680.041226463160
             G0:      -9.653292919402
   RMS gradient:       0.000474854789
MG BCs: +ve charge blocks (gridpoints):     26015 (   17601485).
MG BCs: -ve charge blocks (gridpoints):      8558 (    1077727).
MG BCs:     Elided blocks (gridpoints):    189217 (  192024333).
MG BCs: Computational effort saved:  99.9836%.
MG BCs: Charge after coarse-graining:           -9.0007528.
MG DL_MG: Calling solver with defect correction order = 8
MG DL_MG: Solver finished
MG Hartree energy from (\int phi*rho dr):              1295.896311
MG Hartree energy from (\int eps (grad phi)^2 dr):     1295.262955
MG Discrepancy due to finite box and discretization:     -0.633357 (  -0.04887%)
MG Correction to account for finite box:                  0.456047
MG Remaining discrepancy, due to discretization:         -0.177309 (  -0.01368%)
     Trial step:       0.795141800459
             Q1:  -11678.572014651611
 Quadratic coef:       9.144948523841
 Linear coef   :      -7.675736712291
           Qmin:  -11681.651867953455
Quadratic minimum step length (  0.333697838394) accepted
    Initial Ne1:    7233.99907481
      Final Ne1:    7234.00000000

=================== Penalty functional idempotency correction ==================
 RMS occupancy error at iteration   1:  0.000359 (step -0.4985 Ne1=   7234.0000)
 RMS occupancy error at iteration   2:  0.000000 (step -0.5000 Ne1=   7234.0000)
            Final RMS occupancy error   :  0.000000 (Ne1=   7234.0000)
               Final occupancy bounds   : [  0.0000,  1.0000]
================================================================================

    1        -1.168004122646E+04     4.7485E-04     4.2950E-04
MG BCs: +ve charge blocks (gridpoints):     25952 (   17593073).
MG BCs: -ve charge blocks (gridpoints):      8570 (    1079959).
MG BCs:     Elided blocks (gridpoints):    189280 (  192030513).
MG BCs: Computational effort saved:  99.9836%.
MG BCs: Charge after coarse-graining:           -9.0007549.
MG DL_MG: Calling solver with defect correction order = 8
MG DL_MG: Solver finished
MG Hartree energy from (\int phi*rho dr):              1285.976067
MG Hartree energy from (\int eps (grad phi)^2 dr):     1285.345847
MG Discrepancy due to finite box and discretization:     -0.630220 (  -0.04901%)
MG Correction to account for finite box:                  0.456204
MG Remaining discrepancy, due to discretization:         -0.174016 (  -0.01353%)
      ideal mu1:      -0.750363368044
             Q0:  -11681.628393544932
             G0:      -0.878001518621
   RMS gradient:       0.000143843180
MG BCs: +ve charge blocks (gridpoints):     25966 (   17592779).
MG BCs: -ve charge blocks (gridpoints):      8571 (    1080777).
MG BCs:     Elided blocks (gridpoints):    189266 (  192029989).
MG BCs: Computational effort saved:  99.9836%.
MG BCs: Charge after coarse-graining:           -9.0007548.
MG DL_MG: Calling solver with defect correction order = 8
MG DL_MG: Solver finished
MG Hartree energy from (\int phi*rho dr):              1286.583968
MG Hartree energy from (\int eps (grad phi)^2 dr):     1285.953482
MG Discrepancy due to finite box and discretization:     -0.630485 (  -0.04900%)
MG Correction to account for finite box:                  0.456202
MG Remaining discrepancy, due to discretization:         -0.174283 (  -0.01355%)
     Trial step:       0.515108823483
             Q1:  -11681.825510193128
 Quadratic coef:       0.255149681077
 Linear coef   :      -0.452266329273
           Qmin:  -11681.828810053126
Quadratic minimum step length (  0.456528841794) accepted
    Initial Ne1:    7233.99988384
      Final Ne1:    7234.00000000

=================== Penalty functional idempotency correction ==================
 RMS occupancy error at iteration   1:  0.000137 (step -0.4995 Ne1=   7234.0000)
            Final RMS occupancy error   :  0.000000 (Ne1=   7234.0000)
               Final occupancy bounds   : [ -0.0000,  1.0000]
================================================================================

    2        -1.168162839354E+04     1.4384E-04     1.3010E-04    -1.5872E+00
MG BCs: +ve charge blocks (gridpoints):     25961 (   17592778).
MG BCs: -ve charge blocks (gridpoints):      8570 (    1080689).
MG BCs:     Elided blocks (gridpoints):    189271 (  192030078).
MG BCs: Computational effort saved:  99.9836%.
MG BCs: Charge after coarse-graining:           -9.0007548.
MG DL_MG: Calling solver with defect correction order = 8
MG DL_MG: Solver finished
MG Hartree energy from (\int phi*rho dr):              1286.515395
MG Hartree energy from (\int eps (grad phi)^2 dr):     1285.884941
MG Discrepancy due to finite box and discretization:     -0.630454 (  -0.04900%)
MG Correction to account for finite box:                  0.456202
MG Remaining discrepancy, due to discretization:         -0.174252 (  -0.01354%)
      ideal mu1:      -0.751143288225
             Q0:  -11681.829209410818
             G0:      -0.169987946796
   RMS gradient:       0.000062948185
MG BCs: +ve charge blocks (gridpoints):     25964 (   17592063).
MG BCs: -ve charge blocks (gridpoints):      8573 (    1081150).
MG BCs:     Elided blocks (gridpoints):    189268 (  192030332).
MG BCs: Computational effort saved:  99.9836%.
MG BCs: Charge after coarse-graining:           -9.0007548.
MG DL_MG: Calling solver with defect correction order = 8
MG DL_MG: Solver finished
MG Hartree energy from (\int phi*rho dr):              1285.914063
MG Hartree energy from (\int eps (grad phi)^2 dr):     1285.283704
MG Discrepancy due to finite box and discretization:     -0.630359 (  -0.04902%)
MG Correction to account for finite box:                  0.456195
MG Remaining discrepancy, due to discretization:         -0.174164 (  -0.01354%)
     Trial step:       0.484935082854
             Q1:  -11681.879261930822
 Quadratic coef:       0.032380599059
 Linear coef   :      -0.082433119064
           Qmin:  -11681.881673072054
Quadratic minimum step length (  0.617263308654) accepted
    Initial Ne1:    7234.00055142
      Final Ne1:    7234.00000000

=================== Penalty functional idempotency correction ==================
 RMS occupancy error at iteration   1:  0.000068 (step -0.4997 Ne1=   7234.0000)
            Final RMS occupancy error   :  0.000000 (Ne1=   7234.0000)
               Final occupancy bounds   : [ -0.0000,  1.0000]
================================================================================

    3        -1.168182920941E+04     6.2948E-05     5.6935E-05    -2.0082E-01
MG BCs: +ve charge blocks (gridpoints):     25964 (   17591850).
MG BCs: -ve charge blocks (gridpoints):      8573 (    1081279).
MG BCs:     Elided blocks (gridpoints):    189268 (  192030416).
MG BCs: Computational effort saved:  99.9836%.
MG BCs: Charge after coarse-graining:           -9.0007548.
MG DL_MG: Calling solver with defect correction order = 8
MG DL_MG: Solver finished
MG Hartree energy from (\int phi*rho dr):              1285.749607
MG Hartree energy from (\int eps (grad phi)^2 dr):     1285.119273
MG Discrepancy due to finite box and discretization:     -0.630334 (  -0.04902%)
MG Correction to account for finite box:                  0.456193
MG Remaining discrepancy, due to discretization:         -0.174141 (  -0.01354%)
      ideal mu1:      -0.750231233536
             Q0:  -11681.881772926194
             G0:      -0.033498342282
   RMS gradient:       0.000027930008
MG BCs: +ve charge blocks (gridpoints):     25964 (   17591550).
MG BCs: -ve charge blocks (gridpoints):      8572 (    1081365).
MG BCs:     Elided blocks (gridpoints):    189268 (  192030630).
MG BCs: Computational effort saved:  99.9836%.
MG BCs: Charge after coarse-graining:           -9.0007548.
MG DL_MG: Calling solver with defect correction order = 8
MG DL_MG: Solver finished
MG Hartree energy from (\int phi*rho dr):              1285.774404
MG Hartree energy from (\int eps (grad phi)^2 dr):     1285.144155
MG Discrepancy due to finite box and discretization:     -0.630249 (  -0.04902%)
MG Correction to account for finite box:                  0.456192
MG Remaining discrepancy, due to discretization:         -0.174057 (  -0.01354%)
     Trial step:       0.547112999046
             Q1:  -11681.890762655530
 Quadratic coef:       0.009337649171
 Linear coef   :      -0.018327378509
           Qmin:  -11681.890765896394
Quadratic minimum step length (  0.536920312412) accepted
    Initial Ne1:    7234.00024535
      Final Ne1:    7234.00000000

=================== Penalty functional idempotency correction ==================
 RMS occupancy error at iteration   1:  0.000018 (step -0.4999 Ne1=   7234.0000)
            Final RMS occupancy error   :  0.000000 (Ne1=   7234.0000)
               Final occupancy bounds   : [ -0.0000,  1.0000]
================================================================================

    4        -1.168188177293E+04     2.7930E-05     2.5262E-05    -5.2564E-02
MG BCs: +ve charge blocks (gridpoints):     25964 (   17591568).
MG BCs: -ve charge blocks (gridpoints):      8572 (    1081357).
MG BCs:     Elided blocks (gridpoints):    189268 (  192030620).
MG BCs: Computational effort saved:  99.9836%.
MG BCs: Charge after coarse-graining:           -9.0007548.
MG DL_MG: Calling solver with defect correction order = 8
MG DL_MG: Solver finished
MG Hartree energy from (\int phi*rho dr):              1285.773929
MG Hartree energy from (\int eps (grad phi)^2 dr):     1285.143679
MG Discrepancy due to finite box and discretization:     -0.630251 (  -0.04902%)
MG Correction to account for finite box:                  0.456192
MG Remaining discrepancy, due to discretization:         -0.174059 (  -0.01354%)
      ideal mu1:      -0.750250980235
             Q0:  -11681.890770956990
             G0:      -0.010377535087
   RMS gradient:       0.000015565966
MG BCs: +ve charge blocks (gridpoints):     25964 (   17591967).
MG BCs: -ve charge blocks (gridpoints):      8573 (    1081200).
MG BCs:     Elided blocks (gridpoints):    189268 (  192030378).
MG BCs: Computational effort saved:  99.9836%.
MG BCs: Charge after coarse-graining:           -9.0007548.
MG DL_MG: Calling solver with defect correction order = 8
MG DL_MG: Solver finished
MG Hartree energy from (\int phi*rho dr):              1286.113155
MG Hartree energy from (\int eps (grad phi)^2 dr):     1285.482931
MG Discrepancy due to finite box and discretization:     -0.630224 (  -0.04900%)
MG Correction to account for finite box:                  0.456183
MG Remaining discrepancy, due to discretization:         -0.174042 (  -0.01353%)
     Trial step:       0.541992695866
             Q1:  -11681.893431796343
 Quadratic coef:       0.002963708866
 Linear coef   :      -0.005624548218
           Qmin:  -11681.893439534108
Quadratic minimum step length (  0.514298837923) accepted
    Initial Ne1:    7234.00008643
      Final Ne1:    7234.00000000

=================== Penalty functional idempotency correction ==================
 RMS occupancy error at iteration   1:  0.000008 (step -0.5000 Ne1=   7234.0000)
            Final RMS occupancy error   :  0.000000 (Ne1=   7234.0000)
               Final occupancy bounds   : [ -0.0000,  1.0000]
================================================================================

    5        -1.168189077096E+04     1.5566E-05     1.4079E-05    -8.9980E-03
MG BCs: +ve charge blocks (gridpoints):     25964 (   17591950).
MG BCs: -ve charge blocks (gridpoints):      8573 (    1081208).
MG BCs:     Elided blocks (gridpoints):    189268 (  192030387).
MG BCs: Computational effort saved:  99.9836%.
MG BCs: Charge after coarse-graining:           -9.0007548.
MG DL_MG: Calling solver with defect correction order = 8
MG DL_MG: Solver finished
MG Hartree energy from (\int phi*rho dr):              1286.095798
MG Hartree energy from (\int eps (grad phi)^2 dr):     1285.465573
MG Discrepancy due to finite box and discretization:     -0.630225 (  -0.04900%)
MG Correction to account for finite box:                  0.456183
MG Remaining discrepancy, due to discretization:         -0.174042 (  -0.01353%)
      ideal mu1:      -0.750497118421
             Q0:  -11681.893440256128
             G0:      -0.002565496764
   RMS gradient:       0.000007739587
MG BCs: +ve charge blocks (gridpoints):     25964 (   17591928).
MG BCs: -ve charge blocks (gridpoints):      8573 (    1081243).
MG BCs:     Elided blocks (gridpoints):    189268 (  192030374).
MG BCs: Computational effort saved:  99.9836%.
MG BCs: Charge after coarse-graining:           -9.0007547.
MG DL_MG: Calling solver with defect correction order = 8
MG DL_MG: Solver finished
MG Hartree energy from (\int phi*rho dr):              1286.056001
MG Hartree energy from (\int eps (grad phi)^2 dr):     1285.425782
MG Discrepancy due to finite box and discretization:     -0.630219 (  -0.04900%)
MG Correction to account for finite box:                  0.456180
MG Remaining discrepancy, due to discretization:         -0.174039 (  -0.01353%)
     Trial step:       0.527964216256
             Q1:  -11681.894219729002
 Quadratic coef:       0.000575017615
 Linear coef   :      -0.001354490488
           Qmin:  -11681.894237903207
Quadratic minimum step length (  0.621826610391) accepted
    Initial Ne1:    7234.00002961
      Final Ne1:    7234.00000000

=================== Penalty functional idempotency correction ==================
 RMS occupancy error at iteration   1:  0.000003 (step -0.5000 Ne1=   7234.0000)
            Final RMS occupancy error   :  0.000000 (Ne1=   7234.0000)
               Final occupancy bounds   : [  0.0000,  1.0000]
================================================================================

    6        -1.168189344026E+04     7.7396E-06     7.0003E-06    -2.6693E-03
MG BCs: +ve charge blocks (gridpoints):     25964 (   17591924).
MG BCs: -ve charge blocks (gridpoints):      8573 (    1081257).
MG BCs:     Elided blocks (gridpoints):    189268 (  192030364).
MG BCs: Computational effort saved:  99.9836%.
MG BCs: Charge after coarse-graining:           -9.0007547.
MG DL_MG: Calling solver with defect correction order = 8
MG DL_MG: Solver finished
MG Hartree energy from (\int phi*rho dr):              1286.048927
MG Hartree energy from (\int eps (grad phi)^2 dr):     1285.418710
MG Discrepancy due to finite box and discretization:     -0.630218 (  -0.04900%)
MG Correction to account for finite box:                  0.456180
MG Remaining discrepancy, due to discretization:         -0.174038 (  -0.01353%)
      ideal mu1:      -0.750439156348
             Q0:  -11681.894237997010
             G0:      -0.001018626972
   RMS gradient:       0.000004877875
MG BCs: +ve charge blocks (gridpoints):     25964 (   17591777).
MG BCs: -ve charge blocks (gridpoints):      8573 (    1081297).
MG BCs:     Elided blocks (gridpoints):    189268 (  192030471).
MG BCs: Computational effort saved:  99.9836%.
MG BCs: Charge after coarse-graining:           -9.0007548.
MG DL_MG: Calling solver with defect correction order = 8
MG DL_MG: Solver finished
MG Hartree energy from (\int phi*rho dr):              1285.984819
MG Hartree energy from (\int eps (grad phi)^2 dr):     1285.354600
MG Discrepancy due to finite box and discretization:     -0.630219 (  -0.04901%)
MG Correction to account for finite box:                  0.456179
MG Remaining discrepancy, due to discretization:         -0.174040 (  -0.01353%)
     Trial step:       0.572976612963
             Q1:  -11681.894483200740
 Quadratic coef:       0.000338445703
 Linear coef   :      -0.000583649433
           Qmin:  -11681.894489622793
Quadratic minimum step length (  0.494048930012) accepted
    Initial Ne1:    7233.99999905
      Final Ne1:    7234.00000000

=================== Penalty functional idempotency correction ==================
 RMS occupancy error at iteration   1:  0.000000 (step -0.5000 Ne1=   7234.0000)
            Final RMS occupancy error   :  0.000000 (Ne1=   7234.0000)
               Final occupancy bounds   : [  0.0000,  1.0000]
================================================================================

    7        -1.168189423800E+04     4.8779E-06     4.4119E-06    -7.9774E-04
MG BCs: +ve charge blocks (gridpoints):     25964 (   17591805).
MG BCs: -ve charge blocks (gridpoints):      8573 (    1081284).
MG BCs:     Elided blocks (gridpoints):    189268 (  192030456).
MG BCs: Computational effort saved:  99.9836%.
MG BCs: Charge after coarse-graining:           -9.0007548.
MG DL_MG: Calling solver with defect correction order = 8
MG DL_MG: Solver finished
MG Hartree energy from (\int phi*rho dr):              1285.993641
MG Hartree energy from (\int eps (grad phi)^2 dr):     1285.363423
MG Discrepancy due to finite box and discretization:     -0.630219 (  -0.04901%)
MG Correction to account for finite box:                  0.456179
MG Remaining discrepancy, due to discretization:         -0.174039 (  -0.01353%)
      ideal mu1:      -0.750383578260
             Q0:  -11681.894489621045
             G0:      -0.000611189069
   RMS gradient:       0.000003778409
MG BCs: +ve charge blocks (gridpoints):     25965 (   17591779).
MG BCs: -ve charge blocks (gridpoints):      8573 (    1081305).
MG BCs:     Elided blocks (gridpoints):    189267 (  192030461).
MG BCs: Computational effort saved:  99.9836%.
MG BCs: Charge after coarse-graining:           -9.0007547.
MG DL_MG: Calling solver with defect correction order = 8
MG DL_MG: Solver finished
MG Hartree energy from (\int phi*rho dr):              1285.970602
MG Hartree energy from (\int eps (grad phi)^2 dr):     1285.340384
MG Discrepancy due to finite box and discretization:     -0.630218 (  -0.04901%)
MG Correction to account for finite box:                  0.456178
MG Remaining discrepancy, due to discretization:         -0.174040 (  -0.01353%)
     Trial step:       0.532051202946
             Q1:  -11681.894740207004
 Quadratic coef:       0.000074597920
 Linear coef   :      -0.000325183879
           Qmin:  -11681.894844002762
Quadratic minimum step length (  1.159646778204) accepted
    Initial Ne1:    7233.99999866
      Final Ne1:    7234.00000000

=================== Penalty functional idempotency correction ==================
 RMS occupancy error at iteration   1:  0.000003 (step -0.5000 Ne1=   7234.0000)
            Final RMS occupancy error   :  0.000000 (Ne1=   7234.0000)
               Final occupancy bounds   : [  0.0000,  1.0000]
================================================================================

    8        -1.168189448962E+04     3.7784E-06     3.4175E-06    -2.5162E-04
MG BCs: +ve charge blocks (gridpoints):     25965 (   17591757).
MG BCs: -ve charge blocks (gridpoints):      8573 (    1081317).
MG BCs:     Elided blocks (gridpoints):    189267 (  192030471).
MG BCs: Computational effort saved:  99.9836%.
MG BCs: Charge after coarse-graining:           -9.0007547.
MG DL_MG: Calling solver with defect correction order = 8
MG DL_MG: Solver finished
MG Hartree energy from (\int phi*rho dr):              1285.943275
[...]
 RMS occupancy error at iteration   1:  0.000000 (step -0.5000 Ne1=   7234.0000)
            Final RMS occupancy error   :  0.000000 (Ne1=   7234.0000)
               Final occupancy bounds   : [  0.0000,  1.0000]
================================================================================

    7        -1.171801956654E+04     7.5120E-09     6.7945E-09    -2.3283E-10

Reusing previously generated solute cavity.
MG BCs: +ve charge blocks (gridpoints):     30119 (   19821521).
MG BCs: -ve charge blocks (gridpoints):      8587 (    1058185).
MG BCs:     Elided blocks (gridpoints):    185113 (  189823839).
MG BCs: Computational effort saved:  99.9816%.
MG BCs: Charge after coarse-graining:           -9.0010207.
MG DL_MG: Calling solver with defect correction order = 8
MG DL_MG: Solver finished
MG Hartree energy from (\int phi*rho dr):              1237.136736
MG Hartree energy from (\int eps (grad phi)^2 dr):     1236.957224
MG Discrepancy due to finite box and discretization:     -0.179512 (  -0.01451%)
MG Correction to account for finite box:                  0.006261
MG Remaining discrepancy, due to discretization:         -0.173250 (  -0.01400%)
      ideal mu1:      -0.513776949261
             Q0:  -11718.019566544797
             G0:      -0.000000002765
   RMS gradient:       0.000000006009

Reusing previously generated solute cavity.
MG BCs: +ve charge blocks (gridpoints):     30119 (   19821521).
MG BCs: -ve charge blocks (gridpoints):      8587 (    1058185).
MG BCs:     Elided blocks (gridpoints):    185113 (  189823839).
MG BCs: Computational effort saved:  99.9816%.
MG BCs: Charge after coarse-graining:           -9.0010207.
MG DL_MG: Calling solver with defect correction order = 8
MG DL_MG: Solver finished
MG Hartree energy from (\int phi*rho dr):              1237.136746
MG Hartree energy from (\int eps (grad phi)^2 dr):     1236.957234
MG Discrepancy due to finite box and discretization:     -0.179512 (  -0.01451%)
MG Correction to account for finite box:                  0.006261
MG Remaining discrepancy, due to discretization:         -0.173250 (  -0.01400%)
     Trial step:       0.217285786849
             Q1:  -11718.019566544564
 Quadratic coef:       0.000000000833
 Linear coef   :      -0.000000000601
           Qmin:  -11718.019566544906
Quadratic minimum step length (  0.078357147216) accepted
    Initial Ne1:    7234.00000000
      Final Ne1:    7234.00000000

=================== Penalty functional idempotency correction ==================
 RMS occupancy error at iteration   1:  0.000000 (step -0.5000 Ne1=   7234.0000)
            Final RMS occupancy error   :  0.000000 (Ne1=   7234.0000)
               Final occupancy bounds   : [  0.0000,  1.0000]
================================================================================

    8        -1.171801956654E+04     6.0094E-09     5.4354E-09     1.1642E-10

Reusing previously generated solute cavity.
MG BCs: +ve charge blocks (gridpoints):     30119 (   19821521).
MG BCs: -ve charge blocks (gridpoints):      8587 (    1058185).
MG BCs:     Elided blocks (gridpoints):    185113 (  189823839).
MG BCs: Computational effort saved:  99.9816%.
MG BCs: Charge after coarse-graining:           -9.0010207.
MG DL_MG: Calling solver with defect correction order = 8
MG DL_MG: Solver finished
MG Hartree energy from (\int phi*rho dr):              1237.136740
MG Hartree energy from (\int eps (grad phi)^2 dr):     1236.957228
MG Discrepancy due to finite box and discretization:     -0.179512 (  -0.01451%)
MG Correction to account for finite box:                  0.006261
MG Remaining discrepancy, due to discretization:         -0.173250 (  -0.01400%)
      ideal mu1:      -0.513776949724
             Q0:  -11718.019566544797
             G0:      -0.000000002530
   RMS gradient:       0.000000004936

Reusing previously generated solute cavity.
MG BCs: +ve charge blocks (gridpoints):     30119 (   19821521).
MG BCs: -ve charge blocks (gridpoints):      8587 (    1058185).
MG BCs:     Elided blocks (gridpoints):    185113 (  189823839).
MG BCs: Computational effort saved:  99.9816%.
MG BCs: Charge after coarse-graining:           -9.0010207.
MG DL_MG: Calling solver with defect correction order = 8
MG DL_MG: Solver finished
MG Hartree energy from (\int phi*rho dr):              1237.136745
MG Hartree energy from (\int eps (grad phi)^2 dr):     1236.957233
MG Discrepancy due to finite box and discretization:     -0.179512 (  -0.01451%)
MG Correction to account for finite box:                  0.006261
MG Remaining discrepancy, due to discretization:         -0.173250 (  -0.01400%)
     Trial step:       0.130483310764
             Q1:  -11718.019566544448
 Quadratic coef:       0.000000000678
 Linear coef   :      -0.000000000330
           Qmin:  -11718.019566544837
Quadratic minimum step length (  0.031740129387) accepted
    Initial Ne1:    7234.00000000
      Final Ne1:    7234.00000000

=================== Penalty functional idempotency correction ==================
 RMS occupancy error at iteration   1:  0.000000 (step -0.5000 Ne1=   7234.0000)
            Final RMS occupancy error   :  0.000000 (Ne1=   7234.0000)
               Final occupancy bounds   : [  0.0000,  1.0000]
================================================================================

    9        -1.171801956654E+04     4.9359E-09     4.4645E-09     0.0000E+00

Reusing previously generated solute cavity.
MG BCs: +ve charge blocks (gridpoints):     30119 (   19821521).
MG BCs: -ve charge blocks (gridpoints):      8587 (    1058185).
MG BCs:     Elided blocks (gridpoints):    185113 (  189823839).
MG BCs: Computational effort saved:  99.9816%.
MG BCs: Charge after coarse-graining:           -9.0010207.
MG DL_MG: Calling solver with defect correction order = 8
MG DL_MG: Solver finished
MG Hartree energy from (\int phi*rho dr):              1237.136741
MG Hartree energy from (\int eps (grad phi)^2 dr):     1236.957229
MG Discrepancy due to finite box and discretization:     -0.179512 (  -0.01451%)
MG Correction to account for finite box:                  0.006261
MG Remaining discrepancy, due to discretization:         -0.173250 (  -0.01400%)
      ideal mu1:      -0.513776949701
   10        -1.171801956654E+04     4.5215E-09     4.0896E-09     2.3283E-10
Finished density kernel iterations (  10)

Writing density kernel to file "complex_11881.dkn" ... done


>>> Density kernel optimised for the current NGWF basis:
     ~~~~~~~~~~~~~~~~~~~~~~~~~~~~~~~~~~~~~~~~~~~~~~~~~~~~~~~~~~~
     Total energy                =  -1.17180195665446E+04  Eh
     Estimated bandgap           =   1.1394E-01  Eh
     RMS occupancy error         =   9.1234E-16
     [H,K] commutator            =   4.0896E-09
     Occupancy bounds            = [  0.000:  1.000]
     ~~~~~~~~~~~~~~~~~~~~~~~~~~~~~~~~~~~~~~~~~~~~~~~~~~~~~~~~~~~




################################################################################
########################### NGWF CG iteration  005 #############################
################################################################################
****** Reciprocal space K.E. preconditioning with k_zero =  3.5000 a0^-1 *******

>>> Checking for convergence of NGWFs: 
           ........................................................
           |         *** NGWF optimisation converged ***          |
           | RMS NGWF gradient =    0.00000111531580              |
           | Criteria satisfied:                                  |
           | -> RMS NGWF gradient lower than set threshold.       |
           ========================================================

Reusing previously generated solute cavity.
MG BCs: +ve charge blocks (gridpoints):     30119 (   19821521).
MG BCs: -ve charge blocks (gridpoints):      8587 (    1058185).
MG BCs:     Elided blocks (gridpoints):    185113 (  189823839).
MG BCs: Computational effort saved:  99.9816%.
MG BCs: Charge after coarse-graining:           -9.0010207.
MG DL_MG: Calling solver with defect correction order = 8
MG DL_MG: Solver finished
MG Hartree energy from (\int phi*rho dr):              1237.136741
MG Hartree energy from (\int eps (grad phi)^2 dr):     1236.957229
MG Discrepancy due to finite box and discretization:     -0.179512 (  -0.01451%)
MG Correction to account for finite box:                  0.006261
MG Remaining discrepancy, due to discretization:         -0.173250 (  -0.01400%)

================================================================================
           ---------------- ENERGY COMPONENTS (Eh) ----------------
           | Kinetic                    :     8456.96166009068656 |
           | Pseudo. (local,OBC,corr'd) :    -5019.28081199476310 |
           | Pseudopotential (non-local):     1455.18150292822338 |
           | Hartree (molecular)        :     1237.13674110087550 |
           | Exchange-correlation       :    -3352.90266343380972 |
           | Ion-ion (open BC)          :   829198.21070395736024 |
           | Smeared ion non-self corr. :  -829150.05139561998658 |
           | Smeared ion self corr.     :   -14543.93950988473080 |
           | Solvent cavitation energy  :        2.36309280953715 |
           | Solute-solvent dis-rep en. :       -1.69888649809649 |
           | Total                      :   -11718.01956654469541 |
           --------------------------------------------------------
           ------ LOCAL ENERGY COMPONENTS FROM MATRIX TRACES ------
           | Pseudopotential (local)    :    -5019.28081199478038 |
           | Hartree                    :    -1995.62721670804058 |
           --------------------------------------------------------
           Integrated density           :     7233.99999999776537
           Integrated density tr(KS)    :     7234.00000000000000
================================================================================


                        <<<<< CALCULATION SUMMARY >>>>>                         
|ITER|    RMS GRADIENT   |     TOTAL ENERGY    |   step   |     Epredicted              
   0     0.00003927138916 -11717.96451514982618   0.556246 -11718.01218032546240        
   1     0.00001237523819 -11718.01840450603049   0.114794 -11718.01938130960298        
   2     0.00000551581011 -11718.01952432817779   0.021093 -11718.01955998528865        
   3     0.00000248567886 -11718.01956479973160   0.004360 -11718.01956629644701        
   4     0.00000111531580 -11718.01956654456444  <-- CG                                 

=================== Finished the calculation in solvent ========================
= Adjusting the following parameters: 
= read_denskern: F
= read_tightbox_ngwfs: F
= maxit_pen: 0 (restored to user-specified value)
= restart read filename prefix: ""
= restart write filename prefix: ""
================================================================================

================================================================================
IS: Calculation in solvent completed (NGWFs converged).      

Individual components of total energy in solvent:     hartree           kcal/mol
- Usual non-electrostatic DFT terms:    -12955.82051395688177    -8129899.940390
- Electrostatic fixed charge energy:      1237.13674110087550      776315.008910
- Apolar cavitation energy:                  2.36309280953715        1482.863094
- Apolar dispersion-repulsion energy:       -1.69888649809649       -1066.067350
 -------------------------------------------------------------------------------
- Total energy in solvent:              -11718.01956654456444    -7353168.135736

Components of total energy in solvent:                hartree           kcal/mol
- Usual non-electrostatic DFT terms:    -12955.82051395688177    -8129899.940390
- Electrostatic energy:                   1237.13674110087550      776315.008910
- Apolar energy terms:                       0.66420631144065         416.795744
 -------------------------------------------------------------------------------
- Total energy in solvent:              -11718.01956654456444    -7353168.135736

Calculation of free energy of solvation:              hartree           kcal/mol
- Total energy in solvent:         (+)  -11718.01956654456444    -7353168.135736
- Total energy in vacuum:          (-)  -11713.80332661990542    -7350522.405296
 -------------------------------------------------------------------------------
- Total free energy of solvation:           -4.21623992465902       -2645.730440

Components of polar term in f.e. of solvation:        hartree           kcal/mol
- Electrostatic:                            -5.08261224112630       -3189.387265
- Change in nonelectrostatic DFT terms:      0.20216600502499         126.861081
 -------------------------------------------------------------------------------
- Polar term in f.e. of solvation:          -4.88044623610131       -3062.526184

Components of free energy of solvation:               hartree           kcal/mol
- Polar term in f.e. of solvation: (+)      -4.88044623610131       -3062.526184
- Apolar (cavitation, dis., rep.): (+)       0.66420631144065         416.795744
 -------------------------------------------------------------------------------
- Total free energy of solvation:           -4.21623992466065       -2645.730440
================================================================================


------------------------------ TIMING INFORMATION ------------------------------
AVERAGE TIME:   82141.291s on     40 node(s)                                    
TOTAL TIME:     82141.291s on     40 node(s)                                    
================= AVERAGE TIMINGS FROM ALL NODES (CUMULATIVE) ==================
|| TAG                                    #calls    cpu time   %total  Gflops ||
|| work_imbalance                       :     1        0.00s   0.000%  ------ ||
|| parallel_prepare_fd_halos_request    :  2193        0.02s   0.000%  ------ ||
|| sparse_set_to_garbage                :   239        0.06s   0.000%  ------ ||
|| parallel_prepare_fd_halos_satisfy    :  2193        0.07s   0.000%  ------ ||
|| parallel_prepare_fd_halos_alloc      :  2193        0.09s   0.000%  ------ ||
|| ngwfs_initialise_from_radial         :     1        0.17s   0.000%  ------ ||
|| basis_extract_function_from_box      :  6052        0.20s   0.000%  ------ ||
|| restart_ngwfs_tightbox_input         :     1        0.93s   0.001%  ------ ||
|| pseudopotentials_nonlocal_mat        :    35        3.86s   0.005%  ------ ||
|| parallel_prepare_fd_halos_comms_imbal:  2193        3.94s   0.005%  ------ ||
|| restart_kernel_read                  :     1        4.54s   0.006%  ------ ||
|| openbc_locps_radial                  :     1        4.60s   0.006%  ------ ||
|| density_init_guess_real              :     1        6.53s   0.008%  ------ ||
|| parallel_prepare_fd_halos_clear      :  2193       16.68s   0.020%  ------ ||
|| restart_kernel_write                 :    19       17.44s   0.021%  ------ ||
|| sparse_init                          :     2       22.93s   0.028%  ------ ||
|| parallel_prepare_fd_halos_comms_wait :  2193       29.35s   0.036%  ------ ||
|| projectors_func_ovlp_box             :    35       30.07s   0.037%  ------ ||
|| function_ops_brappd_ketppd           :    35       33.16s   0.040%  ------ ||
|| projectors_init_fftbox_recip         :   233       33.67s   0.041%  ------ ||
|| palser_mano_kernel_optimise          :     1       38.37s   0.047%  ------ ||
|| parallel_prepare_fd_halos            :  2193       50.16s   0.061%  ------ ||
|| pseudo_make_structure_factor         :     2       61.87s   0.075%  ------ ||
|| ngwf_gradient_coeffs                 :    18       69.17s   0.084%  ------ ||
|| restart_ngwfs_tightbox_output        :    16       76.42s   0.093%  ------ ||
|| sparse_embed_hotelling_invert_embed  :    35      106.27s   0.129%  ------ ||
|| finite_difference_derivative         :  2193      135.05s   0.164%  ------ ||
|| basis_copy_function_to_box           : 187.8k     136.07s   0.166%  ------ ||
|| openbc_locps_on_grid                 :     2      199.42s   0.243%  ------ ||
|| integrals_kinetic                    :    35      211.83s   0.258%  ------ ||
|| projectors_gradient_batch            :   198      257.14s   0.313%  ------ ||
|| sparse_trace                         :  5691      337.00s   0.410%  ------ ||
|| kernel_purify                        :   558      380.72s   0.463%  ------ ||
|| fourier_apply_box_pair               : 52962      387.47s   0.472% 598.494 ||
|| basis_dot_function_with_box          : 21.38M     395.67s   0.482%  ------ ||
|| lnv_gradient_norm                    :   180      619.88s   0.755%  ------ ||
|| kernel_fix                           :   180      646.57s   0.787%  ------ ||
|| hamiltonian_energy_components        :     4      806.72s   0.982%  ------ ||
|| basis_add_function_to_box            : 57.28M     978.22s   1.191%  ------ ||
|| integrals_locpot_mat_els_batch       :  2079     1087.37s   1.324%  ------ ||
|| ke_density_batch_grad_apply          :  4004     1285.25s   1.565%  ------ ||
|| ke_density_batch_row_sums            :  4004     1397.12s   1.701%  ------ ||
|| density_batch_row_sums               :  4004     1400.55s   1.705%  ------ ||
|| fourier_apply_cell_backward          :  9835     2066.01s   2.515%  71.079 ||
|| fourier_apply_cell_forward           :  9833     2104.58s   2.562%  69.762 ||
|| density_fftbox_deposit_to_cell       : 59696     2182.84s   2.657%  ------ ||
|| ke_density_fftbox_deposit_to_cell    : 59696     2281.62s   2.778%  ------ ||
|| sparse_product                       :  7301     2300.48s   2.801%  ------ ||
|| cell_grid_deposit_box_real           : 121.7k    2576.81s   3.137%  ------ ||
|| cell_grid_extract_box_real           : 148.8k    2747.31s   3.345%  ------ ||
|| multigrid_prepare_bound_cond         :   365     2952.07s   3.594%  ------ ||
|| ngwf_gradient_build_batch            :   198     3030.87s   3.690%  ------ ||
|| ngwf_gradient_batch                  :   198     3368.60s   4.101%  ------ ||
|| ngwf_gradient_lnv                    :    18     3592.82s   4.374%  ------ ||
|| potential_apply_to_ngwf_batch        :  2079     4241.69s   5.164%  ------ ||
|| density_fftbox_interpolate_multiply  : 59696     4629.76s   5.636%  ------ ||
|| integrals_locpot_dbl_grid            :   189     5345.87s   6.508%  ------ ||
|| xc_energy_potential                  :   365     5494.84s   6.690%  ------ ||
|| density_batch_interp_deposit         :  4004     7818.97s   9.519%  ------ ||
|| dl_mg_solver_calls                   :   365     8231.61s  10.021%  ------ ||
|| nlxc_vdw_energy                      :   728     9237.18s  11.245%  ------ ||
|| density_on_dbl_grid                  :   364     9771.04s  11.895%  ------ ||
|| potential_apply_to_fftbox_batch      :  5940    11345.52s  13.812%  ------ ||
|| multigrid_calculate_hartree          :   365    11367.40s  13.839%  ------ ||
|| integrals_div_locpot_grad_functions  :   180    16873.95s  20.543%  ------ ||
|| ke_density_fftbox_interpolate_multipl: 59696    18564.06s  22.600%  ------ ||
|| ke_density_batch_interp_deposit      :  4004    21858.81s  26.611%  ------ ||
|| fourier_apply_box                    : 1.354M   23807.86s  28.984% 823.750 ||
|| ke_density_on_dbl_grid               :   364    25073.10s  30.524%  ------ ||
|| hamiltonian_lhxc_calculate           :   360    51764.01s  63.018%  ------ ||
|| lnv_denskernel_optimise_cg           :    18    73829.00s  89.880%  ------ ||
|| ngwf_cg_optimise                     :     2    81300.60s  98.977%  ------ ||
|| total_time                           :     1    82141.29s 100.000%  ------ ||
================================================================================
Overhead of generating timer report: 
- 0 ms averaging over threads,
- 7 ms ensuring consistency across MPI ranks,
- 2 ms printing in order.

Job completed: 22-03-2020 05:29 (-0000)

