 +---------------------------------------------------------------+
 |                                                               |
 |        ####### #     # ####### ####### ####### ######         |
 |        #     # ##    # #          #    #       #     #        |
 |        #     # # #   # #          #    #       #     #        |
 |        #     # #  #  # #####      #    #####   ######         |
 |        #     # #   # # #          #    #       #              |
 |        #     # #    ## #          #    #       #              |
 |        ####### #     # #######    #    ####### #              |
 |                                                               |
 |        Linear-Scaling Ab Initio Total Energy Program          |
 |                                                               |
 |          Release for academic collaborators of ODG            |
 |                                             Version 5.3.2.6.  |
 |                                                               |
 +---------------------------------------------------------------+
 |                                                               |
 |  Authors:                                                     |
 |  Jacek Dziedzic, Peter D. Haynes, Nicholas D. M. Hine,        |
 |  Arash. A. Mostofi, Mike C. Payne and Chris-Kriton Skylaris   |
 |                                                               |
 |  Contributors:                                                |
 |  J. Aarons, L. Andrinopoulos, P. W. Avraam, R. A. Bell,       |
 |  A. Bhandari, G. A. Bramley, R. J. Charlton, S. J. Clark,     |
 |  R. J. Clements, G. C. Constantinescu, F. Corsetti,           |
 |  N. Corsini, O. Dieguez, S. M. M. Dubois, K. K. B. Duff,      |
 |  J. M. Escartin, A. Greco, H. Helal, Q. O. Hill, L. P. Lee,   |
 |  J.-H. Li, E. B. Linscott, G. Moynihan, D. D. O`Regan,        |
 |  O. K. Okan, M. J. S. Phipps, C. J. Pickard,                  |
 |  J. C. A. Prentice, M. I. J. Probert, L. E. Ratcliff,         |
 |  M. Robinson, A. Ruiz Serrano, J. S. Spencer, E. W. Tait,     |
 |  G. Teobaldi, D. Turban, V. Vitale, K. A. Wilkinson,          |
 |  C. Weber, J. C. Womack, N. Yeung and T. J. Zuehlsdorff       |
 |                                                               |
 |                                   Copyright (c) 2004-2019     |
 |                                                               |
 |  Please cite:                                                 |
 |  "Introducing ONETEP: Linear-scaling density functional       |
 |   simulations on parallel computers".                         |
 |   C.-K. Skylaris, P. D. Haynes, A. A. Mostofi, M. C. Payne.   |
 |   J. Chem. Phys. 122 084119 (2005).                           |
 |                                                               |
 |          in all publications arising from your use of ONETEP. |
 |                                                               |
 +---------------------------------------------------------------+
 |                                                               |
 |   ONETEP is based on developments described in the following  |
 |   publications:                                               |
 |                                                               |
 |  "Nonorthogonal generalized Wannier function pseudopotential  |
 |   plane-wave method".                                         |
 |   C.-K. Skylaris, A. A. Mostofi, P. D. Haynes, O. Dieguez,    |
 |   M. C. Payne.                                                |
 |   Phys. Rev. B 66 035119 (2002).                              |
 |                                                               |
 |  "Preconditioned iterative minimization for linear-scaling    |
 |   electronic structure calculations".                         |
 |   A. A. Mostofi, P. D. Haynes, C.-K. Skylaris, M. C. Payne.   |
 |   J. Chem. Phys. 119(17), pp.8842-8848 (2003).                |
 |                                                               |
 |  "Total-energy calculations on a real space grid with         |
 |   localized functions and a plane-wave basis".                |
 |   A. A. Mostofi, C.-K. Skylaris, P. D. Haynes, M. C. Payne.   |
 |   Comput. Phys. Commun. 147, pp.788-802 (2002).               |
 |                                                               |
 |  "Accurate kinetic energy evaluation in electronic structure  |
 |   calculations with localized functions on real space grids"  |
 |   C.-K. Skylaris, A. A. Mostofi, P. D. Haynes, C. J. Pickard, |
 |   M. C. Payne.                                                |
 |   Comput. Phys. Commun. 140, pp.315-322 (2001).               |
 |                                                               |
 |  "Accurate ionic forces and geometry optimization in linear-  |
 |   scaling density-functional theory with local orbitals"      |
 |   N. D. M. Hine, M. Robinson, P. D. Haynes, C.-K. Skylaris,   |
 |   M. C. Payne, and A. A. Mostofi.                             |
 |   Phys. Rev. B 83 195102 (2011).                              |
 |                                                               |
 +---------------------------------------------------------------+

Job started: 21-03-2020 06:50 (-0000)
 
Reading parameters from file "host_16441.dat" ...... done

If your calculation crashes here, before "Checking processes and threads..."
is displayed, then your stack size is insufficient.
If so, use "ulimit -s unlimited" at runtime.
You can disable this check with "check_stack_size F".

Checking processes and threads...
   Determining the default number of threads...
      No default threads set at compilation time: defaulting to 1.
      OpenMP library call suggests 4 threads.
      Hybrid MPI-OpenMP compilation detected.
      Number of MPI processes > 1.
      OMP_NUM_THREADS environment variable present and
      its value matches the one obtained from the OpenMP library call.
      Using this value as default.
      Default threads: 4
      Default applies to threads_max and threads_num_fftboxes.
      Settings in the input file override this default.
   ... done

   Running with 40 MPI processes.
   There are 10 MPI processes running on the same node as the root process.
   Each MPI process is using: 
               1 threads for simulation cell FFTs.
               1 threads for parallel FFT box operations.
               4 threads for loops over batched FFT box operations.
               4 threads in other parallel regions.
... done

Basic input checks...... done

Reading geometry and species blocks from file "host_16441.dat" ...
  <species_atomic_set> block not found: NGWF initialisation set to SOLVE
IS: Dielectric excluded regions:
    - NONE.
    
  Number of PPD points along a3 set to 1.  This is 
  the default value, it may have been provided also in the input file.
... done
 Writing xyz coordinates to file "host_16441.xyz" ... done


--------------------------------------------------------------------------------
---------------------------------- INPUT FILE ----------------------------------
--------------------------------------------------------------------------------

cutoff_energy       : 800 eV                                                    
xc_functional B97M-V                                                            
task SINGLEPOINT                                                                
write_xyz true                                                                  
output_detail VERBOSE                                                           
ngwf_threshold_orig : 0.000002                                                  
kernel_cutoff       : 1000                                                      
k_zero              : 3.5                                                       
elec_cg_max 0                                                                   
occ_mix 1.0                                                                     
dispersion 0                                                                    
maxit_ngwf_cg 40                                                                
minit_lnv 10                                                                    
maxit_lnv 10                                                                    
write_denskern T                                                                
write_tightbox_ngwfs T                                                          
charge 9                                                                        
is_implicit_solvent T                                                           
is_auto_solvation T                                                             
is_include_apolar T                                                             
is_smeared_ion_rep T                                                            
is_solvent_surf_tension 4.7624E-5 Ha/bohr**2                                    
is_apolar_scaling_factor 0.281075                                               
is_solvation_beta 1.3                                                           
is_density_threshold 0.00035                                                    
is_bulk_permittivity 78.54                                                      
is_dielectric_model fix_initial                                                 
is_smeared_ion_width 0.8                                                        
mg_defco_fd_order 8                                                             
is_bc_coarseness 10                                                             
is_bc_surface_coarseness 1                                                      
fine_grid_scale 2.0                                                             
%block species                                                                  
N   N   7 4 8.0                                                                 
H   H   1 1 8.0                                                                 
C   C   6 4 8.0                                                                 
S   S  16 9 8.0                                                                 
O   O   8 4 8.0                                                                 
%endblock species                                                               
%block species_pot                                                              
N   N_00.recpot                                                                 
H   H_04.recpot                                                                 
C   C_01.recpot                                                                 
S   S_00.recpot                                                                 
O   O_02.recpot                                                                 
%endblock species_pot                                                           
%block lattice_cart                                                             
142.669   0.000   0.000                                                         
0.000 146.65   0.000                                                            
0.000   0.000   162.396                                                         
%endblock lattice_cart                                                          
%block positions_abs                                                            
     Hash =   000003329967004048688212
%endblock positions_abs                                                         

--------------------------------------------------------------------------------
-------------------------------- END INPUT FILE --------------------------------
--------------------------------------------------------------------------------


 
 ESDF WARNING(1): "kernelcutoff" (esdf_physical) has no units. Assume "bohr".
 ESDF WARNING(2): "kzero" (esdf_physical) has no units. Assume "1/bohr".
 ESDF WARNING(3
 ): "issmearedionwidth" (esdf_physical) has no units. Assume "bohr".
<<<<<<<<<<<<<<<<<<<<<<<<<<<<<<<<< Full system >>>>>>>>>>>>>>>>>>>>>>>>>>>>>>>>>>
<<<<<<<<<<<<<<<<<<<<<<<<< Pseudopotential information >>>>>>>>>>>>>>>>>>>>>>>>>>
File: N_00.recpot [ 2001 points up to Gmax=  52.9 (1/bohr)]
  Atomic number:  7;  ionic charge:  5.000000
    Shell 1: l = 0; rc = 1.48 bohr
File: H_04.recpot [ 2001 points up to Gmax=  52.9 (1/bohr)]
  Atomic number:  1;  ionic charge:  1.000000
    Local potential
File: C_01.recpot [ 2001 points up to Gmax=  52.9 (1/bohr)]
  Atomic number:  6;  ionic charge:  4.000000
    Shell 1: l = 0; rc = 1.48 bohr
File: S_00.recpot [ 2001 points up to Gmax=  52.9 (1/bohr)]
  Atomic number: 16;  ionic charge:  6.000000
    Shell 1: l = 0; rc = 1.90 bohr
    Shell 2: l = 2; rc = 1.84 bohr
File: O_02.recpot [ 2001 points up to Gmax=  52.9 (1/bohr)]
  Atomic number:  8;  ionic charge:  6.000000
    Shell 1: l = 0; rc = 1.31 bohr
<<<<<<<<<<<<<<<<<<<<<<<<<<<<<<<<<<<<<<<<>>>>>>>>>>>>>>>>>>>>>>>>>>>>>>>>>>>>>>>>

-------------------------- Atom counting information ---------------------------
Symbol    Natoms    Nngwfs    Nprojs
  N        236       944       236
  H       1311      1311         0
  C        810      3240       810
  S          6        54        36
  O        239       956       239
.......   ......    ......    ......
Totals:   2602      6505      1321
--------------------------------------------------------------------------------

=============================== PSINC grid sizes ===============================
                      Simulation cell:  286 x 294 x 320
                              FFT-box:  105 x 105 x  99
                                  PPD:   11 x   6 x   1
Grid space d1=  0.498842657343a0 (KE cutoff=  30.52649Eh = 830.66799eV)
Grid space d2=  0.498809523810a0 (KE cutoff=  30.53054Eh = 830.77835eV)
Grid space d3=  0.507487500000a0 (KE cutoff=  29.49533Eh = 802.60885eV)
================================================================================

********************* Fourier parallelisation information **********************
       Coarse grid (whole simulation cell) dimensions:    286   294   320
          Real-space ('12') slabs/node (min max mean):      8     8     8
         Recip-space ('23') slabs/node (min max mean):      3     4     3
********************************************************************************

********************* Fourier parallelisation information **********************
       Double grid (whole simulation cell) dimensions:    572   588   640
          Real-space ('12') slabs/node (min max mean):     16    16    16
         Recip-space ('23') slabs/node (min max mean):      7     8     7
********************************************************************************
ONETEP fine grid is 572 x 588 x 640 gridpoints, 142.6690 x 146.6500 x 162.3960 bohr.
FD multigrid is     569 x 585 x 633 gridpoints, 141.9207 x 145.9018 x 160.6198 bohr.


Calculating local pseudopotential in open BC on a radial grid ...
Discrepancy between calculated realspace psloc and -Z/x on [5a0,261.215a0]:
max |rel. diff| # avg |rel. diff| #  avg rel. diff #  f # pseudopotential file
 0.000261901569    0.000004963664   0.000000071970   55  'N_00.recpot'
 0.000422260137    0.000017549664  -0.000000063361   55  'H_04.recpot'
 0.000361991046    0.000016543264   0.000000134927   55  'C_01.recpot'
 0.000447743184    0.000019132268   0.000000438157   55  'S_00.recpot'
 0.000711628927    0.000028437426   0.000000135877   55  'O_02.recpot'
... done
 WARNING: meta-GGA functionality under development.
          Using this functional is experimental.
          Minimum tau threshold, xc_min_tau =   1.00000000E-12
 WARNING: Using alternative XC functional PBE for 
          radial densities (xc_radial).

Atom SCF Calculation for N  : Z (AE atom) =   7 : Z (PS atom) =   5
Config String:
Orbitals (num,occ):  2     2.00 3.00
Orbitals   (num,l):  2        0    1
Real-space Grid (nr,dr,rmax): 1203    0.0066555740    8.0000000000
Spherical Bessel Basis (nsws,lmax,cutoff):   47    1  176.3951722778
Confining potential (l,width,scale):  0    3.0000000000  100.0000000000
Confining potential (l,width,scale):  1    3.0000000000  100.0000000000
  1         -4.7312375307   -3.4155304497    7.0523828109   -1.9351020946
  2         -9.7309464766   -2.0532547791    8.2966052865   -2.2494486027
  3         -9.6627394379   -2.1124926340    8.2327997121   -2.2369778124
  4         -9.6814993499   -2.1215521045    8.2229805960   -2.2365178421
  5         -9.6843326483   -2.1250939529    8.2191374534   -2.2362718126
  6         -9.6859628709   -2.1267894855    8.2172963573   -2.2362066344
  7         -9.6867347035   -2.1276425665    8.2163697352   -2.2361903369
  8         -9.6870802100   -2.1280764625    8.2158983890   -2.2361891460
  9         -9.6872290423   -2.1282977424    8.2156580222   -2.2361920435
 10         -9.6872901988   -2.1284107021    8.2155353368   -2.2361953393
 11         -9.6873135296   -2.1284684031    8.2154726809   -2.2361979819
 12         -9.6873212476   -2.1284978948    8.2154406648   -2.2361998431
 13         -9.6873229586   -2.1285129774    8.2154242957   -2.2362010676
 14         -9.6873226456   -2.1285206957    8.2154159216   -2.2362018403
 15         -9.6873218534   -2.1285246479    8.2154116349   -2.2362023142
 16         -9.6873212599   -2.1285262679    8.2154098784   -2.2362025420
 17         -9.6873207834   -2.1285272564    8.2154088068   -2.2362026955
 18         -9.6873204210   -2.1285278597    8.2154081529   -2.2362027982
 19         -9.6873201550   -2.1285282280    8.2154077538   -2.2362028667
 20         -9.6873199645   -2.1285284529    8.2154075102   -2.2362029121
 21         -9.6873198305   -2.1285285903    8.2154073614   -2.2362029421
 22         -9.6873197377   -2.1285286742    8.2154072705   -2.2362029618
Atom SCF converged after  22 iterations to a total energy of     -9.68731974

Atom SCF Calculation for H  : Z (AE atom) =   1 : Z (PS atom) =   1
Config String:
Orbitals (num,occ):  1     1.00
Orbitals   (num,l):  1        0
Real-space Grid (nr,dr,rmax): 1203    0.0066555740    8.0000000000
Spherical Bessel Basis (nsws,lmax,cutoff):   47    0  176.3951722778
Confining potential (l,width,scale):  0    3.0000000000  100.0000000000
  1         -0.3194257691   -0.2393854593    0.2820953124   -0.2424203209
  2         -0.3951823392   -0.2377116493    0.2886404059   -0.2475147891
  3         -0.4317044583   -0.2352244387    0.2921333887   -0.2514046172
  4         -0.4470703708   -0.2341892222    0.2934391879   -0.2531009782
  5         -0.4532132900   -0.2338556667    0.2938388426   -0.2537313520
  6         -0.4556579251   -0.2337612552    0.2939448584   -0.2539550462
  7         -0.4566418315   -0.2337377355    0.2939680120   -0.2540342273
  8         -0.4570437922   -0.2337331116    0.2939708287   -0.2540627372
  9         -0.4572102946   -0.2337328328    0.2939698291   -0.2540732650
 10         -0.4572800424   -0.2337332404    0.2939687193   -0.2540772588
 11         -0.4573095100   -0.2337335791    0.2939680317   -0.2540788122
 12         -0.4573220379   -0.2337337762    0.2939676699   -0.2540794294
 13         -0.4573273880   -0.2337338775    0.2939674931   -0.2540796787
 14         -0.4573296803   -0.2337339266    0.2939674099   -0.2540797808
 15         -0.4573306647   -0.2337339495    0.2939673718   -0.2540798230
 16         -0.4573310882   -0.2337339601    0.2939673545   -0.2540798406
 17         -0.4573312706   -0.2337339649    0.2939673467   -0.2540798479
 18         -0.4573313493   -0.2337339670    0.2939673433   -0.2540798510
Atom SCF converged after  18 iterations to a total energy of     -0.45733135

Atom SCF Calculation for C  : Z (AE atom) =   6 : Z (PS atom) =   4
Config String:
Orbitals (num,occ):  2     2.00 2.00
Orbitals   (num,l):  2        0    1
Real-space Grid (nr,dr,rmax): 1203    0.0066555740    8.0000000000
Spherical Bessel Basis (nsws,lmax,cutoff):   47    1  176.3951722778
Confining potential (l,width,scale):  0    3.0000000000  100.0000000000
Confining potential (l,width,scale):  1    3.0000000000  100.0000000000
  1         -5.2976922011   -1.3069684169    4.5135249990   -1.4493313817
  2         -5.3721716256   -1.3429755895    4.4750154450   -1.4361613026
  3         -5.3809959565   -1.3617365618    4.4541655428   -1.4305930207
  4         -5.3918938866   -1.3667928461    4.4484735100   -1.4294652294
  5         -5.3956096428   -1.3688539142    4.4461376126   -1.4290734646
  6         -5.3968271862   -1.3696852393    4.4451910874   -1.4289366866
  7         -5.3972028401   -1.3700178062    4.4448112275   -1.4288900460
  8         -5.3973067903   -1.3701500158    4.4446598370   -1.4288749220
  9         -5.3973286940   -1.3702023868    4.4445997329   -1.4288704293
 10         -5.3973289850   -1.3702230869    4.4445759233   -1.4288693188
 11         -5.3973254264   -1.3702312560    4.4445665049   -1.4288691775
 12         -5.3973224003   -1.3702344755    4.4445627836   -1.4288692549
 13         -5.3973208708   -1.3702354890    4.4445616088   -1.4288693270
 14         -5.3973198783   -1.3702360102    4.4445610034   -1.4288693814
 15         -5.3973192535   -1.3702362780    4.4445606917   -1.4288694190
 16         -5.3973188684   -1.3702364155    4.4445605313   -1.4288694437
 17         -5.3973186349   -1.3702364860    4.4445604489   -1.4288694595
 18         -5.3973184951   -1.3702365221    4.4445604065   -1.4288694693
 19         -5.3973184122   -1.3702365405    4.4445603848   -1.4288694753
Atom SCF converged after  19 iterations to a total energy of     -5.39731841

Atom SCF Calculation for S  : Z (AE atom) =  16 : Z (PS atom) =   6
Config String:
Orbitals (num,occ):  3     2.00 4.00 0.00
Orbitals   (num,l):  3        0    1    2
Real-space Grid (nr,dr,rmax): 1203    0.0066555740    8.0000000000
Spherical Bessel Basis (nsws,lmax,cutoff):   47    2  176.3951722778
Confining potential (l,width,scale):  0    3.0000000000  100.0000000000
Confining potential (l,width,scale):  1    3.0000000000  100.0000000000
Confining potential (l,width,scale):  2    3.0000000000  100.0000000000
  1        -12.4735062396   -1.0328741412   10.1554312477   -2.4512393157
  2         -9.9458301913   -2.4607392455    8.3041325857   -2.0306994528
  3        -10.1450417646   -2.2931184565    8.4831893826   -2.0812538287
  4        -10.1528335592   -2.2733105793    8.5050388867   -2.0896035179
  5        -10.1571940363   -2.2633716629    8.5160794258   -2.0939370707
  6        -10.1594380571   -2.2584938667    8.5215163935   -2.0961289008
  7        -10.1605856507   -2.2561081821    8.5241804044   -2.0972291378
  8        -10.1611799191   -2.2549395235    8.5254868240   -2.0977806248
  9        -10.1614918752   -2.2543658586    8.5261285885   -2.0980571586
 10        -10.1616572884   -2.2540839121    8.5264441898   -2.0981959233
 11        -10.1617455602   -2.2539453058    8.5265994231   -2.0982656006
 12        -10.1617928447   -2.2538772062    8.5266757320   -2.0983006047
 13        -10.1618182292   -2.2538437891    8.5267131983   -2.0983181961
 14        -10.1618318741   -2.2538274201    8.5267315620   -2.0983270391
 15        -10.1618392144   -2.2538194197    8.5267405433   -2.0983314852
 16        -10.1618431651   -2.2538155200    8.5267449245   -2.0983337210
 17        -10.1618452923   -2.2538136252    8.5267470551   -2.0983348455
 18        -10.1618464380   -2.2538127080    8.5267480875   -2.0983354110
 19        -10.1618470552   -2.2538122659    8.5267485856   -2.0983356955
 20        -10.1618473878   -2.2538120540    8.5267488248   -2.0983358386
 21        -10.1618475670   -2.2538119530    8.5267489389   -2.0983359106
 22        -10.1618476637   -2.2538119053    8.5267489929   -2.0983359468
Atom SCF converged after  22 iterations to a total energy of    -10.16184766

Atom SCF Calculation for O  : Z (AE atom) =   8 : Z (PS atom) =   6
Config String:
Orbitals (num,occ):  2     2.00 4.00
Orbitals   (num,l):  2        0    1
Real-space Grid (nr,dr,rmax): 1203    0.0066555740    8.0000000000
Spherical Bessel Basis (nsws,lmax,cutoff):   47    1  176.3951722778
Confining potential (l,width,scale):  0    3.0000000000  100.0000000000
Confining potential (l,width,scale):  1    3.0000000000  100.0000000000
  1         -1.8735052164   -7.5539365035   10.1554312477   -2.4512393157
  2        -16.0318313751   -3.1285771268   13.6395848164   -3.2358799643
  3        -15.9524020423   -3.0762819706   13.6967272503   -3.2536856837
  4        -15.8521515939   -3.0781493909   13.6951909330   -3.2561700440
  5        -15.8357139793   -3.0748501933   13.6988803334   -3.2580493133
  6        -15.8246052853   -3.0740779781   13.6997881576   -3.2588327446
  7        -15.8189019501   -3.0737449687   13.7001869911   -3.2592378801
  8        -15.8159785510   -3.0736026016   13.7003615168   -3.2594475790
  9        -15.8144776168   -3.0735437994   13.7004360379   -3.2595560735
 10        -15.8137058024   -3.0735207882   13.7004667348   -3.2596122456
 11        -15.8133083127   -3.0735125946   13.7004786868   -3.2596413656
 12        -15.8131032938   -3.0735102195   13.7004828997   -3.2596564858
 13        -15.8129973902   -3.0735099286   13.7004840891   -3.2596643505
 14        -15.8129426040   -3.0735102506   13.7004842061   -3.2596684489
 15        -15.8129142203   -3.0735106556   13.7004840157   -3.2596705887
 16        -15.8128994940   -3.0735109855   13.7004837906   -3.2596717080
 17        -15.8128918425   -3.0735112169   13.7004836103   -3.2596722946
 18        -15.8128878614   -3.0735113674   13.7004834848   -3.2596726026
 19        -15.8128857871   -3.0735114608   13.7004834035   -3.2596727646
 20        -15.8128847048   -3.0735115170   13.7004833533   -3.2596728500
 21        -15.8128841394   -3.0735115501   13.7004833231   -3.2596728951
 22        -15.8128838436   -3.0735115693   13.7004833054   -3.2596729190
 23        -15.8128836887   -3.0735115802   13.7004832951   -3.2596729316
 24        -15.8128836074   -3.0735115864   13.7004832893   -3.2596729383
Atom SCF converged after  24 iterations to a total energy of    -15.81288361

========================== Calculation in vacuum ==============================
= Adjusting the following parameters: 
= is_implicit_solvent: F
= is_include_apolar: F
= write_denskern: T
= write_tightbox_ngwfs: T
= restart read filename prefix: ""
= restart write filename prefix: "vacuum_"
===============================================================================

Determining parallel strategy ...
... using space-filling curve
... NGWF load balancing: max    163;  min    162;  average    163
... Projector load balancing: max     36;  min     32;  average     33
... done
Calculating direct Ion-Ion energy ...
Ion-Ion Energy        :    831368.19604759500362
Basis initialisation ...... NGWF spheres initialised
... Projector spheres initialised
... NGWF tight boxes initialised
... Tight-boxes gathered
... NGWF basis size (local,global):    1181865  47344939
... Nonlocal pseudopotential projector initialisation
... done

========================== Sparse matrix information ===========================
                        Overlap matrix filling:   6.84%
                        Density kernel filling: 100.00%
              NGWF-Proj overlap matrix filling:   1.81%
                    Hamiltonian matrix filling:   7.73%
                  NGWF diagonal matrix filling:   0.05%
                             KS matrix filling: 100.00% 
                           KSKS matrix filling: 100.00% 
================================================================================

Sparse matrix initialisation ... done

Generating smeared ion density ... done
Smeared ion self correction:     -14457.169564
Smeared ion non-self correction: -831320.095292
NGWF initialisation ...... done
============ Calculation of NGWF S^-1 using Hotelling algorithm ================ 
         Iteration  |  Frobenius norm and Maximum abs value    (of I-S*S_n^-1)   
               1       0.78526218E+02     0.98282758E+00
               2       0.76708170E+02     0.96608608E+00
               3       0.73752628E+02     0.93384431E+00
               4       0.69531163E+02     0.87396232E+00
               5       0.64251568E+02     0.77205182E+00
               6       0.58298729E+02     0.70483008E+00
               7       0.52288324E+02     0.66860816E+00
               8       0.46733290E+02     0.64697696E+00
               9       0.40718856E+02     0.60929899E+00
              10       0.32549380E+02     0.54298096E+00
              11       0.22043051E+02     0.43465187E+00
              12       0.11399591E+02     0.28474829E+00
              13       0.38326277E+01     0.12986267E+00
              14       0.62752020E+00     0.35946870E-01
              15       0.31788641E-01     0.34961248E-02
              16       0.19264527E-03     0.36053281E-04
              17       0.13966740E-07     0.39151707E-08
              18       0.97752709E-13     0.57731597E-14
================================================================================
Calculating local pseudopotential in open BC on the fine real space grid ...
... done

MG BCs: +ve charge blocks (gridpoints):     20482 (   16066908).
MG BCs: -ve charge blocks (gridpoints):      8060 (    1096462).
MG BCs:     Elided blocks (gridpoints):    194750 (  193540175).
MG BCs: Computational effort saved:  99.9865%.
MG BCs: Charge after coarse-graining:           -9.0002275.
MG DL_MG: Calling solver with defect correction order = 8
MG DL_MG: Solver finished
MG Hartree energy from (\int phi*rho dr):              1462.495218
MG Hartree energy from (\int eps (grad phi)^2 dr):     1461.894407
MG Discrepancy due to finite box and discretization:     -0.600811 (  -0.04108%)
MG Correction to account for finite box:                  0.454162
MG Remaining discrepancy, due to discretization:         -0.146649 (  -0.01003%)
 WARNING: xc_energy_potential using alternative initial XC functional PBE.
Up spin density kernel initialisation ... 
======= Optimisation of K by Palser-Manolopoulos canonical purification ======== 
         Iteration  |  Band structure energy |    c_n   
               1       -2589.01745360151745    0.5267754
               2       -2764.80605515206935    0.5170372
               3       -2944.84856072677849    0.5155709
               4       -3094.89134809479310    0.5292807
               5       -3186.90766776732562    0.5650102
               6       -3225.37654112101382    0.6091700
               7       -3238.51030577100573    0.6210502
               8       -3244.20080843809956    0.6202602
               9       -3246.94448625741006    0.6369848
              10       -3248.07033087358650    0.6694613
              11       -3248.49488638239563    0.6865198
              12       -3248.68311868823321    0.6699502
              13       -3248.78942909244597    0.6278281
              14       -3248.85315755319107    0.5604120
              15       -3248.88769352819509    0.4847054
              16       -3248.89862720704605    0.4607783
              17       -3248.90049142560838    0.4611082
              18       -3248.90191667962972    0.4459667
              19       -3248.90267616508299    0.4547666
              20       -3248.90305424109283    0.4854551
              21       -3248.90322053448563    0.4986687
              22       -3248.90324851379228    0.4999890
              23       -3248.90324919153454    0.5000074
              24       -3248.90324919193108    0.5000074
Termination criterion satisfied: band energy change below threshold.
Final occupancy bounds: [   -0.00000000000000:    1.00000000000000]
Closest occupancy to 0.5:     1.00000000000000
================================================================================
... done

Writing density kernel to file "host_16441.vacuum_dkn" ... done

>>> Optimising kernel for current NGWFs:
   Initial electron number for spin 1:    7192.00000000
     Final electron number for spin 1:    7192.00000000

=================== Penalty functional idempotency correction ==================
 RMS occupancy error at iteration   1:  0.000000 (step -0.5000 Ne1=   7192.0000)
            Final RMS occupancy error   :  0.000000 (Ne1=   7192.0000)
               Final occupancy bounds   : [ -0.0000,  1.0000]
================================================================================

................................................................................
<<<<<<<<<<<<<< LNV (Original version) density kernel optimisation >>>>>>>>>>>>>>
~~~~~~~~~~~~~~~~~~~~~~~~~~~~~~~~~~~~~~~~~~~~~~~~~~~~~~~~~~~~~~~~~~~~~~~~~~~~~~~~
   iter  |      energy (Eh)       | rms gradient |  commutator  |   dE (Eh)
MG BCs: +ve charge blocks (gridpoints):     31331 (   17204927).
MG BCs: -ve charge blocks (gridpoints):      8392 (    1129113).
MG BCs:     Elided blocks (gridpoints):    183897 (  192369505).
MG BCs: Computational effort saved:  99.9811%.
MG BCs: Charge after coarse-graining:           -9.0010078.
MG DL_MG: Calling solver with defect correction order = 8
MG DL_MG: Solver finished
MG Hartree energy from (\int phi*rho dr):              1417.771432
MG Hartree energy from (\int eps (grad phi)^2 dr):     1417.117402
MG Discrepancy due to finite box and discretization:     -0.654030 (  -0.04613%)
MG Correction to account for finite box:                  0.465752
MG Remaining discrepancy, due to discretization:         -0.188278 (  -0.01328%)
      ideal mu1:      -0.734605019530
             Q0:  -11471.291240971070
             G0:    -128.308121088713
   RMS gradient:       0.001741324746
MG BCs: +ve charge blocks (gridpoints):     31237 (   17281424).
MG BCs: -ve charge blocks (gridpoints):      8272 (    1106338).
MG BCs:     Elided blocks (gridpoints):    183986 (  192315783).
MG BCs: Computational effort saved:  99.9812%.
MG BCs: Charge after coarse-graining:           -9.0010315.
MG DL_MG: Calling solver with defect correction order = 8
MG DL_MG: Solver finished
MG Hartree energy from (\int phi*rho dr):              1438.754486
MG Hartree energy from (\int eps (grad phi)^2 dr):     1438.115425
MG Discrepancy due to finite box and discretization:     -0.639060 (  -0.04442%)
MG Correction to account for finite box:                  0.466056
MG Remaining discrepancy, due to discretization:         -0.173004 (  -0.01202%)
     Trial step:       0.500000000000
             Q1:  -11483.874063248164
 Quadratic coef:      51.571238267263
 Linear coef   :     -64.154060544356
           Qmin:  -11491.242979685387
Quadratic minimum step length (  0.310997285987) accepted
    Initial Ne1:    7192.00000000
      Final Ne1:    7192.00000000

=================== Penalty functional idempotency correction ==================
 RMS occupancy error at iteration   1:  0.003281 (step -0.4888 Ne1=   7192.0000)
 RMS occupancy error at iteration   2:  0.000026 (step -0.5001 Ne1=   7192.0000)
            Final RMS occupancy error   :  0.000000 (Ne1=   7192.0000)
               Final occupancy bounds   : [  0.0000,  1.0000]
================================================================================

    1        -1.147129124097E+04     1.7413E-03     1.5750E-03
MG BCs: +ve charge blocks (gridpoints):     31270 (   17254078).
MG BCs: -ve charge blocks (gridpoints):      8327 (    1115124).
MG BCs:     Elided blocks (gridpoints):    183954 (  192334343).
MG BCs: Computational effort saved:  99.9812%.
MG BCs: Charge after coarse-graining:           -9.0010225.
MG DL_MG: Calling solver with defect correction order = 8
MG DL_MG: Solver finished
MG Hartree energy from (\int phi*rho dr):              1424.208260
MG Hartree energy from (\int eps (grad phi)^2 dr):     1423.564346
MG Discrepancy due to finite box and discretization:     -0.643915 (  -0.04521%)
MG Correction to account for finite box:                  0.465855
MG Remaining discrepancy, due to discretization:         -0.178059 (  -0.01250%)
      ideal mu1:      -0.779134190871
             Q0:  -11491.638820596505
             G0:     -11.622144246931
   RMS gradient:       0.000520191963
MG BCs: +ve charge blocks (gridpoints):     31243 (   17270887).
MG BCs: -ve charge blocks (gridpoints):      8288 (    1108351).
MG BCs:     Elided blocks (gridpoints):    183980 (  192324307).
MG BCs: Computational effort saved:  99.9812%.
MG BCs: Charge after coarse-graining:           -9.0010272.
MG DL_MG: Calling solver with defect correction order = 8
MG DL_MG: Solver finished
MG Hartree energy from (\int phi*rho dr):              1429.485394
MG Hartree energy from (\int eps (grad phi)^2 dr):     1428.844910
MG Discrepancy due to finite box and discretization:     -0.640484 (  -0.04481%)
MG Correction to account for finite box:                  0.465405
MG Remaining discrepancy, due to discretization:         -0.175079 (  -0.01225%)
     Trial step:       0.394333162432
             Q1:  -11494.299440633040
 Quadratic coef:       1.922376858594
 Linear coef   :      -4.582996895129
           Qmin:  -11494.370316823020
Quadratic minimum step length (  0.470050305431) accepted
    Initial Ne1:    7191.99986163
      Final Ne1:    7192.00000000

=================== Penalty functional idempotency correction ==================
 RMS occupancy error at iteration   1:  0.001579 (step -0.4941 Ne1=   7192.0000)
 RMS occupancy error at iteration   2:  0.000009 (step -0.5002 Ne1=   7192.0000)
            Final RMS occupancy error   :  0.000000 (Ne1=   7192.0000)
               Final occupancy bounds   : [  0.0000,  1.0000]
================================================================================

    2        -1.149163882060E+04     5.2019E-04     4.7050E-04    -2.0348E+01
MG BCs: +ve charge blocks (gridpoints):     31245 (   17274237).
MG BCs: -ve charge blocks (gridpoints):      8277 (    1107032).
MG BCs:     Elided blocks (gridpoints):    183978 (  192322276).
MG BCs: Computational effort saved:  99.9812%.
MG BCs: Charge after coarse-graining:           -9.0010280.
MG DL_MG: Calling solver with defect correction order = 8
MG DL_MG: Solver finished
MG Hartree energy from (\int phi*rho dr):              1430.528272
MG Hartree energy from (\int eps (grad phi)^2 dr):     1429.888403
MG Discrepancy due to finite box and discretization:     -0.639868 (  -0.04473%)
MG Correction to account for finite box:                  0.465326
MG Remaining discrepancy, due to discretization:         -0.174543 (  -0.01220%)
      ideal mu1:      -0.801947941510
             Q0:  -11494.406962734880
             G0:      -1.953686003699
   RMS gradient:       0.000213331517
MG BCs: +ve charge blocks (gridpoints):     31247 (   17275623).
MG BCs: -ve charge blocks (gridpoints):      8289 (    1106866).
MG BCs:     Elided blocks (gridpoints):    183976 (  192321056).
MG BCs: Computational effort saved:  99.9812%.
MG BCs: Charge after coarse-graining:           -9.0010281.
MG DL_MG: Calling solver with defect correction order = 8
MG DL_MG: Solver finished
MG Hartree energy from (\int phi*rho dr):              1429.909712
MG Hartree energy from (\int eps (grad phi)^2 dr):     1429.270301
MG Discrepancy due to finite box and discretization:     -0.639412 (  -0.04472%)
MG Correction to account for finite box:                  0.465058
MG Remaining discrepancy, due to discretization:         -0.174354 (  -0.01219%)
     Trial step:       0.430530397815
             Q1:  -11494.912984754075
 Quadratic coef:       0.335099193182
 Linear coef   :      -0.841121212378
           Qmin:  -11494.934780250042
Quadratic minimum step length (  0.540329934454) accepted
    Initial Ne1:    7191.99991076
      Final Ne1:    7192.00000000

=================== Penalty functional idempotency correction ==================
 RMS occupancy error at iteration   1:  0.000631 (step -0.4973 Ne1=   7192.0000)
 RMS occupancy error at iteration   2:  0.000002 (step -0.5000 Ne1=   7192.0000)
            Final RMS occupancy error   :  0.000000 (Ne1=   7192.0000)
               Final occupancy bounds   : [  0.0000,  1.0000]
================================================================================

    3        -1.149440696273E+04     2.1333E-04     1.9295E-04    -2.7681E+00
MG BCs: +ve charge blocks (gridpoints):     31248 (   17275901).
MG BCs: -ve charge blocks (gridpoints):      8291 (    1106923).
MG BCs:     Elided blocks (gridpoints):    183975 (  192320721).
MG BCs: Computational effort saved:  99.9812%.
MG BCs: Charge after coarse-graining:           -9.0010282.
MG DL_MG: Calling solver with defect correction order = 8
MG DL_MG: Solver finished
MG Hartree energy from (\int phi*rho dr):              1429.757296
MG Hartree energy from (\int eps (grad phi)^2 dr):     1429.117988
MG Discrepancy due to finite box and discretization:     -0.639308 (  -0.04471%)
MG Correction to account for finite box:                  0.464991
MG Remaining discrepancy, due to discretization:         -0.174317 (  -0.01219%)
      ideal mu1:      -0.805206509202
             Q0:  -11494.940021929448
             G0:      -0.463993603854
   RMS gradient:       0.000104157272
MG BCs: +ve charge blocks (gridpoints):     31246 (   17276551).
MG BCs: -ve charge blocks (gridpoints):      8291 (    1106786).
MG BCs:     Elided blocks (gridpoints):    183977 (  192320208).
MG BCs: Computational effort saved:  99.9812%.
MG BCs: Charge after coarse-graining:           -9.0010282.
MG DL_MG: Calling solver with defect correction order = 8
MG DL_MG: Solver finished
MG Hartree energy from (\int phi*rho dr):              1430.848182
MG Hartree energy from (\int eps (grad phi)^2 dr):     1430.208828
MG Discrepancy due to finite box and discretization:     -0.639355 (  -0.04468%)
MG Correction to account for finite box:                  0.464884
MG Remaining discrepancy, due to discretization:         -0.174471 (  -0.01219%)
     Trial step:       0.482315728161
             Q1:  -11495.060839313082
 Quadratic coef:       0.102974029271
 Linear coef   :      -0.223791412905
           Qmin:  -11495.061612287824
Quadratic minimum step length (  0.524103596975) accepted
    Initial Ne1:    7191.99997936
      Final Ne1:    7192.00000000

=================== Penalty functional idempotency correction ==================
 RMS occupancy error at iteration   1:  0.000258 (step -0.4973 Ne1=   7192.0000)
 RMS occupancy error at iteration   2:  0.000002 (step -0.5000 Ne1=   7192.0000)
            Final RMS occupancy error   :  0.000000 (Ne1=   7192.0000)
               Final occupancy bounds   : [  0.0000,  1.0000]
================================================================================

    4        -1.149494002193E+04     1.0416E-04     9.4208E-05    -5.3306E-01
MG BCs: +ve charge blocks (gridpoints):     31246 (   17276616).
MG BCs: -ve charge blocks (gridpoints):      8290 (    1106761).
MG BCs:     Elided blocks (gridpoints):    183977 (  192320168).
MG BCs: Computational effort saved:  99.9812%.
MG BCs: Charge after coarse-graining:           -9.0010282.
MG DL_MG: Calling solver with defect correction order = 8
MG DL_MG: Solver finished
MG Hartree energy from (\int phi*rho dr):              1430.943132
MG Hartree energy from (\int eps (grad phi)^2 dr):     1430.303772
MG Discrepancy due to finite box and discretization:     -0.639360 (  -0.04468%)
MG Correction to account for finite box:                  0.464875
MG Remaining discrepancy, due to discretization:         -0.174485 (  -0.01219%)
      ideal mu1:      -0.805229408334
             Q0:  -11495.062218479114
             G0:      -0.171419727455
   RMS gradient:       0.000063493927
MG BCs: +ve charge blocks (gridpoints):     31247 (   17276245).
MG BCs: -ve charge blocks (gridpoints):      8290 (    1106891).
MG BCs:     Elided blocks (gridpoints):    183976 (  192320409).
MG BCs: Computational effort saved:  99.9812%.
MG BCs: Charge after coarse-graining:           -9.0010279.
MG DL_MG: Calling solver with defect correction order = 8
MG DL_MG: Solver finished
MG Hartree energy from (\int phi*rho dr):              1430.620736
MG Hartree energy from (\int eps (grad phi)^2 dr):     1429.981252
MG Discrepancy due to finite box and discretization:     -0.639484 (  -0.04470%)
MG Correction to account for finite box:                  0.464845
MG Remaining discrepancy, due to discretization:         -0.174639 (  -0.01221%)
     Trial step:       0.502775703477
             Q1:  -11495.114114044001
 Quadratic coef:       0.034290109174
 Linear coef   :      -0.086185674061
           Qmin:  -11495.116373821516
Quadratic minimum step length (  0.631844924822) accepted
    Initial Ne1:    7191.99999078
      Final Ne1:    7192.00000000

=================== Penalty functional idempotency correction ==================
 RMS occupancy error at iteration   1:  0.000294 (step -0.4866 Ne1=   7192.0000)
 RMS occupancy error at iteration   2:  0.000005 (step -0.5000 Ne1=   7192.0000)
            Final RMS occupancy error   :  0.000000 (Ne1=   7192.0000)
               Final occupancy bounds   : [  0.0000,  1.0000]
================================================================================

    5        -1.149506221848E+04     6.3494E-05     5.7429E-05    -1.2220E-01
MG BCs: +ve charge blocks (gridpoints):     31246 (   17276148).
MG BCs: -ve charge blocks (gridpoints):      8291 (    1106920).
MG BCs:     Elided blocks (gridpoints):    183977 (  192320477).
MG BCs: Computational effort saved:  99.9812%.
MG BCs: Charge after coarse-graining:           -9.0010278.
MG DL_MG: Calling solver with defect correction order = 8
MG DL_MG: Solver finished
MG Hartree energy from (\int phi*rho dr):              1430.537364
MG Hartree energy from (\int eps (grad phi)^2 dr):     1429.897847
MG Discrepancy due to finite box and discretization:     -0.639517 (  -0.04470%)
MG Correction to account for finite box:                  0.464837
MG Remaining discrepancy, due to discretization:         -0.174680 (  -0.01221%)
      ideal mu1:      -0.804508547444
             Q0:  -11495.116309424164
             G0:      -0.129024049656
   RMS gradient:       0.000055295444
MG BCs: +ve charge blocks (gridpoints):     31249 (   17275584).
MG BCs: -ve charge blocks (gridpoints):      8292 (    1107307).
MG BCs:     Elided blocks (gridpoints):    183974 (  192320654).
MG BCs: Computational effort saved:  99.9812%.
MG BCs: Charge after coarse-graining:           -9.0010276.
MG DL_MG: Calling solver with defect correction order = 8
MG DL_MG: Solver finished
MG Hartree energy from (\int phi*rho dr):              1429.549161
MG Hartree energy from (\int eps (grad phi)^2 dr):     1428.909565
MG Discrepancy due to finite box and discretization:     -0.639596 (  -0.04474%)
MG Correction to account for finite box:                  0.464889
MG Remaining discrepancy, due to discretization:         -0.174707 (  -0.01222%)
     Trial step:       0.563627781932
             Q1:  -11495.175771796261
 Quadratic coef:       0.013259166826
 Linear coef   :      -0.072721538924
           Qmin:  -11495.216021990813
Quadratic minimum step length (  1.545643109390) accepted
    Initial Ne1:    7191.99997930
      Final Ne1:    7192.00000000

=================== Penalty functional idempotency correction ==================
 RMS occupancy error at iteration   1:  0.003447 (step -0.3463 Ne1=   7192.0000)
 RMS occupancy error at iteration   2:  0.000251 (step -0.4923 Ne1=   7192.0000)
 RMS occupancy error at iteration   3:  0.000005 (step -0.5000 Ne1=   7192.0000)
            Final RMS occupancy error   :  0.000000 (Ne1=   7192.0000)
               Final occupancy bounds   : [  0.0000,  1.0000]
================================================================================

    6        -1.149511630942E+04     5.5295E-05     5.0013E-05    -5.4091E-02
MG BCs: +ve charge blocks (gridpoints):     31252 (   17274726).
MG BCs: -ve charge blocks (gridpoints):      8291 (    1107870).
MG BCs:     Elided blocks (gridpoints):    183971 (  192320949).
MG BCs: Computational effort saved:  99.9812%.
MG BCs: Charge after coarse-graining:           -9.0010273.
MG DL_MG: Calling solver with defect correction order = 8
MG DL_MG: Solver finished
MG Hartree energy from (\int phi*rho dr):              1427.828260
MG Hartree energy from (\int eps (grad phi)^2 dr):     1427.188506
MG Discrepancy due to finite box and discretization:     -0.639754 (  -0.04481%)
MG Correction to account for finite box:                  0.465000
MG Remaining discrepancy, due to discretization:         -0.174754 (  -0.01224%)
      ideal mu1:      -0.804388462097
             Q0:  -11495.183073180378
             G0:      -0.405910114120
   RMS gradient:       0.000097941699
MG BCs: +ve charge blocks (gridpoints):     31247 (   17278927).
MG BCs: -ve charge blocks (gridpoints):      8281 (    1105468).
MG BCs:     Elided blocks (gridpoints):    183976 (  192319150).
MG BCs: Computational effort saved:  99.9812%.
MG BCs: Charge after coarse-graining:           -9.0010284.
MG DL_MG: Calling solver with defect correction order = 8
MG DL_MG: Solver finished
MG Hartree energy from (\int phi*rho dr):              1433.402229
MG Hartree energy from (\int eps (grad phi)^2 dr):     1432.762573
MG Discrepancy due to finite box and discretization:     -0.639656 (  -0.04463%)
MG Correction to account for finite box:                  0.464984
MG Remaining discrepancy, due to discretization:         -0.174672 (  -0.01219%)
     Trial step:       0.933363486218
             Q1:  -11495.243133061449
 Quadratic coef:       0.318801798136
 Linear coef   :      -0.378861679206
           Qmin:  -11495.295632278861
Quadratic minimum step length (  0.554601102889) accepted
    Initial Ne1:    7191.99999849
      Final Ne1:    7192.00000000

=================== Penalty functional idempotency correction ==================
 RMS occupancy error at iteration   1:  0.000163 (step -0.4891 Ne1=   7192.0000)
 RMS occupancy error at iteration   2:  0.000001 (step -0.5000 Ne1=   7192.0000)
            Final RMS occupancy error   :  0.000000 (Ne1=   7192.0000)
               Final occupancy bounds   : [  0.0000,  1.0000]
================================================================================

    7        -1.149518307318E+04     9.7942E-05     8.8586E-05    -6.6764E-02
MG BCs: +ve charge blocks (gridpoints):     31252 (   17277283).
MG BCs: -ve charge blocks (gridpoints):      8290 (    1106410).
MG BCs:     Elided blocks (gridpoints):    183971 (  192319852).
MG BCs: Computational effort saved:  99.9812%.
MG BCs: Charge after coarse-graining:           -9.0010279.
MG DL_MG: Calling solver with defect correction order = 8
MG DL_MG: Solver finished
MG Hartree energy from (\int phi*rho dr):              1431.127472
MG Hartree energy from (\int eps (grad phi)^2 dr):     1430.487783
MG Discrepancy due to finite box and discretization:     -0.639689 (  -0.04470%)
MG Correction to account for finite box:                  0.464986
MG Remaining discrepancy, due to discretization:         -0.174703 (  -0.01221%)
      ideal mu1:      -0.805820449826
             Q0:  -11495.296043767710
             G0:      -0.247548921992
   RMS gradient:       0.000076360830
MG BCs: +ve charge blocks (gridpoints):     31248 (   17277231).
MG BCs: -ve charge blocks (gridpoints):      8288 (    1106351).
MG BCs:     Elided blocks (gridpoints):    183975 (  192319963).
MG BCs: Computational effort saved:  99.9812%.
MG BCs: Charge after coarse-graining:           -9.0010282.
MG DL_MG: Calling solver with defect correction order = 8
MG DL_MG: Solver finished
MG Hartree energy from (\int phi*rho dr):              1431.136433
MG Hartree energy from (\int eps (grad phi)^2 dr):     1430.496777
MG Discrepancy due to finite box and discretization:     -0.639656 (  -0.04470%)
MG Correction to account for finite box:                  0.465151
MG Remaining discrepancy, due to discretization:         -0.174505 (  -0.01219%)
     Trial step:       0.719475099536
             Q1:  -11495.405060719349
 Quadratic coef:       0.069088333652
 Linear coef   :      -0.178105285291
           Qmin:  -11495.410829763303
Quadratic minimum step length (  0.927380290484) accepted
    Initial Ne1:    7191.99999824
      Final Ne1:    7192.00000000

=================== Penalty functional idempotency correction ==================
 RMS occupancy error at iteration   1:  0.001612 (step -0.4077 Ne1=   7192.0000)
 RMS occupancy error at iteration   2:  0.000069 (step -0.4964 Ne1=   7192.0000)
 RMS occupancy error at iteration   3:  0.000000 (step -0.5000 Ne1=   7192.0000)
            Final RMS occupancy error   :  0.000000 (Ne1=   7192.0000)
               Final occupancy bounds   : [  0.0000,  1.0000]
================================================================================

    8        -1.149529604377E+04     7.6361E-05     6.9067E-05    -1.1297E-01
MG BCs: +ve charge blocks (gridpoints):     31246 (   17277231).
MG BCs: -ve charge blocks (gridpoints):      8287 (    1106345).
MG BCs:     Elided blocks (gridpoints):    183977 (  192319969).
MG BCs: Computational effort saved:  99.9812%.
MG BCs: Charge after coarse-graining:           -9.0010283.
MG DL_MG: Calling solver with defect correction order = 8
MG DL_MG: Solver finished
MG Hartree energy from (\int phi*rho dr):              1431.145438
MG Hartree energy from (\int eps (grad phi)^2 dr):     1430.505791
MG Discrepancy due to finite box and discretization:     -0.639647 (  -0.04469%)
MG Correction to account for finite box:                  0.465197
MG Remaining discrepancy, due to discretization:         -0.174450 (  -0.01219%)
      ideal mu1:      -0.805596458167
             Q0:  -11495.407049317379
             G0:      -0.301397458468
   RMS gradient:       0.000085788383
MG BCs: +ve charge blocks (gridpoints):     31246 (   17275710).
MG BCs: -ve charge blocks (gridpoints):      8285 (    1107235).
MG BCs:     Elided blocks (gridpoints):    183977 (  192320600).
MG BCs: Computational effort saved:  99.9812%.
MG BCs: Charge after coarse-graining:           -9.0010280.
MG DL_MG: Calling solver with defect correction order = 8
MG DL_MG: Solver finished
MG Hartree energy from (\int phi*rho dr):              1428.918353
MG Hartree energy from (\int eps (grad phi)^2 dr):     1428.278557
MG Discrepancy due to finite box and discretization:     -0.639795 (  -0.04477%)
MG Correction to account for finite box:                  0.465582
MG Remaining discrepancy, due to discretization:         -0.174213 (  -0.01219%)
     Trial step:       0.816839657953
             Q1:  -11495.468600025168
 Quadratic coef:       0.184642689093
 Linear coef   :      -0.246193396883
           Qmin:  -11495.489114831273
Quadratic minimum step length (  0.544566728006) accepted
    Initial Ne1:    7191.99999869
      Final Ne1:    7192.00000000

=================== Penalty functional idempotency correction ==================
 RMS occupancy error at iteration   1:  0.003277 (step -0.3455 Ne1=   7192.0000)
 RMS occupancy error at iteration   2:  0.000219 (step -0.4878 Ne1=   7192.0000)
 RMS occupancy error at iteration   3:  0.000004 (step -0.5000 Ne1=   7192.0000)
            Final RMS occupancy error   :  0.000000 (Ne1=   7192.0000)
               Final occupancy bounds   : [  0.0000,  1.0000]
================================================================================

    9        -1.149540704932E+04     8.5788E-05     7.7594E-05    -1.1101E-01
MG BCs: +ve charge blocks (gridpoints):     31246 (   17276171).
MG BCs: -ve charge blocks (gridpoints):      8286 (    1106900).
MG BCs:     Elided blocks (gridpoints):    183977 (  192320474).
MG BCs: Computational effort saved:  99.9812%.
MG BCs: Charge after coarse-graining:           -9.0010282.
MG DL_MG: Calling solver with defect correction order = 8
MG DL_MG: Solver finished
MG Hartree energy from (\int phi*rho dr):              1429.644972
MG Hartree energy from (\int eps (grad phi)^2 dr):     1429.005189
MG Discrepancy due to finite box and discretization:     -0.639782 (  -0.04475%)
MG Correction to account for finite box:                  0.465502
MG Remaining discrepancy, due to discretization:         -0.174281 (  -0.01219%)
      ideal mu1:      -0.804578701291
   10        -1.149549511842E+04     6.6098E-05     5.9784E-05    -8.8069E-02
Finished density kernel iterations (  10)

Writing density kernel to file "host_16441.vacuum_dkn" ... done


>>> Density kernel optimised for the current NGWF basis:
     ~~~~~~~~~~~~~~~~~~~~~~~~~~~~~~~~~~~~~~~~~~~~~~~~~~~~~~~~~~~
     Total energy                =  -1.14954951184179E+04  Eh
     Estimated bandgap           =  -4.0705E-01  Eh
     RMS occupancy error         =   1.6114E-09
     [H,K] commutator            =   5.9784E-05
     Occupancy bounds            = [  0.000:  1.000]
     ~~~~~~~~~~~~~~~~~~~~~~~~~~~~~~~~~~~~~~~~~~~~~~~~~~~~~~~~~~~




################################################################################
########################### NGWF CG iteration  001 #############################
################################################################################
****** Reciprocal space K.E. preconditioning with k_zero =  3.5000 a0^-1 *******

>>> Checking for convergence of NGWFs:   NOT CONVERGED
  ========================================================================
         NGWF RMS gradient =  1.6218E-03 >  2.0000E-06  | above tolerance
  ========================================================================

>>> Improving NGWFs using line search:
============ Calculation of NGWF S^-1 using Hotelling algorithm ================ 
         Iteration  |  Frobenius norm and Maximum abs value    (of I-S*S_n^-1)   
               1       0.23424626E+00     0.63101417E-02
               2       0.12750799E-02     0.57054962E-04
               3       0.63322321E-07     0.51134724E-08
               4       0.13067300E-12     0.82156504E-14
================================================================================
MG BCs: +ve charge blocks (gridpoints):     30729 (   17219430).
MG BCs: -ve charge blocks (gridpoints):      8303 (    1103701).
MG BCs:     Elided blocks (gridpoints):    184497 (  192380414).
MG BCs: Computational effort saved:  99.9815%.
MG BCs: Charge after coarse-graining:           -9.0010287.
MG DL_MG: Calling solver with defect correction order = 8
MG DL_MG: Solver finished
MG Hartree energy from (\int phi*rho dr):              1401.896494
MG Hartree energy from (\int eps (grad phi)^2 dr):     1401.258072
MG Discrepancy due to finite box and discretization:     -0.638422 (  -0.04554%)
MG Correction to account for finite box:                  0.465434
MG Remaining discrepancy, due to discretization:         -0.172988 (  -0.01234%)
============ Calculation of NGWF S^-1 using Hotelling algorithm ================ 
         Iteration  |  Frobenius norm and Maximum abs value    (of I-S*S_n^-1)   
               1       0.21743744E+01     0.49197684E-01
               2       0.97555487E-01     0.33303867E-02
               3       0.27301314E-03     0.18013361E-04
               4       0.38405461E-08     0.55900662E-09
               5       0.11524556E-12     0.55511151E-14
================================================================================
------------------------------- NGWF line search -------------------------------
RMS gradient                =       0.00162181626296
Trial step length           =               0.122474
Gradient along search dir.  =       -290.59323612529
Functional at step 0        =  -11495.49511841789354
Functional at step 1        =  -11528.34136069996748
Functional predicted        =  -11610.89775877131069
Selected quadratic step     =               0.794256
--------------------------- NGWF line search finished --------------------------
                                               
Writing NGWFs to file "host_16441.vacuum_tightbox_ngwfs"....  done

>>> Optimising kernel for current NGWFs:
   Initial electron number for spin 1:    7237.83025137
     Final electron number for spin 1:    7192.00000000

=================== Penalty functional idempotency correction ==================
 RMS occupancy error at iteration   1:  0.005227 (step -0.4828 Ne1=   7192.0000)
 RMS occupancy error at iteration   2:  0.000096 (step -0.5003 Ne1=   7192.0000)
            Final RMS occupancy error   :  0.000000 (Ne1=   7192.0000)
               Final occupancy bounds   : [  0.0000,  1.0000]
================================================================================

................................................................................
<<<<<<<<<<<<<< LNV (Original version) density kernel optimisation >>>>>>>>>>>>>>
~~~~~~~~~~~~~~~~~~~~~~~~~~~~~~~~~~~~~~~~~~~~~~~~~~~~~~~~~~~~~~~~~~~~~~~~~~~~~~~~
   iter  |      energy (Eh)       | rms gradient |  commutator  |   dE (Eh)
MG BCs: +ve charge blocks (gridpoints):     25012 (   16970069).
MG BCs: -ve charge blocks (gridpoints):      8441 (    1073609).
MG BCs:     Elided blocks (gridpoints):    190220 (  192659867).
MG BCs: Computational effort saved:  99.9841%.
MG BCs: Charge after coarse-graining:           -9.0007449.
MG DL_MG: Calling solver with defect correction order = 8
MG DL_MG: Solver finished
MG Hartree energy from (\int phi*rho dr):              1271.771537
MG Hartree energy from (\int eps (grad phi)^2 dr):     1271.135888
MG Discrepancy due to finite box and discretization:     -0.635649 (  -0.04998%)
MG Correction to account for finite box:                  0.465150
MG Remaining discrepancy, due to discretization:         -0.170499 (  -0.01341%)
      ideal mu1:      -0.748275041526
             Q0:  -11610.243883280200
             G0:      -9.671753382884
   RMS gradient:       0.000478085207
MG BCs: +ve charge blocks (gridpoints):     25076 (   16981264).
MG BCs: -ve charge blocks (gridpoints):      8429 (    1070563).
MG BCs:     Elided blocks (gridpoints):    190156 (  192651718).
MG BCs: Computational effort saved:  99.9841%.
MG BCs: Charge after coarse-graining:           -9.0007420.
MG DL_MG: Calling solver with defect correction order = 8
MG DL_MG: Solver finished
MG Hartree energy from (\int phi*rho dr):              1284.077189
MG Hartree energy from (\int eps (grad phi)^2 dr):     1283.437920
MG Discrepancy due to finite box and discretization:     -0.639269 (  -0.04978%)
MG Correction to account for finite box:                  0.464029
MG Remaining discrepancy, due to discretization:         -0.175240 (  -0.01365%)
     Trial step:       0.666951047557
             Q1:  -11610.252306194510
 Quadratic coef:       6.442163136115
 Linear coef   :      -6.450586050425
           Qmin:  -11611.858638274554
Quadratic minimum step length (  0.333911531949) accepted
    Initial Ne1:    7191.99899684
      Final Ne1:    7192.00000000

=================== Penalty functional idempotency correction ==================
 RMS occupancy error at iteration   1:  0.000362 (step -0.4985 Ne1=   7192.0000)
 RMS occupancy error at iteration   2:  0.000000 (step -0.5000 Ne1=   7192.0000)
            Final RMS occupancy error   :  0.000000 (Ne1=   7192.0000)
               Final occupancy bounds   : [  0.0000,  1.0000]
================================================================================

    1        -1.161024388328E+04     4.7809E-04     4.3242E-04
MG BCs: +ve charge blocks (gridpoints):     25047 (   16975561).
MG BCs: -ve charge blocks (gridpoints):      8434 (    1072212).
MG BCs:     Elided blocks (gridpoints):    190185 (  192655772).
MG BCs: Computational effort saved:  99.9841%.
MG BCs: Charge after coarse-graining:           -9.0007435.
MG DL_MG: Calling solver with defect correction order = 8
MG DL_MG: Solver finished
MG Hartree energy from (\int phi*rho dr):              1277.103816
MG Hartree energy from (\int eps (grad phi)^2 dr):     1276.466443
MG Discrepancy due to finite box and discretization:     -0.637373 (  -0.04991%)
MG Correction to account for finite box:                  0.464561
MG Remaining discrepancy, due to discretization:         -0.172812 (  -0.01353%)
      ideal mu1:      -0.754004076499
             Q0:  -11611.841985270963
             G0:      -0.933227918299
   RMS gradient:       0.000148816992
MG BCs: +ve charge blocks (gridpoints):     25051 (   16974117).
MG BCs: -ve charge blocks (gridpoints):      8438 (    1073147).
MG BCs:     Elided blocks (gridpoints):    190181 (  192656281).
MG BCs: Computational effort saved:  99.9841%.
MG BCs: Charge after coarse-graining:           -9.0007437.
MG DL_MG: Calling solver with defect correction order = 8
MG DL_MG: Solver finished
MG Hartree energy from (\int phi*rho dr):              1277.473520
MG Hartree energy from (\int eps (grad phi)^2 dr):     1276.835977
MG Discrepancy due to finite box and discretization:     -0.637544 (  -0.04991%)
MG Correction to account for finite box:                  0.464413
MG Remaining discrepancy, due to discretization:         -0.173131 (  -0.01355%)
     Trial step:       0.471913812072
             Q1:  -11612.059721614118
 Quadratic coef:       0.222666801301
 Linear coef   :      -0.440403144456
           Qmin:  -11612.059748907610
Quadratic minimum step length (  0.466689074291) accepted
    Initial Ne1:    7191.99986414
      Final Ne1:    7192.00000000

=================== Penalty functional idempotency correction ==================
 RMS occupancy error at iteration   1:  0.000165 (step -0.4985 Ne1=   7192.0000)
 RMS occupancy error at iteration   2:  0.000001 (step -0.5000 Ne1=   7192.0000)
            Final RMS occupancy error   :  0.000000 (Ne1=   7192.0000)
               Final occupancy bounds   : [  0.0000,  1.0000]
================================================================================

    2        -1.161184198527E+04     1.4882E-04     1.3460E-04    -1.5981E+00
MG BCs: +ve charge blocks (gridpoints):     25051 (   16974133).
MG BCs: -ve charge blocks (gridpoints):      8438 (    1073126).
MG BCs:     Elided blocks (gridpoints):    190181 (  192656286).
MG BCs: Computational effort saved:  99.9841%.
MG BCs: Charge after coarse-graining:           -9.0007437.
MG DL_MG: Calling solver with defect correction order = 8
MG DL_MG: Solver finished
MG Hartree energy from (\int phi*rho dr):              1277.469598
MG Hartree energy from (\int eps (grad phi)^2 dr):     1276.832057
MG Discrepancy due to finite box and discretization:     -0.637541 (  -0.04991%)
MG Correction to account for finite box:                  0.464414
MG Remaining discrepancy, due to discretization:         -0.173127 (  -0.01355%)
      ideal mu1:      -0.754301925636
             Q0:  -11612.060180302826
             G0:      -0.202070620513
   RMS gradient:       0.000069032817
MG BCs: +ve charge blocks (gridpoints):     25046 (   16973026).
MG BCs: -ve charge blocks (gridpoints):      8438 (    1073625).
MG BCs:     Elided blocks (gridpoints):    190186 (  192656894).
MG BCs: Computational effort saved:  99.9841%.
MG BCs: Charge after coarse-graining:           -9.0007438.
MG DL_MG: Calling solver with defect correction order = 8
MG DL_MG: Solver finished
MG Hartree energy from (\int phi*rho dr):              1276.738714
MG Hartree energy from (\int eps (grad phi)^2 dr):     1276.101338
MG Discrepancy due to finite box and discretization:     -0.637376 (  -0.04992%)
MG Correction to account for finite box:                  0.464312
MG Remaining discrepancy, due to discretization:         -0.173064 (  -0.01356%)
     Trial step:       0.469294172243
             Q1:  -11612.122608557926
 Quadratic coef:       0.032402309489
 Linear coef   :      -0.094830564588
           Qmin:  -11612.129564523595
Quadratic minimum step length (  0.686732396756) accepted
    Initial Ne1:    7191.99995695
      Final Ne1:    7192.00000000

=================== Penalty functional idempotency correction ==================
 RMS occupancy error at iteration   1:  0.000218 (step -0.4880 Ne1=   7192.0000)
 RMS occupancy error at iteration   2:  0.000003 (step -0.5000 Ne1=   7192.0000)
            Final RMS occupancy error   :  0.000000 (Ne1=   7192.0000)
               Final occupancy bounds   : [  0.0000,  1.0000]
================================================================================

    3        -1.161206018030E+04     6.9033E-05     6.2439E-05    -2.1820E-01
MG BCs: +ve charge blocks (gridpoints):     25046 (   16972488).
MG BCs: -ve charge blocks (gridpoints):      8441 (    1073833).
MG BCs:     Elided blocks (gridpoints):    190186 (  192657224).
MG BCs: Computational effort saved:  99.9841%.
MG BCs: Charge after coarse-graining:           -9.0007439.
MG DL_MG: Calling solver with defect correction order = 8
MG DL_MG: Solver finished
MG Hartree energy from (\int phi*rho dr):              1276.399492
MG Hartree energy from (\int eps (grad phi)^2 dr):     1275.762193
MG Discrepancy due to finite box and discretization:     -0.637299 (  -0.04993%)
MG Correction to account for finite box:                  0.464263
MG Remaining discrepancy, due to discretization:         -0.173036 (  -0.01356%)
      ideal mu1:      -0.752965642033
             Q0:  -11612.129627947579
             G0:      -0.073827828975
   RMS gradient:       0.000041720507
MG BCs: +ve charge blocks (gridpoints):     25042 (   16972486).
MG BCs: -ve charge blocks (gridpoints):      8440 (    1073822).
MG BCs:     Elided blocks (gridpoints):    190190 (  192657237).
MG BCs: Computational effort saved:  99.9841%.
MG BCs: Charge after coarse-graining:           -9.0007438.
MG DL_MG: Calling solver with defect correction order = 8
MG DL_MG: Solver finished
MG Hartree energy from (\int phi*rho dr):              1276.466128
MG Hartree energy from (\int eps (grad phi)^2 dr):     1275.829015
MG Discrepancy due to finite box and discretization:     -0.637113 (  -0.04991%)
MG Correction to account for finite box:                  0.464178
MG Remaining discrepancy, due to discretization:         -0.172935 (  -0.01355%)
     Trial step:       0.567696672254
             Q1:  -11612.158149046241
 Quadratic coef:       0.013390714166
 Linear coef   :      -0.041911812829
           Qmin:  -11612.162423062777
Quadratic minimum step length (  0.888421497750) accepted
    Initial Ne1:    7191.99997860
      Final Ne1:    7192.00000000

=================== Penalty functional idempotency correction ==================
 RMS occupancy error at iteration   1:  0.000461 (step -0.4697 Ne1=   7192.0000)
 RMS occupancy error at iteration   2:  0.000007 (step -0.4998 Ne1=   7192.0000)
            Final RMS occupancy error   :  0.000000 (Ne1=   7192.0000)
               Final occupancy bounds   : [ -0.0000,  1.0000]
================================================================================

    4        -1.161212962795E+04     4.1721E-05     3.7735E-05    -6.9448E-02
MG BCs: +ve charge blocks (gridpoints):     25041 (   16972468).
MG BCs: -ve charge blocks (gridpoints):      8438 (    1073816).
MG BCs:     Elided blocks (gridpoints):    190191 (  192657261).
MG BCs: Computational effort saved:  99.9841%.
MG BCs: Charge after coarse-graining:           -9.0007438.
MG DL_MG: Calling solver with defect correction order = 8
MG DL_MG: Solver finished
MG Hartree energy from (\int phi*rho dr):              1276.505537
MG Hartree energy from (\int eps (grad phi)^2 dr):     1275.868532
MG Discrepancy due to finite box and discretization:     -0.637004 (  -0.04990%)
MG Correction to account for finite box:                  0.464126
MG Remaining discrepancy, due to discretization:         -0.172878 (  -0.01354%)
      ideal mu1:      -0.753337063544
             Q0:  -11612.162329643383
             G0:      -0.077547896379
   RMS gradient:       0.000042724357
MG BCs: +ve charge blocks (gridpoints):     25046 (   16974133).
MG BCs: -ve charge blocks (gridpoints):      8434 (    1073251).
MG BCs:     Elided blocks (gridpoints):    190186 (  192656161).
MG BCs: Computational effort saved:  99.9841%.
MG BCs: Charge after coarse-graining:           -9.0007435.
MG DL_MG: Calling solver with defect correction order = 8
MG DL_MG: Solver finished
MG Hartree energy from (\int phi*rho dr):              1277.400801
MG Hartree energy from (\int eps (grad phi)^2 dr):     1276.764093
MG Discrepancy due to finite box and discretization:     -0.636708 (  -0.04984%)
MG Correction to account for finite box:                  0.463870
MG Remaining discrepancy, due to discretization:         -0.172837 (  -0.01353%)
     Trial step:       0.710178799903
             Q1:  -11612.192003091564
 Quadratic coef:       0.025399423803
 Linear coef   :      -0.055072871985
           Qmin:  -11612.192182891749
Quadratic minimum step length (  0.769930578686) accepted
    Initial Ne1:    7192.00002832
      Final Ne1:    7192.00000000

=================== Penalty functional idempotency correction ==================
 RMS occupancy error at iteration   1:  0.001198 (step -0.4292 Ne1=   7192.0000)
 RMS occupancy error at iteration   2:  0.000039 (step -0.4981 Ne1=   7192.0000)
            Final RMS occupancy error   :  0.000000 (Ne1=   7192.0000)
               Final occupancy bounds   : [ -0.0000,  1.0000]
================================================================================

    5        -1.161216232964E+04     4.2724E-05     3.8643E-05    -3.2702E-02
MG BCs: +ve charge blocks (gridpoints):     25046 (   16974274).
MG BCs: -ve charge blocks (gridpoints):      8434 (    1073205).
MG BCs:     Elided blocks (gridpoints):    190186 (  192656066).
MG BCs: Computational effort saved:  99.9841%.
MG BCs: Charge after coarse-graining:           -9.0007435.
MG DL_MG: Calling solver with defect correction order = 8
MG DL_MG: Solver finished
MG Hartree energy from (\int phi*rho dr):              1277.476908
MG Hartree energy from (\int eps (grad phi)^2 dr):     1276.840219
MG Discrepancy due to finite box and discretization:     -0.636689 (  -0.04984%)
MG Correction to account for finite box:                  0.463855
MG Remaining discrepancy, due to discretization:         -0.172834 (  -0.01353%)
      ideal mu1:      -0.754518052496
             Q0:  -11612.193001417676
             G0:      -0.063685845529
   RMS gradient:       0.000037660739
MG BCs: +ve charge blocks (gridpoints):     25045 (   16974171).
MG BCs: -ve charge blocks (gridpoints):      8435 (    1073342).
MG BCs:     Elided blocks (gridpoints):    190187 (  192656032).
MG BCs: Computational effort saved:  99.9841%.
MG BCs: Charge after coarse-graining:           -9.0007435.
MG DL_MG: Calling solver with defect correction order = 8
MG DL_MG: Solver finished
MG Hartree energy from (\int phi*rho dr):              1277.150284
MG Hartree energy from (\int eps (grad phi)^2 dr):     1276.513902
MG Discrepancy due to finite box and discretization:     -0.636383 (  -0.04983%)
MG Correction to account for finite box:                  0.463519
MG Remaining discrepancy, due to discretization:         -0.172863 (  -0.01354%)
     Trial step:       0.739451400959
             Q1:  -11612.220574934268
 Quadratic coef:       0.019519071106
 Linear coef   :      -0.047092587698
           Qmin:  -11612.221405840766
Quadratic minimum step length (  0.892016832138) accepted
    Initial Ne1:    7192.00124039
      Final Ne1:    7192.00000000

=================== Penalty functional idempotency correction ==================
 RMS occupancy error at iteration   1:  0.002184 (step -0.3884 Ne1=   7192.0000)
 RMS occupancy error at iteration   2:  0.000103 (step -0.4952 Ne1=   7192.0000)
 RMS occupancy error at iteration   3:  0.000001 (step -0.5000 Ne1=   7192.0000)
            Final RMS occupancy error   :  0.000000 (Ne1=   7192.0000)
               Final occupancy bounds   : [  0.0000,  1.0000]
================================================================================

    6        -1.161219300142E+04     3.7661E-05     3.4063E-05    -3.0672E-02
MG BCs: +ve charge blocks (gridpoints):     25045 (   16974128).
MG BCs: -ve charge blocks (gridpoints):      8437 (    1073389).
MG BCs:     Elided blocks (gridpoints):    190187 (  192656028).
MG BCs: Computational effort saved:  99.9841%.
MG BCs: Charge after coarse-graining:           -9.0007435.
MG DL_MG: Calling solver with defect correction order = 8
MG DL_MG: Solver finished
MG Hartree energy from (\int phi*rho dr):              1277.084059
MG Hartree energy from (\int eps (grad phi)^2 dr):     1276.447716
MG Discrepancy due to finite box and discretization:     -0.636344 (  -0.04983%)
MG Correction to account for finite box:                  0.463475
MG Remaining discrepancy, due to discretization:         -0.172868 (  -0.01354%)
      ideal mu1:      -0.754538277669
             Q0:  -11612.224316642038
             G0:      -0.047629171144
   RMS gradient:       0.000033549744
MG BCs: +ve charge blocks (gridpoints):     25042 (   16972647).
MG BCs: -ve charge blocks (gridpoints):      8434 (    1073693).
MG BCs:     Elided blocks (gridpoints):    190190 (  192657205).
MG BCs: Computational effort saved:  99.9841%.
MG BCs: Charge after coarse-graining:           -9.0007438.
MG DL_MG: Calling solver with defect correction order = 8
MG DL_MG: Solver finished
MG Hartree energy from (\int phi*rho dr):              1276.552308
MG Hartree energy from (\int eps (grad phi)^2 dr):     1275.915977
MG Discrepancy due to finite box and discretization:     -0.636331 (  -0.04985%)
MG Correction to account for finite box:                  0.463452
MG Remaining discrepancy, due to discretization:         -0.172879 (  -0.01354%)
     Trial step:       0.812159526326
             Q1:  -11612.238287754939
 Quadratic coef:       0.024711372174
 Linear coef   :      -0.038682485075
           Qmin:  -11612.239454759834
Quadratic minimum step length (  0.635665808725) accepted
    Initial Ne1:    7191.99999995
      Final Ne1:    7192.00000000

=================== Penalty functional idempotency correction ==================
 RMS occupancy error at iteration   1:  0.000030 (step -0.4982 Ne1=   7192.0000)
            Final RMS occupancy error   :  0.000000 (Ne1=   7192.0000)
               Final occupancy bounds   : [ -0.0000,  1.0000]
================================================================================

    7        -1.161222431664E+04     3.3550E-05     3.0345E-05    -3.1315E-02
MG BCs: +ve charge blocks (gridpoints):     25042 (   16972969).
MG BCs: -ve charge blocks (gridpoints):      8435 (    1073626).
MG BCs:     Elided blocks (gridpoints):    190190 (  192656950).
MG BCs: Computational effort saved:  99.9841%.
MG BCs: Charge after coarse-graining:           -9.0007437.
MG DL_MG: Calling solver with defect correction order = 8
MG DL_MG: Solver finished
MG Hartree energy from (\int phi*rho dr):              1276.667176
MG Hartree energy from (\int eps (grad phi)^2 dr):     1276.030842
MG Discrepancy due to finite box and discretization:     -0.636334 (  -0.04984%)
MG Correction to account for finite box:                  0.463457
MG Remaining discrepancy, due to discretization:         -0.172877 (  -0.01354%)
      ideal mu1:      -0.754080579774
             Q0:  -11612.239461564459
             G0:      -0.035884580639
   RMS gradient:       0.000029117415
MG BCs: +ve charge blocks (gridpoints):     25043 (   16973009).
MG BCs: -ve charge blocks (gridpoints):      8437 (    1073570).
MG BCs:     Elided blocks (gridpoints):    190189 (  192656966).
MG BCs: Computational effort saved:  99.9841%.
MG BCs: Charge after coarse-graining:           -9.0007438.
MG DL_MG: Calling solver with defect correction order = 8
MG DL_MG: Solver finished
MG Hartree energy from (\int phi*rho dr):              1276.627386
MG Hartree energy from (\int eps (grad phi)^2 dr):     1275.991144
MG Discrepancy due to finite box and discretization:     -0.636242 (  -0.04984%)
MG Correction to account for finite box:                  0.463329
[...]
 RMS occupancy error at iteration   1:  0.000000 (step -0.5000 Ne1=   7192.0000)
            Final RMS occupancy error   :  0.000000 (Ne1=   7192.0000)
               Final occupancy bounds   : [ -0.0000,  1.0000]
================================================================================

    7        -1.164826908008E+04     5.9684E-09     5.3982E-09    -2.3283E-10

Reusing previously generated solute cavity.
MG BCs: +ve charge blocks (gridpoints):     29141 (   19114617).
MG BCs: -ve charge blocks (gridpoints):      8460 (    1050827).
MG BCs:     Elided blocks (gridpoints):    186091 (  190538101).
MG BCs: Computational effort saved:  99.9822%.
MG BCs: Charge after coarse-graining:           -9.0010113.
MG DL_MG: Calling solver with defect correction order = 8
MG DL_MG: Solver finished
MG Hartree energy from (\int phi*rho dr):              1228.829825
MG Hartree energy from (\int eps (grad phi)^2 dr):     1228.651198
MG Discrepancy due to finite box and discretization:     -0.178627 (  -0.01454%)
MG Correction to account for finite box:                  0.006204
MG Remaining discrepancy, due to discretization:         -0.172422 (  -0.01403%)
      ideal mu1:      -0.514056971405
             Q0:  -11648.269080078346
             G0:      -0.000000001939
   RMS gradient:       0.000000005003

Reusing previously generated solute cavity.
MG BCs: +ve charge blocks (gridpoints):     29141 (   19114617).
MG BCs: -ve charge blocks (gridpoints):      8460 (    1050827).
MG BCs:     Elided blocks (gridpoints):    186091 (  190538101).
MG BCs: Computational effort saved:  99.9822%.
MG BCs: Charge after coarse-graining:           -9.0010113.
MG DL_MG: Calling solver with defect correction order = 8
MG DL_MG: Solver finished
MG Hartree energy from (\int phi*rho dr):              1228.829831
MG Hartree energy from (\int eps (grad phi)^2 dr):     1228.651204
MG Discrepancy due to finite box and discretization:     -0.178627 (  -0.01454%)
MG Correction to account for finite box:                  0.006204
MG Remaining discrepancy, due to discretization:         -0.172422 (  -0.01403%)
     Trial step:       0.189428507389
             Q1:  -11648.269080078229
 Quadratic coef:       0.000000000484
 Linear coef   :      -0.000000000367
           Qmin:  -11648.269080078415
Quadratic minimum step length (  0.071889732423) accepted
    Initial Ne1:    7192.00000000
      Final Ne1:    7192.00000000

=================== Penalty functional idempotency correction ==================
 RMS occupancy error at iteration   1:  0.000000 (step -0.5000 Ne1=   7192.0000)
            Final RMS occupancy error   :  0.000000 (Ne1=   7192.0000)
               Final occupancy bounds   : [ -0.0000,  1.0000]
================================================================================

    8        -1.164826908008E+04     5.0026E-09     4.5248E-09     1.1642E-10

Reusing previously generated solute cavity.
MG BCs: +ve charge blocks (gridpoints):     29141 (   19114617).
MG BCs: -ve charge blocks (gridpoints):      8460 (    1050827).
MG BCs:     Elided blocks (gridpoints):    186091 (  190538101).
MG BCs: Computational effort saved:  99.9822%.
MG BCs: Charge after coarse-graining:           -9.0010113.
MG DL_MG: Calling solver with defect correction order = 8
MG DL_MG: Solver finished
MG Hartree energy from (\int phi*rho dr):              1228.829827
MG Hartree energy from (\int eps (grad phi)^2 dr):     1228.651200
MG Discrepancy due to finite box and discretization:     -0.178627 (  -0.01454%)
MG Correction to account for finite box:                  0.006204
MG Remaining discrepancy, due to discretization:         -0.172422 (  -0.01403%)
      ideal mu1:      -0.514056971092
             Q0:  -11648.269080078229
             G0:      -0.000000001840
   RMS gradient:       0.000000004175

Reusing previously generated solute cavity.
MG BCs: +ve charge blocks (gridpoints):     29141 (   19114617).
MG BCs: -ve charge blocks (gridpoints):      8460 (    1050827).
MG BCs:     Elided blocks (gridpoints):    186091 (  190538101).
MG BCs: Computational effort saved:  99.9822%.
MG BCs: Charge after coarse-graining:           -9.0010113.
MG DL_MG: Calling solver with defect correction order = 8
MG DL_MG: Solver finished
MG Hartree energy from (\int phi*rho dr):              1228.829831
MG Hartree energy from (\int eps (grad phi)^2 dr):     1228.651204
MG Discrepancy due to finite box and discretization:     -0.178627 (  -0.01454%)
MG Correction to account for finite box:                  0.006204
MG Remaining discrepancy, due to discretization:         -0.172422 (  -0.01403%)
     Trial step:       0.116696035534
             Q1:  -11648.269080078229
 Quadratic coef:       0.000000000215
 Linear coef   :      -0.000000000215
           Qmin:  -11648.269080078284
Quadratic minimum step length (  0.058356144642) accepted
    Initial Ne1:    7192.00000000
      Final Ne1:    7192.00000000

=================== Penalty functional idempotency correction ==================
 RMS occupancy error at iteration   1:  0.000000 (step -0.5000 Ne1=   7192.0000)
            Final RMS occupancy error   :  0.000000 (Ne1=   7192.0000)
               Final occupancy bounds   : [ -0.0000,  1.0000]
================================================================================

    9        -1.164826908008E+04     4.1754E-09     3.7766E-09     1.1642E-10

Reusing previously generated solute cavity.
MG BCs: +ve charge blocks (gridpoints):     29141 (   19114617).
MG BCs: -ve charge blocks (gridpoints):      8460 (    1050827).
MG BCs:     Elided blocks (gridpoints):    186091 (  190538101).
MG BCs: Computational effort saved:  99.9822%.
MG BCs: Charge after coarse-graining:           -9.0010113.
MG DL_MG: Calling solver with defect correction order = 8
MG DL_MG: Solver finished
MG Hartree energy from (\int phi*rho dr):              1228.829829
MG Hartree energy from (\int eps (grad phi)^2 dr):     1228.651202
MG Discrepancy due to finite box and discretization:     -0.178627 (  -0.01454%)
MG Correction to account for finite box:                  0.006204
MG Remaining discrepancy, due to discretization:         -0.172422 (  -0.01403%)
      ideal mu1:      -0.514056970364
   10        -1.164826908008E+04     3.5361E-09     3.1984E-09     0.0000E+00
Finished density kernel iterations (  10)

Writing density kernel to file "host_16441.dkn" ... done


>>> Density kernel optimised for the current NGWF basis:
     ~~~~~~~~~~~~~~~~~~~~~~~~~~~~~~~~~~~~~~~~~~~~~~~~~~~~~~~~~~~
     Total energy                =  -1.16482690800782E+04  Eh
     Estimated bandgap           =   9.9588E-02  Eh
     RMS occupancy error         =   3.0095E-16
     [H,K] commutator            =   3.1984E-09
     Occupancy bounds            = [  0.000:  1.000]
     ~~~~~~~~~~~~~~~~~~~~~~~~~~~~~~~~~~~~~~~~~~~~~~~~~~~~~~~~~~~




################################################################################
########################### NGWF CG iteration  005 #############################
################################################################################
****** Reciprocal space K.E. preconditioning with k_zero =  3.5000 a0^-1 *******

>>> Checking for convergence of NGWFs: 
           ........................................................
           |         *** NGWF optimisation converged ***          |
           | RMS NGWF gradient =    0.00000101197188              |
           | Criteria satisfied:                                  |
           | -> RMS NGWF gradient lower than set threshold.       |
           ========================================================

Reusing previously generated solute cavity.
MG BCs: +ve charge blocks (gridpoints):     29141 (   19114617).
MG BCs: -ve charge blocks (gridpoints):      8460 (    1050827).
MG BCs:     Elided blocks (gridpoints):    186091 (  190538101).
MG BCs: Computational effort saved:  99.9822%.
MG BCs: Charge after coarse-graining:           -9.0010113.
MG DL_MG: Calling solver with defect correction order = 8
MG DL_MG: Solver finished
MG Hartree energy from (\int phi*rho dr):              1228.829829
MG Hartree energy from (\int eps (grad phi)^2 dr):     1228.651202
MG Discrepancy due to finite box and discretization:     -0.178627 (  -0.01454%)
MG Correction to account for finite box:                  0.006204
MG Remaining discrepancy, due to discretization:         -0.172422 (  -0.01403%)

================================================================================
           ---------------- ENERGY COMPONENTS (Eh) ----------------
           | Kinetic                    :     8411.22147609092099 |
           | Pseudo. (local,OBC,corr'd) :    -4991.44712861907919 |
           | Pseudopotential (non-local):     1446.13155072445193 |
           | Hartree (molecular)        :     1228.82982894890779 |
           | Exchange-correlation       :    -3334.56034102195372 |
           | Ion-ion (open BC)          :   831368.19604759500362 |
           | Smeared ion non-self corr. :  -831320.09529235202353 |
           | Smeared ion self corr.     :   -14457.16956389741972 |
           | Solvent cavitation energy  :        2.22126639841159 |
           | Solute-solvent dis-rep en. :       -1.59692394547805 |
           | Total                      :   -11648.26908007826387 |
           --------------------------------------------------------
           ------ LOCAL ENERGY COMPONENTS FROM MATRIX TRACES ------
           | Pseudopotential (local)    :    -4991.44712861909647 |
           | Hartree                    :    -1984.99213841549113 |
           --------------------------------------------------------
           Integrated density           :     7191.99999999774809
           Integrated density tr(KS)    :     7192.00000000000091
================================================================================


                        <<<<< CALCULATION SUMMARY >>>>>                         
|ITER|    RMS GRADIENT   |     TOTAL ENERGY    |   step   |     Epredicted              
   0     0.00003763915488 -11648.22048679157160   0.535753 -11648.26241402410233        
   1     0.00001226905492 -11648.26796310162172   0.113141 -11648.26890389127766        
   2     0.00000531124854 -11648.26904391322751   0.019675 -11648.26907457280504        
   3     0.00000232487654 -11648.26907872653101   0.003832 -11648.26907987052618        
   4     0.00000101197188 -11648.26908007822931  <-- CG                                 

=================== Finished the calculation in solvent ========================
= Adjusting the following parameters: 
= read_denskern: F
= read_tightbox_ngwfs: F
= maxit_pen: 0 (restored to user-specified value)
= restart read filename prefix: ""
= restart write filename prefix: ""
================================================================================

================================================================================
IS: Calculation in solvent completed (NGWFs converged).      

Individual components of total energy in solvent:     hartree           kcal/mol
- Usual non-electrostatic DFT terms:    -12877.72325148007076    -8080893.169351
- Electrostatic fixed charge energy:      1228.82982894890779      771102.342948
- Apolar cavitation energy:                  2.22126639841159        1393.865679
- Apolar dispersion-repulsion energy:       -1.59692394547805       -1002.084883
 -------------------------------------------------------------------------------
- Total energy in solvent:              -11648.26908007822931    -7309399.045607

Components of total energy in solvent:                hartree           kcal/mol
- Usual non-electrostatic DFT terms:    -12877.72325148007076    -8080893.169351
- Electrostatic energy:                   1228.82982894890779      771102.342948
- Apolar energy terms:                       0.62434245293354         391.780796
 -------------------------------------------------------------------------------
- Total energy in solvent:              -11648.26908007822931    -7309399.045607

Calculation of free energy of solvation:              hartree           kcal/mol
- Total energy in solvent:         (+)  -11648.26908007822931    -7309399.045607
- Total energy in vacuum:          (-)  -11644.40854338707868    -7306976.522311
 -------------------------------------------------------------------------------
- Total free energy of solvation:           -3.86053669115063       -2422.523296

Components of polar term in f.e. of solvation:        hartree           kcal/mol
- Electrostatic:                            -4.76042281663308       -2987.210353
- Change in nonelectrostatic DFT terms:      0.27554367254925         172.906261
 -------------------------------------------------------------------------------
- Polar term in f.e. of solvation:          -4.48487914408383       -2814.304092

Components of free energy of solvation:               hartree           kcal/mol
- Polar term in f.e. of solvation: (+)      -4.48487914408383       -2814.304092
- Apolar (cavitation, dis., rep.): (+)       0.62434245293354         391.780796
 -------------------------------------------------------------------------------
- Total free energy of solvation:           -3.86053669115030       -2422.523296
================================================================================


------------------------------ TIMING INFORMATION ------------------------------
AVERAGE TIME:   77607.765s on     40 node(s)                                    
TOTAL TIME:     77607.767s on     40 node(s)                                    
================= AVERAGE TIMINGS FROM ALL NODES (CUMULATIVE) ==================
|| TAG                                    #calls    cpu time   %total  Gflops ||
|| work_imbalance                       :     1        0.00s   0.000%  ------ ||
|| parallel_prepare_fd_halos_request    :  2067        0.02s   0.000%  ------ ||
|| sparse_set_to_garbage                :   218        0.06s   0.000%  ------ ||
|| parallel_prepare_fd_halos_satisfy    :  2067        0.06s   0.000%  ------ ||
|| parallel_prepare_fd_halos_alloc      :  2067        0.08s   0.000%  ------ ||
|| ngwfs_initialise_from_radial         :     1        0.17s   0.000%  ------ ||
|| basis_extract_function_from_box      :  5691        0.19s   0.000%  ------ ||
|| restart_ngwfs_tightbox_input         :     1        0.99s   0.001%  ------ ||
|| parallel_prepare_fd_halos_comms_imbal:  2067        3.47s   0.004%  ------ ||
|| pseudopotentials_nonlocal_mat        :    32        3.97s   0.005%  ------ ||
|| openbc_locps_radial                  :     1        5.22s   0.007%  ------ ||
|| restart_kernel_read                  :     1        7.16s   0.009%  ------ ||
|| density_init_guess_real              :     1        7.27s   0.009%  ------ ||
|| restart_kernel_write                 :    18       12.51s   0.016%  ------ ||
|| parallel_prepare_fd_halos_clear      :  2067       16.00s   0.021%  ------ ||
|| sparse_init                          :     2       22.50s   0.029%  ------ ||
|| projectors_func_ovlp_box             :    32       27.11s   0.035%  ------ ||
|| parallel_prepare_fd_halos_comms_wait :  2067       28.26s   0.036%  ------ ||
|| function_ops_brappd_ketppd           :    32       29.60s   0.038%  ------ ||
|| projectors_init_fftbox_recip         :   219       32.78s   0.042%  ------ ||
|| palser_mano_kernel_optimise          :     1       43.25s   0.056%  ------ ||
|| parallel_prepare_fd_halos            :  2067       47.90s   0.062%  ------ ||
|| pseudo_make_structure_factor         :     2       64.51s   0.083%  ------ ||
|| ngwf_gradient_coeffs                 :    17       71.03s   0.092%  ------ ||
|| restart_ngwfs_tightbox_output        :    15       72.31s   0.093%  ------ ||
|| sparse_embed_hotelling_invert_embed  :    32      102.67s   0.132%  ------ ||
|| basis_copy_function_to_box           : 176.0k     127.37s   0.164%  ------ ||
|| finite_difference_derivative         :  2067      130.28s   0.168%  ------ ||
|| integrals_kinetic                    :    32      191.53s   0.247%  ------ ||
|| openbc_locps_on_grid                 :     2      208.64s   0.269%  ------ ||
|| projectors_gradient_batch            :   187      251.53s   0.324%  ------ ||
|| sparse_trace                         :  5679      320.58s   0.413%  ------ ||
|| fourier_apply_box_pair               : 49663      363.91s   0.469% 597.541 ||
|| basis_dot_function_with_box          : 20.39M     388.39s   0.500%  ------ ||
|| kernel_purify                        :   526      395.84s   0.510%  ------ ||
|| lnv_gradient_norm                    :   170      629.79s   0.812%  ------ ||
|| kernel_fix                           :   170      722.82s   0.931%  ------ ||
|| hamiltonian_energy_components        :     4      798.58s   1.029%  ------ ||
|| basis_add_function_to_box            : 54.52M     962.92s   1.241%  ------ ||
|| integrals_locpot_mat_els_batch       :  1969     1011.57s   1.303%  ------ ||
|| ke_density_batch_grad_apply          :  3773     1213.03s   1.563%  ------ ||
|| ke_density_batch_row_sums            :  3773     1325.17s   1.708%  ------ ||
|| density_batch_row_sums               :  3773     1325.53s   1.708%  ------ ||
|| fourier_apply_cell_forward           :  9266     1924.31s   2.480%  71.898 ||
|| density_fftbox_deposit_to_cell       : 55909     1965.96s   2.533%  ------ ||
|| fourier_apply_cell_backward          :  9268     1990.08s   2.564%  69.536 ||
|| ke_density_fftbox_deposit_to_cell    : 55909     2169.68s   2.796%  ------ ||
|| cell_grid_deposit_box_real           : 113.9k    2397.47s   3.089%  ------ ||
|| sparse_product                       :  7100     2460.49s   3.170%  ------ ||
|| cell_grid_extract_box_real           : 140.6k    2538.56s   3.271%  ------ ||
|| multigrid_prepare_bound_cond         :   344     2812.07s   3.623%  ------ ||
|| ngwf_gradient_build_batch            :   187     2865.69s   3.693%  ------ ||
|| ngwf_gradient_batch                  :   187     3187.80s   4.108%  ------ ||
|| ngwf_gradient_lnv                    :    17     3410.74s   4.395%  ------ ||
|| potential_apply_to_ngwf_batch        :  1969     3942.01s   5.079%  ------ ||
|| density_fftbox_interpolate_multiply  : 55909     4349.79s   5.605%  ------ ||
|| integrals_locpot_dbl_grid            :   179     4966.39s   6.399%  ------ ||
|| xc_energy_potential                  :   344     5164.66s   6.655%  ------ ||
|| density_batch_interp_deposit         :  3773     7241.17s   9.330%  ------ ||
|| dl_mg_solver_calls                   :   344     7936.11s  10.226%  ------ ||
|| nlxc_vdw_energy                      :   686     8644.67s  11.139%  ------ ||
|| density_on_dbl_grid                  :   343     9109.65s  11.738%  ------ ||
|| potential_apply_to_fftbox_batch      :  5610    10620.73s  13.685%  ------ ||
|| multigrid_calculate_hartree          :   344    10924.51s  14.077%  ------ ||
|| integrals_div_locpot_grad_functions  :   170    15757.86s  20.304%  ------ ||
|| ke_density_fftbox_interpolate_multipl: 55909    17361.46s  22.371%  ------ ||
|| ke_density_batch_interp_deposit      :  3773    20529.72s  26.453%  ------ ||
|| fourier_apply_box                    : 1.270M   22375.58s  28.832% 822.276 ||
|| ke_density_on_dbl_grid               :   343    23611.04s  30.424%  ------ ||
|| hamiltonian_lhxc_calculate           :   339    48786.68s  62.863%  ------ ||
|| lnv_denskernel_optimise_cg           :    17    69763.90s  89.893%  ------ ||
|| ngwf_cg_optimise                     :     2    76724.29s  98.862%  ------ ||
|| total_time                           :     1    77607.77s 100.000%  ------ ||
================================================================================
Overhead of generating timer report: 
- 0 ms averaging over threads,
- 7 ms ensuring consistency across MPI ranks,
- 2 ms printing in order.

Job completed: 22-03-2020 04:24 (-0000)

