 +---------------------------------------------------------------+
 |                                                               |
 |        ####### #     # ####### ####### ####### ######         |
 |        #     # ##    # #          #    #       #     #        |
 |        #     # # #   # #          #    #       #     #        |
 |        #     # #  #  # #####      #    #####   ######         |
 |        #     # #   # # #          #    #       #              |
 |        #     # #    ## #          #    #       #              |
 |        ####### #     # #######    #    ####### #              |
 |                                                               |
 |        Linear-Scaling Ab Initio Total Energy Program          |
 |                                                               |
 |          Release for academic collaborators of ODG            |
 |                                             Version 5.3.2.6.  |
 |                                                               |
 +---------------------------------------------------------------+
 |                                                               |
 |  Authors:                                                     |
 |  Jacek Dziedzic, Peter D. Haynes, Nicholas D. M. Hine,        |
 |  Arash. A. Mostofi, Mike C. Payne and Chris-Kriton Skylaris   |
 |                                                               |
 |  Contributors:                                                |
 |  J. Aarons, L. Andrinopoulos, P. W. Avraam, R. A. Bell,       |
 |  A. Bhandari, G. A. Bramley, R. J. Charlton, S. J. Clark,     |
 |  R. J. Clements, G. C. Constantinescu, F. Corsetti,           |
 |  N. Corsini, O. Dieguez, S. M. M. Dubois, K. K. B. Duff,      |
 |  J. M. Escartin, A. Greco, H. Helal, Q. O. Hill, L. P. Lee,   |
 |  J.-H. Li, E. B. Linscott, G. Moynihan, D. D. O`Regan,        |
 |  O. K. Okan, M. J. S. Phipps, C. J. Pickard,                  |
 |  J. C. A. Prentice, M. I. J. Probert, L. E. Ratcliff,         |
 |  M. Robinson, A. Ruiz Serrano, J. S. Spencer, E. W. Tait,     |
 |  G. Teobaldi, D. Turban, V. Vitale, K. A. Wilkinson,          |
 |  C. Weber, J. C. Womack, N. Yeung and T. J. Zuehlsdorff       |
 |                                                               |
 |                                   Copyright (c) 2004-2019     |
 |                                                               |
 |  Please cite:                                                 |
 |  "Introducing ONETEP: Linear-scaling density functional       |
 |   simulations on parallel computers".                         |
 |   C.-K. Skylaris, P. D. Haynes, A. A. Mostofi, M. C. Payne.   |
 |   J. Chem. Phys. 122 084119 (2005).                           |
 |                                                               |
 |          in all publications arising from your use of ONETEP. |
 |                                                               |
 +---------------------------------------------------------------+
 |                                                               |
 |   ONETEP is based on developments described in the following  |
 |   publications:                                               |
 |                                                               |
 |  "Nonorthogonal generalized Wannier function pseudopotential  |
 |   plane-wave method".                                         |
 |   C.-K. Skylaris, A. A. Mostofi, P. D. Haynes, O. Dieguez,    |
 |   M. C. Payne.                                                |
 |   Phys. Rev. B 66 035119 (2002).                              |
 |                                                               |
 |  "Preconditioned iterative minimization for linear-scaling    |
 |   electronic structure calculations".                         |
 |   A. A. Mostofi, P. D. Haynes, C.-K. Skylaris, M. C. Payne.   |
 |   J. Chem. Phys. 119(17), pp.8842-8848 (2003).                |
 |                                                               |
 |  "Total-energy calculations on a real space grid with         |
 |   localized functions and a plane-wave basis".                |
 |   A. A. Mostofi, C.-K. Skylaris, P. D. Haynes, M. C. Payne.   |
 |   Comput. Phys. Commun. 147, pp.788-802 (2002).               |
 |                                                               |
 |  "Accurate kinetic energy evaluation in electronic structure  |
 |   calculations with localized functions on real space grids"  |
 |   C.-K. Skylaris, A. A. Mostofi, P. D. Haynes, C. J. Pickard, |
 |   M. C. Payne.                                                |
 |   Comput. Phys. Commun. 140, pp.315-322 (2001).               |
 |                                                               |
 |  "Accurate ionic forces and geometry optimization in linear-  |
 |   scaling density-functional theory with local orbitals"      |
 |   N. D. M. Hine, M. Robinson, P. D. Haynes, C.-K. Skylaris,   |
 |   M. C. Payne, and A. A. Mostofi.                             |
 |   Phys. Rev. B 83 195102 (2011).                              |
 |                                                               |
 +---------------------------------------------------------------+

Job started: 02-02-2020 18:45 (-0000)
 
Reading parameters from file "host_11121.dat" ...... done

If your calculation crashes here, before "Checking processes and threads..."
is displayed, then your stack size is insufficient.
If so, use "ulimit -s unlimited" at runtime.
You can disable this check with "check_stack_size F".

Checking processes and threads...
   Determining the default number of threads...
      No default threads set at compilation time: defaulting to 1.
      OpenMP library call suggests 4 threads.
      Hybrid MPI-OpenMP compilation detected.
      Number of MPI processes > 1.
      OMP_NUM_THREADS environment variable present and
      its value matches the one obtained from the OpenMP library call.
      Using this value as default.
      Default threads: 4
      Default applies to threads_max and threads_num_fftboxes.
      Settings in the input file override this default.
   ... done

   Running with 40 MPI processes.
   There are 10 MPI processes running on the same node as the root process.
   Each MPI process is using: 
               1 threads for simulation cell FFTs.
               1 threads for parallel FFT box operations.
               4 threads for loops over batched FFT box operations.
               4 threads in other parallel regions.
... done

Basic input checks...... done

Reading geometry and species blocks from file "host_11121.dat" ...
  <species_atomic_set> block not found: NGWF initialisation set to SOLVE
IS: Dielectric excluded regions:
    - NONE.
    
  Number of PPD points along a3 set to 1.  This is 
  the default value, it may have been provided also in the input file.
... done
 Writing xyz coordinates to file "host_11121.xyz" ... done


--------------------------------------------------------------------------------
---------------------------------- INPUT FILE ----------------------------------
--------------------------------------------------------------------------------

cutoff_energy       : 800 eV                                                    
xc_functional B97M-V                                                            
task SINGLEPOINT                                                                
write_xyz true                                                                  
output_detail VERBOSE                                                           
ngwf_threshold_orig : 0.000002                                                  
kernel_cutoff       : 1000                                                      
k_zero              : 3.5                                                       
elec_cg_max 0                                                                   
occ_mix 1.0                                                                     
dispersion 0                                                                    
maxit_ngwf_cg 40                                                                
minit_lnv 10                                                                    
maxit_lnv 10                                                                    
write_denskern T                                                                
write_tightbox_ngwfs T                                                          
charge 9                                                                        
is_implicit_solvent T                                                           
is_auto_solvation T                                                             
is_include_apolar T                                                             
is_smeared_ion_rep T                                                            
is_solvent_surf_tension 4.7624E-5 Ha/bohr**2                                    
is_apolar_scaling_factor 0.281075                                               
is_solvation_beta 1.3                                                           
is_density_threshold 0.00035                                                    
is_bulk_permittivity 78.54                                                      
is_dielectric_model fix_initial                                                 
is_smeared_ion_width 0.8                                                        
mg_defco_fd_order 8                                                             
is_bc_coarseness 10                                                             
is_bc_surface_coarseness 1                                                      
fine_grid_scale 2.0                                                             
%block species                                                                  
N   N   7 4 8.0                                                                 
H   H   1 1 8.0                                                                 
C   C   6 4 8.0                                                                 
S   S  16 9 8.0                                                                 
O   O   8 4 8.0                                                                 
%endblock species                                                               
%block species_pot                                                              
N   N_00.recpot                                                                 
H   H_04.recpot                                                                 
C   C_01.recpot                                                                 
S   S_00.recpot                                                                 
O   O_02.recpot                                                                 
%endblock species_pot                                                           
%block lattice_cart                                                             
142.669   0.000   0.000                                                         
0.000 146.65   0.000                                                            
0.000   0.000   162.396                                                         
%endblock lattice_cart                                                          
%block positions_abs                                                            
     Hash =  -000002962051267073526827
%endblock positions_abs                                                         

--------------------------------------------------------------------------------
-------------------------------- END INPUT FILE --------------------------------
--------------------------------------------------------------------------------


 
 ESDF WARNING(1): "kernelcutoff" (esdf_physical) has no units. Assume "bohr".
 ESDF WARNING(2): "kzero" (esdf_physical) has no units. Assume "1/bohr".
 ESDF WARNING(3
 ): "issmearedionwidth" (esdf_physical) has no units. Assume "bohr".
<<<<<<<<<<<<<<<<<<<<<<<<<<<<<<<<< Full system >>>>>>>>>>>>>>>>>>>>>>>>>>>>>>>>>>
<<<<<<<<<<<<<<<<<<<<<<<<< Pseudopotential information >>>>>>>>>>>>>>>>>>>>>>>>>>
File: N_00.recpot [ 2001 points up to Gmax=  52.9 (1/bohr)]
  Atomic number:  7;  ionic charge:  5.000000
    Shell 1: l = 0; rc = 1.48 bohr
File: H_04.recpot [ 2001 points up to Gmax=  52.9 (1/bohr)]
  Atomic number:  1;  ionic charge:  1.000000
    Local potential
File: C_01.recpot [ 2001 points up to Gmax=  52.9 (1/bohr)]
  Atomic number:  6;  ionic charge:  4.000000
    Shell 1: l = 0; rc = 1.48 bohr
File: S_00.recpot [ 2001 points up to Gmax=  52.9 (1/bohr)]
  Atomic number: 16;  ionic charge:  6.000000
    Shell 1: l = 0; rc = 1.90 bohr
    Shell 2: l = 2; rc = 1.84 bohr
File: O_02.recpot [ 2001 points up to Gmax=  52.9 (1/bohr)]
  Atomic number:  8;  ionic charge:  6.000000
    Shell 1: l = 0; rc = 1.31 bohr
<<<<<<<<<<<<<<<<<<<<<<<<<<<<<<<<<<<<<<<<>>>>>>>>>>>>>>>>>>>>>>>>>>>>>>>>>>>>>>>>

-------------------------- Atom counting information ---------------------------
Symbol    Natoms    Nngwfs    Nprojs
  N        236       944       236
  H       1311      1311         0
  C        810      3240       810
  S          6        54        36
  O        239       956       239
.......   ......    ......    ......
Totals:   2602      6505      1321
--------------------------------------------------------------------------------

=============================== PSINC grid sizes ===============================
                      Simulation cell:  286 x 294 x 320
                              FFT-box:  105 x 105 x  99
                                  PPD:   11 x   6 x   1
Grid space d1=  0.498842657343a0 (KE cutoff=  30.52649Eh = 830.66799eV)
Grid space d2=  0.498809523810a0 (KE cutoff=  30.53054Eh = 830.77835eV)
Grid space d3=  0.507487500000a0 (KE cutoff=  29.49533Eh = 802.60885eV)
================================================================================

********************* Fourier parallelisation information **********************
       Coarse grid (whole simulation cell) dimensions:    286   294   320
          Real-space ('12') slabs/node (min max mean):      8     8     8
         Recip-space ('23') slabs/node (min max mean):      3     4     3
********************************************************************************

********************* Fourier parallelisation information **********************
       Double grid (whole simulation cell) dimensions:    572   588   640
          Real-space ('12') slabs/node (min max mean):     16    16    16
         Recip-space ('23') slabs/node (min max mean):      7     8     7
********************************************************************************
ONETEP fine grid is 572 x 588 x 640 gridpoints, 142.6690 x 146.6500 x 162.3960 bohr.
FD multigrid is     569 x 585 x 633 gridpoints, 141.9207 x 145.9018 x 160.6198 bohr.


Calculating local pseudopotential in open BC on a radial grid ...
Discrepancy between calculated realspace psloc and -Z/x on [5a0,261.215a0]:
max |rel. diff| # avg |rel. diff| #  avg rel. diff #  f # pseudopotential file
 0.000261901569    0.000004963664   0.000000071970   55  'N_00.recpot'
 0.000422260137    0.000017549664  -0.000000063361   55  'H_04.recpot'
 0.000361991046    0.000016543264   0.000000134927   55  'C_01.recpot'
 0.000447743184    0.000019132268   0.000000438157   55  'S_00.recpot'
 0.000711628927    0.000028437426   0.000000135877   55  'O_02.recpot'
... done
 WARNING: meta-GGA functionality under development.
          Using this functional is experimental.
          Minimum tau threshold, xc_min_tau =   1.00000000E-12
 WARNING: Using alternative XC functional PBE for 
          radial densities (xc_radial).

Atom SCF Calculation for N  : Z (AE atom) =   7 : Z (PS atom) =   5
Config String:
Orbitals (num,occ):  2     2.00 3.00
Orbitals   (num,l):  2        0    1
Real-space Grid (nr,dr,rmax): 1203    0.0066555740    8.0000000000
Spherical Bessel Basis (nsws,lmax,cutoff):   47    1  176.3951722778
Confining potential (l,width,scale):  0    3.0000000000  100.0000000000
Confining potential (l,width,scale):  1    3.0000000000  100.0000000000
  1         -4.7312375307   -3.4155304497    7.0523828109   -1.9351020946
  2         -9.7309464766   -2.0532547791    8.2966052865   -2.2494486027
  3         -9.6627394379   -2.1124926340    8.2327997121   -2.2369778124
  4         -9.6814993499   -2.1215521045    8.2229805960   -2.2365178421
  5         -9.6843326483   -2.1250939529    8.2191374534   -2.2362718126
  6         -9.6859628709   -2.1267894855    8.2172963573   -2.2362066344
  7         -9.6867347035   -2.1276425665    8.2163697352   -2.2361903369
  8         -9.6870802100   -2.1280764625    8.2158983890   -2.2361891460
  9         -9.6872290423   -2.1282977424    8.2156580222   -2.2361920435
 10         -9.6872901988   -2.1284107021    8.2155353368   -2.2361953393
 11         -9.6873135296   -2.1284684031    8.2154726809   -2.2361979819
 12         -9.6873212476   -2.1284978948    8.2154406648   -2.2361998431
 13         -9.6873229586   -2.1285129774    8.2154242957   -2.2362010676
 14         -9.6873226456   -2.1285206957    8.2154159216   -2.2362018403
 15         -9.6873218534   -2.1285246479    8.2154116349   -2.2362023142
 16         -9.6873212599   -2.1285262679    8.2154098784   -2.2362025420
 17         -9.6873207834   -2.1285272564    8.2154088068   -2.2362026955
 18         -9.6873204210   -2.1285278597    8.2154081529   -2.2362027982
 19         -9.6873201550   -2.1285282280    8.2154077538   -2.2362028667
 20         -9.6873199645   -2.1285284529    8.2154075102   -2.2362029121
 21         -9.6873198305   -2.1285285903    8.2154073614   -2.2362029421
 22         -9.6873197377   -2.1285286742    8.2154072705   -2.2362029618
Atom SCF converged after  22 iterations to a total energy of     -9.68731974

Atom SCF Calculation for H  : Z (AE atom) =   1 : Z (PS atom) =   1
Config String:
Orbitals (num,occ):  1     1.00
Orbitals   (num,l):  1        0
Real-space Grid (nr,dr,rmax): 1203    0.0066555740    8.0000000000
Spherical Bessel Basis (nsws,lmax,cutoff):   47    0  176.3951722778
Confining potential (l,width,scale):  0    3.0000000000  100.0000000000
  1         -0.3194257691   -0.2393854593    0.2820953124   -0.2424203209
  2         -0.3951823392   -0.2377116493    0.2886404059   -0.2475147891
  3         -0.4317044583   -0.2352244387    0.2921333887   -0.2514046172
  4         -0.4470703708   -0.2341892222    0.2934391879   -0.2531009782
  5         -0.4532132900   -0.2338556667    0.2938388426   -0.2537313520
  6         -0.4556579251   -0.2337612552    0.2939448584   -0.2539550462
  7         -0.4566418315   -0.2337377355    0.2939680120   -0.2540342273
  8         -0.4570437922   -0.2337331116    0.2939708287   -0.2540627372
  9         -0.4572102946   -0.2337328328    0.2939698291   -0.2540732650
 10         -0.4572800424   -0.2337332404    0.2939687193   -0.2540772588
 11         -0.4573095100   -0.2337335791    0.2939680317   -0.2540788122
 12         -0.4573220379   -0.2337337762    0.2939676699   -0.2540794294
 13         -0.4573273880   -0.2337338775    0.2939674931   -0.2540796787
 14         -0.4573296803   -0.2337339266    0.2939674099   -0.2540797808
 15         -0.4573306647   -0.2337339495    0.2939673718   -0.2540798230
 16         -0.4573310882   -0.2337339601    0.2939673545   -0.2540798406
 17         -0.4573312706   -0.2337339649    0.2939673467   -0.2540798479
 18         -0.4573313493   -0.2337339670    0.2939673433   -0.2540798510
Atom SCF converged after  18 iterations to a total energy of     -0.45733135

Atom SCF Calculation for C  : Z (AE atom) =   6 : Z (PS atom) =   4
Config String:
Orbitals (num,occ):  2     2.00 2.00
Orbitals   (num,l):  2        0    1
Real-space Grid (nr,dr,rmax): 1203    0.0066555740    8.0000000000
Spherical Bessel Basis (nsws,lmax,cutoff):   47    1  176.3951722778
Confining potential (l,width,scale):  0    3.0000000000  100.0000000000
Confining potential (l,width,scale):  1    3.0000000000  100.0000000000
  1         -5.2976922011   -1.3069684169    4.5135249990   -1.4493313817
  2         -5.3721716256   -1.3429755895    4.4750154450   -1.4361613026
  3         -5.3809959565   -1.3617365618    4.4541655428   -1.4305930207
  4         -5.3918938866   -1.3667928461    4.4484735100   -1.4294652294
  5         -5.3956096428   -1.3688539142    4.4461376126   -1.4290734646
  6         -5.3968271862   -1.3696852393    4.4451910874   -1.4289366866
  7         -5.3972028401   -1.3700178062    4.4448112275   -1.4288900460
  8         -5.3973067903   -1.3701500158    4.4446598370   -1.4288749220
  9         -5.3973286940   -1.3702023868    4.4445997329   -1.4288704293
 10         -5.3973289850   -1.3702230869    4.4445759233   -1.4288693188
 11         -5.3973254264   -1.3702312560    4.4445665049   -1.4288691775
 12         -5.3973224003   -1.3702344755    4.4445627836   -1.4288692549
 13         -5.3973208708   -1.3702354890    4.4445616088   -1.4288693270
 14         -5.3973198783   -1.3702360102    4.4445610034   -1.4288693814
 15         -5.3973192535   -1.3702362780    4.4445606917   -1.4288694190
 16         -5.3973188684   -1.3702364155    4.4445605313   -1.4288694437
 17         -5.3973186349   -1.3702364860    4.4445604489   -1.4288694595
 18         -5.3973184951   -1.3702365221    4.4445604065   -1.4288694693
 19         -5.3973184122   -1.3702365405    4.4445603848   -1.4288694753
Atom SCF converged after  19 iterations to a total energy of     -5.39731841

Atom SCF Calculation for S  : Z (AE atom) =  16 : Z (PS atom) =   6
Config String:
Orbitals (num,occ):  3     2.00 4.00 0.00
Orbitals   (num,l):  3        0    1    2
Real-space Grid (nr,dr,rmax): 1203    0.0066555740    8.0000000000
Spherical Bessel Basis (nsws,lmax,cutoff):   47    2  176.3951722778
Confining potential (l,width,scale):  0    3.0000000000  100.0000000000
Confining potential (l,width,scale):  1    3.0000000000  100.0000000000
Confining potential (l,width,scale):  2    3.0000000000  100.0000000000
  1        -12.4735062396   -1.0328741412   10.1554312477   -2.4512393157
  2         -9.9458301913   -2.4607392455    8.3041325857   -2.0306994528
  3        -10.1450417646   -2.2931184565    8.4831893826   -2.0812538287
  4        -10.1528335592   -2.2733105793    8.5050388867   -2.0896035179
  5        -10.1571940363   -2.2633716629    8.5160794258   -2.0939370707
  6        -10.1594380571   -2.2584938667    8.5215163935   -2.0961289008
  7        -10.1605856507   -2.2561081821    8.5241804044   -2.0972291378
  8        -10.1611799191   -2.2549395235    8.5254868240   -2.0977806248
  9        -10.1614918752   -2.2543658586    8.5261285885   -2.0980571586
 10        -10.1616572884   -2.2540839121    8.5264441898   -2.0981959233
 11        -10.1617455602   -2.2539453058    8.5265994231   -2.0982656006
 12        -10.1617928447   -2.2538772062    8.5266757320   -2.0983006047
 13        -10.1618182292   -2.2538437891    8.5267131983   -2.0983181961
 14        -10.1618318741   -2.2538274201    8.5267315620   -2.0983270391
 15        -10.1618392144   -2.2538194197    8.5267405433   -2.0983314852
 16        -10.1618431651   -2.2538155200    8.5267449245   -2.0983337210
 17        -10.1618452923   -2.2538136252    8.5267470551   -2.0983348455
 18        -10.1618464380   -2.2538127080    8.5267480875   -2.0983354110
 19        -10.1618470552   -2.2538122659    8.5267485856   -2.0983356955
 20        -10.1618473878   -2.2538120540    8.5267488248   -2.0983358386
 21        -10.1618475670   -2.2538119530    8.5267489389   -2.0983359106
 22        -10.1618476637   -2.2538119053    8.5267489929   -2.0983359468
Atom SCF converged after  22 iterations to a total energy of    -10.16184766

Atom SCF Calculation for O  : Z (AE atom) =   8 : Z (PS atom) =   6
Config String:
Orbitals (num,occ):  2     2.00 4.00
Orbitals   (num,l):  2        0    1
Real-space Grid (nr,dr,rmax): 1203    0.0066555740    8.0000000000
Spherical Bessel Basis (nsws,lmax,cutoff):   47    1  176.3951722778
Confining potential (l,width,scale):  0    3.0000000000  100.0000000000
Confining potential (l,width,scale):  1    3.0000000000  100.0000000000
  1         -1.8735052164   -7.5539365035   10.1554312477   -2.4512393157
  2        -16.0318313751   -3.1285771268   13.6395848164   -3.2358799643
  3        -15.9524020423   -3.0762819706   13.6967272503   -3.2536856837
  4        -15.8521515939   -3.0781493909   13.6951909330   -3.2561700440
  5        -15.8357139793   -3.0748501933   13.6988803334   -3.2580493133
  6        -15.8246052853   -3.0740779781   13.6997881576   -3.2588327446
  7        -15.8189019501   -3.0737449687   13.7001869911   -3.2592378801
  8        -15.8159785510   -3.0736026016   13.7003615168   -3.2594475790
  9        -15.8144776168   -3.0735437994   13.7004360379   -3.2595560735
 10        -15.8137058024   -3.0735207882   13.7004667348   -3.2596122456
 11        -15.8133083127   -3.0735125946   13.7004786868   -3.2596413656
 12        -15.8131032938   -3.0735102195   13.7004828997   -3.2596564858
 13        -15.8129973902   -3.0735099286   13.7004840891   -3.2596643505
 14        -15.8129426040   -3.0735102506   13.7004842061   -3.2596684489
 15        -15.8129142203   -3.0735106556   13.7004840157   -3.2596705887
 16        -15.8128994940   -3.0735109855   13.7004837906   -3.2596717080
 17        -15.8128918425   -3.0735112169   13.7004836103   -3.2596722946
 18        -15.8128878614   -3.0735113674   13.7004834848   -3.2596726026
 19        -15.8128857871   -3.0735114608   13.7004834035   -3.2596727646
 20        -15.8128847048   -3.0735115170   13.7004833533   -3.2596728500
 21        -15.8128841394   -3.0735115501   13.7004833231   -3.2596728951
 22        -15.8128838436   -3.0735115693   13.7004833054   -3.2596729190
 23        -15.8128836887   -3.0735115802   13.7004832951   -3.2596729316
 24        -15.8128836074   -3.0735115864   13.7004832893   -3.2596729383
Atom SCF converged after  24 iterations to a total energy of    -15.81288361

========================== Calculation in vacuum ==============================
= Adjusting the following parameters: 
= is_implicit_solvent: F
= is_include_apolar: F
= write_denskern: T
= write_tightbox_ngwfs: T
= restart read filename prefix: ""
= restart write filename prefix: "vacuum_"
===============================================================================

Determining parallel strategy ...
... using space-filling curve
... NGWF load balancing: max    163;  min    162;  average    163
... Projector load balancing: max     36;  min     32;  average     33
... done
Calculating direct Ion-Ion energy ...
Ion-Ion Energy        :    820471.57523748627864
Basis initialisation ...... NGWF spheres initialised
... Projector spheres initialised
... NGWF tight boxes initialised
... Tight-boxes gathered
... NGWF basis size (local,global):    1185417  47332323
... Nonlocal pseudopotential projector initialisation
... done

========================== Sparse matrix information ===========================
                        Overlap matrix filling:   6.71%
                        Density kernel filling: 100.00%
              NGWF-Proj overlap matrix filling:   1.78%
                    Hamiltonian matrix filling:   7.58%
                  NGWF diagonal matrix filling:   0.05%
                             KS matrix filling: 100.00% 
                           KSKS matrix filling: 100.00% 
================================================================================

Sparse matrix initialisation ... done

Generating smeared ion density ... done
Smeared ion self correction:     -14457.169564
Smeared ion non-self correction: -820423.407047
NGWF initialisation ...... done
============ Calculation of NGWF S^-1 using Hotelling algorithm ================ 
         Iteration  |  Frobenius norm and Maximum abs value    (of I-S*S_n^-1)   
               1       0.78471880E+02     0.98251021E+00
               2       0.76615830E+02     0.96550488E+00
               3       0.73613559E+02     0.93284592E+00
               4       0.69350463E+02     0.87234133E+00
               5       0.64042618E+02     0.76816514E+00
               6       0.58077861E+02     0.70609095E+00
               7       0.52081920E+02     0.67136213E+00
               8       0.46540753E+02     0.64338539E+00
               9       0.40477499E+02     0.60264325E+00
              10       0.32216372E+02     0.53229889E+00
              11       0.21658687E+02     0.42024701E+00
              12       0.11075804E+02     0.27371406E+00
              13       0.36550475E+01     0.13024843E+00
              14       0.57891791E+00     0.33002130E-01
              15       0.27969200E-01     0.26051832E-02
              16       0.16265979E-03     0.22213527E-04
              17       0.10707751E-07     0.20438051E-08
              18       0.94126921E-13     0.66613381E-14
================================================================================
Calculating local pseudopotential in open BC on the fine real space grid ...
... done

MG BCs: +ve charge blocks (gridpoints):     21079 (   16482794).
MG BCs: -ve charge blocks (gridpoints):      8040 (    1095983).
MG BCs:     Elided blocks (gridpoints):    194153 (  193124768).
MG BCs: Computational effort saved:  99.9862%.
MG BCs: Charge after coarse-graining:           -9.0002399.
MG DL_MG: Calling solver with defect correction order = 8
MG DL_MG: Solver finished
MG Hartree energy from (\int phi*rho dr):              1462.291098
MG Hartree energy from (\int eps (grad phi)^2 dr):     1461.690211
MG Discrepancy due to finite box and discretization:     -0.600887 (  -0.04109%)
MG Correction to account for finite box:                  0.454167
MG Remaining discrepancy, due to discretization:         -0.146719 (  -0.01003%)
 WARNING: xc_energy_potential using alternative initial XC functional PBE.
Up spin density kernel initialisation ... 
======= Optimisation of K by Palser-Manolopoulos canonical purification ======== 
         Iteration  |  Band structure energy |    c_n   
               1       -2577.17799027574029    0.5266848
               2       -2753.09905152137844    0.5170012
               3       -2933.00508192969846    0.5156264
               4       -3082.74179171394144    0.5293658
               5       -3174.47222800647342    0.5651645
               6       -3212.77211447429545    0.6096782
               7       -3225.81989118534784    0.6222268
               8       -3231.46578355525435    0.6235185
               9       -3234.17185296053140    0.6422012
              10       -3235.28385347948733    0.6698579
              11       -3235.72582498859401    0.6899940
              12       -3235.92470811980183    0.7002686
              13       -3236.02568022005335    0.6966129
              14       -3236.08292352880017    0.6808216
              15       -3236.11757434419178    0.6740167
              16       -3236.13670053202031    0.6859863
              17       -3236.14601217810286    0.6848948
              18       -3236.15098070418480    0.6393938
              19       -3236.15435193054145    0.5792624
              20       -3236.15641579147268    0.5285697
              21       -3236.15731175526253    0.5039963
              22       -3236.15761983837365    0.5000803
              23       -3236.15773517046182    0.5000000
              24       -3236.15775378674516    0.5000000
              25       -3236.15775418638350    0.5000147
              26       -3236.15775418656085    0.5000147
Termination criterion satisfied: band energy change below threshold.
Final occupancy bounds: [    0.00000000000000:    1.00000000000000]
Closest occupancy to 0.5:     1.00000000000000
================================================================================
... done

Writing density kernel to file "host_11121.vacuum_dkn" ... done

>>> Optimising kernel for current NGWFs:
   Initial electron number for spin 1:    7192.00000000
     Final electron number for spin 1:    7192.00000000

=================== Penalty functional idempotency correction ==================
 RMS occupancy error at iteration   1:  0.000000 (step -0.5000 Ne1=   7192.0000)
            Final RMS occupancy error   :  0.000000 (Ne1=   7192.0000)
               Final occupancy bounds   : [  0.0000,  1.0000]
================================================================================

................................................................................
<<<<<<<<<<<<<< LNV (Original version) density kernel optimisation >>>>>>>>>>>>>>
~~~~~~~~~~~~~~~~~~~~~~~~~~~~~~~~~~~~~~~~~~~~~~~~~~~~~~~~~~~~~~~~~~~~~~~~~~~~~~~~
   iter  |      energy (Eh)       | rms gradient |  commutator  |   dE (Eh)
MG BCs: +ve charge blocks (gridpoints):     31987 (   17617110).
MG BCs: -ve charge blocks (gridpoints):      8332 (    1129113).
MG BCs:     Elided blocks (gridpoints):    183239 (  191957322).
MG BCs: Computational effort saved:  99.9809%.
MG BCs: Charge after coarse-graining:           -9.0010267.
MG DL_MG: Calling solver with defect correction order = 8
MG DL_MG: Solver finished
MG Hartree energy from (\int phi*rho dr):              1415.586938
MG Hartree energy from (\int eps (grad phi)^2 dr):     1414.942354
MG Discrepancy due to finite box and discretization:     -0.644584 (  -0.04553%)
MG Correction to account for finite box:                  0.456171
MG Remaining discrepancy, due to discretization:         -0.188413 (  -0.01331%)
      ideal mu1:      -0.751197100122
             Q0:  -11472.981712926878
             G0:    -124.448277720933
   RMS gradient:       0.001714932949
MG BCs: +ve charge blocks (gridpoints):     31928 (   17695599).
MG BCs: -ve charge blocks (gridpoints):      8221 (    1106225).
MG BCs:     Elided blocks (gridpoints):    183299 (  191901721).
MG BCs: Computational effort saved:  99.9809%.
MG BCs: Charge after coarse-graining:           -9.0010495.
MG DL_MG: Calling solver with defect correction order = 8
MG DL_MG: Solver finished
MG Hartree energy from (\int phi*rho dr):              1437.507007
MG Hartree energy from (\int eps (grad phi)^2 dr):     1436.877154
MG Discrepancy due to finite box and discretization:     -0.629853 (  -0.04382%)
MG Correction to account for finite box:                  0.456677
MG Remaining discrepancy, due to discretization:         -0.173176 (  -0.01205%)
     Trial step:       0.500000000000
             Q1:  -11484.867980145733
 Quadratic coef:      50.337871641612
 Linear coef   :     -62.224138860467
           Qmin:  -11492.210989665537
Quadratic minimum step length (  0.309032428424) accepted
    Initial Ne1:    7192.00000000
      Final Ne1:    7192.00000000

=================== Penalty functional idempotency correction ==================
 RMS occupancy error at iteration   1:  0.003146 (step -0.4894 Ne1=   7192.0000)
 RMS occupancy error at iteration   2:  0.000022 (step -0.5000 Ne1=   7192.0000)
            Final RMS occupancy error   :  0.000000 (Ne1=   7192.0000)
               Final occupancy bounds   : [  0.0000,  1.0000]
================================================================================

    1        -1.147298171293E+04     1.7149E-03     1.5511E-03
MG BCs: +ve charge blocks (gridpoints):     31958 (   17667969).
MG BCs: -ve charge blocks (gridpoints):      8268 (    1114772).
MG BCs:     Elided blocks (gridpoints):    183269 (  191920804).
MG BCs: Computational effort saved:  99.9809%.
MG BCs: Charge after coarse-graining:           -9.0010405.
MG DL_MG: Calling solver with defect correction order = 8
MG DL_MG: Solver finished
MG Hartree energy from (\int phi*rho dr):              1422.621906
MG Hartree energy from (\int eps (grad phi)^2 dr):     1421.987212
MG Discrepancy due to finite box and discretization:     -0.634694 (  -0.04461%)
MG Correction to account for finite box:                  0.456413
MG Remaining discrepancy, due to discretization:         -0.178281 (  -0.01253%)
      ideal mu1:      -0.786841839575
             Q0:  -11492.584417420207
             G0:     -11.020783649473
   RMS gradient:       0.000506667456
MG BCs: +ve charge blocks (gridpoints):     31923 (   17684205).
MG BCs: -ve charge blocks (gridpoints):      8229 (    1107945).
MG BCs:     Elided blocks (gridpoints):    183304 (  191911395).
MG BCs: Computational effort saved:  99.9809%.
MG BCs: Charge after coarse-graining:           -9.0010455.
MG DL_MG: Calling solver with defect correction order = 8
MG DL_MG: Solver finished
MG Hartree energy from (\int phi*rho dr):              1428.238534
MG Hartree energy from (\int eps (grad phi)^2 dr):     1427.606870
MG Discrepancy due to finite box and discretization:     -0.631664 (  -0.04423%)
MG Correction to account for finite box:                  0.456369
MG Remaining discrepancy, due to discretization:         -0.175295 (  -0.01227%)
     Trial step:       0.393085504963
             Q1:  -11495.108683526632
 Quadratic coef:       1.807844199517
 Linear coef   :      -4.332110305943
           Qmin:  -11495.179660376965
Quadratic minimum step length (  0.470972489671) accepted
    Initial Ne1:    7191.99993491
      Final Ne1:    7192.00000000

=================== Penalty functional idempotency correction ==================
 RMS occupancy error at iteration   1:  0.001491 (step -0.4947 Ne1=   7192.0000)
 RMS occupancy error at iteration   2:  0.000006 (step -0.5000 Ne1=   7192.0000)
            Final RMS occupancy error   :  0.000000 (Ne1=   7192.0000)
               Final occupancy bounds   : [  0.0000,  1.0000]
================================================================================

    2        -1.149258441742E+04     5.0667E-04     4.5827E-04    -1.9603E+01
MG BCs: +ve charge blocks (gridpoints):     31920 (   17687359).
MG BCs: -ve charge blocks (gridpoints):      8223 (    1106627).
MG BCs:     Elided blocks (gridpoints):    183307 (  191909559).
MG BCs: Computational effort saved:  99.9809%.
MG BCs: Charge after coarse-graining:           -9.0010465.
MG DL_MG: Calling solver with defect correction order = 8
MG DL_MG: Solver finished
MG Hartree energy from (\int phi*rho dr):              1429.375213
MG Hartree energy from (\int eps (grad phi)^2 dr):     1428.744107
MG Discrepancy due to finite box and discretization:     -0.631106 (  -0.04415%)
MG Correction to account for finite box:                  0.456366
MG Remaining discrepancy, due to discretization:         -0.174740 (  -0.01222%)
      ideal mu1:      -0.805396346515
             Q0:  -11495.212834583595
             G0:      -1.830804439166
   RMS gradient:       0.000206591879
MG BCs: +ve charge blocks (gridpoints):     31927 (   17688455).
MG BCs: -ve charge blocks (gridpoints):      8221 (    1106699).
MG BCs:     Elided blocks (gridpoints):    183300 (  191908391).
MG BCs: Computational effort saved:  99.9809%.
MG BCs: Charge after coarse-graining:           -9.0010467.
MG DL_MG: Calling solver with defect correction order = 8
MG DL_MG: Solver finished
MG Hartree energy from (\int phi*rho dr):              1428.825694
MG Hartree energy from (\int eps (grad phi)^2 dr):     1428.194848
MG Discrepancy due to finite box and discretization:     -0.630846 (  -0.04415%)
MG Correction to account for finite box:                  0.456284
MG Remaining discrepancy, due to discretization:         -0.174562 (  -0.01222%)
     Trial step:       0.430270216174
             Q1:  -11495.679674452753
 Quadratic coef:       0.320900752655
 Linear coef   :      -0.787740621812
           Qmin:  -11495.696266986073
Quadratic minimum step length (  0.528109274957) accepted
    Initial Ne1:    7191.99997963
      Final Ne1:    7192.00000000

=================== Penalty functional idempotency correction ==================
 RMS occupancy error at iteration   1:  0.000565 (step -0.4979 Ne1=   7192.0000)
 RMS occupancy error at iteration   2:  0.000001 (step -0.5000 Ne1=   7192.0000)
            Final RMS occupancy error   :  0.000000 (Ne1=   7192.0000)
               Final occupancy bounds   : [  0.0000,  1.0000]
================================================================================

    3        -1.149521283458E+04     2.0659E-04     1.8686E-04    -2.6284E+00
MG BCs: +ve charge blocks (gridpoints):     31923 (   17688757).
MG BCs: -ve charge blocks (gridpoints):      8230 (    1106653).
MG BCs:     Elided blocks (gridpoints):    183304 (  191908135).
MG BCs: Computational effort saved:  99.9809%.
MG BCs: Charge after coarse-graining:           -9.0010467.
MG DL_MG: Calling solver with defect correction order = 8
MG DL_MG: Solver finished
MG Hartree energy from (\int phi*rho dr):              1428.705760
MG Hartree energy from (\int eps (grad phi)^2 dr):     1428.074963
MG Discrepancy due to finite box and discretization:     -0.630798 (  -0.04415%)
MG Correction to account for finite box:                  0.456267
MG Remaining discrepancy, due to discretization:         -0.174531 (  -0.01222%)
      ideal mu1:      -0.808331483210
             Q0:  -11495.700788550661
             G0:      -0.401720083678
   RMS gradient:       0.000096944293
MG BCs: +ve charge blocks (gridpoints):     31927 (   17689235).
MG BCs: -ve charge blocks (gridpoints):      8218 (    1106673).
MG BCs:     Elided blocks (gridpoints):    183300 (  191907637).
MG BCs: Computational effort saved:  99.9809%.
MG BCs: Charge after coarse-graining:           -9.0010467.
MG DL_MG: Calling solver with defect correction order = 8
MG DL_MG: Solver finished
MG Hartree energy from (\int phi*rho dr):              1429.722837
MG Hartree energy from (\int eps (grad phi)^2 dr):     1429.091933
MG Discrepancy due to finite box and discretization:     -0.630904 (  -0.04413%)
MG Correction to account for finite box:                  0.456207
MG Remaining discrepancy, due to discretization:         -0.174698 (  -0.01222%)
     Trial step:       0.476686156605
             Q1:  -11495.798330781399
 Quadratic coef:       0.093952171981
 Linear coef   :      -0.191494402720
           Qmin:  -11495.798365076833
Quadratic minimum step length (  0.485793616684) accepted
    Initial Ne1:    7191.99999576
      Final Ne1:    7192.00000000

=================== Penalty functional idempotency correction ==================
 RMS occupancy error at iteration   1:  0.000181 (step -0.4993 Ne1=   7192.0000)
            Final RMS occupancy error   :  0.000000 (Ne1=   7192.0000)
               Final occupancy bounds   : [ -0.0000,  1.0000]
================================================================================

    4        -1.149570078855E+04     9.6944E-05     8.7684E-05    -4.8795E-01
MG BCs: +ve charge blocks (gridpoints):     31927 (   17689257).
MG BCs: -ve charge blocks (gridpoints):      8218 (    1106663).
MG BCs:     Elided blocks (gridpoints):    183300 (  191907625).
MG BCs: Computational effort saved:  99.9809%.
MG BCs: Charge after coarse-graining:           -9.0010467.
MG DL_MG: Calling solver with defect correction order = 8
MG DL_MG: Solver finished
MG Hartree energy from (\int phi*rho dr):              1429.742490
MG Hartree energy from (\int eps (grad phi)^2 dr):     1429.111583
MG Discrepancy due to finite box and discretization:     -0.630907 (  -0.04413%)
MG Correction to account for finite box:                  0.456205
MG Remaining discrepancy, due to discretization:         -0.174701 (  -0.01222%)
      ideal mu1:      -0.808371195771
             Q0:  -11495.798790358589
             G0:      -0.105427948704
   RMS gradient:       0.000049807880
MG BCs: +ve charge blocks (gridpoints):     31928 (   17688969).
MG BCs: -ve charge blocks (gridpoints):      8220 (    1106791).
MG BCs:     Elided blocks (gridpoints):    183299 (  191907785).
MG BCs: Computational effort saved:  99.9809%.
MG BCs: Charge after coarse-graining:           -9.0010464.
MG DL_MG: Calling solver with defect correction order = 8
MG DL_MG: Solver finished
MG Hartree energy from (\int phi*rho dr):              1429.498246
MG Hartree energy from (\int eps (grad phi)^2 dr):     1428.867213
MG Discrepancy due to finite box and discretization:     -0.631033 (  -0.04414%)
MG Correction to account for finite box:                  0.456197
MG Remaining discrepancy, due to discretization:         -0.174837 (  -0.01223%)
     Trial step:       0.481218341338
             Q1:  -11495.823346923571
 Quadratic coef:       0.026177297625
 Linear coef   :      -0.050733862606
           Qmin:  -11495.823372009949
Quadratic minimum step length (  0.466321343843) accepted
    Initial Ne1:    7192.00166983
      Final Ne1:    7192.00000000

=================== Penalty functional idempotency correction ==================
 RMS occupancy error at iteration   1:  0.000062 (step -0.4997 Ne1=   7192.0000)
            Final RMS occupancy error   :  0.000000 (Ne1=   7192.0000)
               Final occupancy bounds   : [ -0.0000,  1.0000]
================================================================================

    5        -1.149579879036E+04     4.9808E-05     4.5050E-05    -9.8002E-02
MG BCs: +ve charge blocks (gridpoints):     31928 (   17688944).
MG BCs: -ve charge blocks (gridpoints):      8220 (    1106799).
MG BCs:     Elided blocks (gridpoints):    183299 (  191907802).
MG BCs: Computational effort saved:  99.9809%.
MG BCs: Charge after coarse-graining:           -9.0010465.
MG DL_MG: Calling solver with defect correction order = 8
MG DL_MG: Solver finished
MG Hartree energy from (\int phi*rho dr):              1429.505800
MG Hartree energy from (\int eps (grad phi)^2 dr):     1428.874771
MG Discrepancy due to finite box and discretization:     -0.631029 (  -0.04414%)
MG Correction to account for finite box:                  0.456197
MG Remaining discrepancy, due to discretization:         -0.174832 (  -0.01223%)
      ideal mu1:      -0.807914647245
             Q0:  -11495.823419461260
             G0:      -0.025174204560
   RMS gradient:       0.000024363449
MG BCs: +ve charge blocks (gridpoints):     31931 (   17688694).
MG BCs: -ve charge blocks (gridpoints):      8219 (    1106995).
MG BCs:     Elided blocks (gridpoints):    183296 (  191907856).
MG BCs: Computational effort saved:  99.9809%.
MG BCs: Charge after coarse-graining:           -9.0010463.
MG DL_MG: Calling solver with defect correction order = 8
MG DL_MG: Solver finished
MG Hartree energy from (\int phi*rho dr):              1429.012544
MG Hartree energy from (\int eps (grad phi)^2 dr):     1428.381488
MG Discrepancy due to finite box and discretization:     -0.631056 (  -0.04416%)
MG Correction to account for finite box:                  0.456214
MG Remaining discrepancy, due to discretization:         -0.174843 (  -0.01224%)
     Trial step:       0.473711287194
             Q1:  -11495.830722761108
 Quadratic coef:       0.004622004997
 Linear coef   :      -0.011925304846
           Qmin:  -11495.831111626010
Quadratic minimum step length (  0.611114820547) accepted
    Initial Ne1:    7192.00079933
      Final Ne1:    7192.00000000

=================== Penalty functional idempotency correction ==================
 RMS occupancy error at iteration   1:  0.000026 (step -0.4999 Ne1=   7192.0000)
            Final RMS occupancy error   :  0.000000 (Ne1=   7192.0000)
               Final occupancy bounds   : [ -0.0000,  1.0000]
================================================================================

    6        -1.149582341946E+04     2.4363E-05     2.2036E-05    -2.4629E-02
MG BCs: +ve charge blocks (gridpoints):     31932 (   17688635).
MG BCs: -ve charge blocks (gridpoints):      8219 (    1107022).
MG BCs:     Elided blocks (gridpoints):    183295 (  191907888).
MG BCs: Computational effort saved:  99.9809%.
MG BCs: Charge after coarse-graining:           -9.0010463.
MG DL_MG: Calling solver with defect correction order = 8
MG DL_MG: Solver finished
MG Hartree energy from (\int phi*rho dr):              1428.869306
MG Hartree energy from (\int eps (grad phi)^2 dr):     1428.238242
MG Discrepancy due to finite box and discretization:     -0.631064 (  -0.04417%)
MG Correction to account for finite box:                  0.456218
MG Remaining discrepancy, due to discretization:         -0.174846 (  -0.01224%)
      ideal mu1:      -0.807717379839
             Q0:  -11495.831117817434
             G0:      -0.009838247230
   RMS gradient:       0.000015247954
MG BCs: +ve charge blocks (gridpoints):     31931 (   17689035).
MG BCs: -ve charge blocks (gridpoints):      8219 (    1106786).
MG BCs:     Elided blocks (gridpoints):    183296 (  191907724).
MG BCs: Computational effort saved:  99.9809%.
MG BCs: Charge after coarse-graining:           -9.0010464.
MG DL_MG: Calling solver with defect correction order = 8
MG DL_MG: Solver finished
MG Hartree energy from (\int phi*rho dr):              1429.378803
MG Hartree energy from (\int eps (grad phi)^2 dr):     1428.747749
MG Discrepancy due to finite box and discretization:     -0.631054 (  -0.04415%)
MG Correction to account for finite box:                  0.456205
MG Remaining discrepancy, due to discretization:         -0.174849 (  -0.01223%)
     Trial step:       0.538044596911
             Q1:  -11495.833531119162
 Quadratic coef:       0.002880114036
 Linear coef   :      -0.005293415765
           Qmin:  -11495.833550034537
Quadratic minimum step length (  0.494441142947) accepted
    Initial Ne1:    7192.00005598
      Final Ne1:    7192.00000000

=================== Penalty functional idempotency correction ==================
 RMS occupancy error at iteration   1:  0.000001 (step -0.5000 Ne1=   7192.0000)
            Final RMS occupancy error   :  0.000000 (Ne1=   7192.0000)
               Final occupancy bounds   : [  0.0000,  1.0000]
================================================================================

    7        -1.149583111782E+04     1.5248E-05     1.3791E-05    -7.6984E-03
MG BCs: +ve charge blocks (gridpoints):     31931 (   17688994).
MG BCs: -ve charge blocks (gridpoints):      8219 (    1106811).
MG BCs:     Elided blocks (gridpoints):    183296 (  191907740).
MG BCs: Computational effort saved:  99.9809%.
MG BCs: Charge after coarse-graining:           -9.0010464.
MG DL_MG: Calling solver with defect correction order = 8
MG DL_MG: Solver finished
MG Hartree energy from (\int phi*rho dr):              1429.337474
MG Hartree energy from (\int eps (grad phi)^2 dr):     1428.706419
MG Discrepancy due to finite box and discretization:     -0.631055 (  -0.04415%)
MG Correction to account for finite box:                  0.456207
MG Remaining discrepancy, due to discretization:         -0.174849 (  -0.01223%)
      ideal mu1:      -0.808053404038
             Q0:  -11495.833550095907
             G0:      -0.005206203751
   RMS gradient:       0.000011092542
MG BCs: +ve charge blocks (gridpoints):     31930 (   17689079).
MG BCs: -ve charge blocks (gridpoints):      8219 (    1106750).
MG BCs:     Elided blocks (gridpoints):    183297 (  191907716).
MG BCs: Computational effort saved:  99.9809%.
MG BCs: Charge after coarse-graining:           -9.0010465.
MG DL_MG: Calling solver with defect correction order = 8
MG DL_MG: Solver finished
MG Hartree energy from (\int phi*rho dr):              1429.400055
MG Hartree energy from (\int eps (grad phi)^2 dr):     1428.769006
MG Discrepancy due to finite box and discretization:     -0.631049 (  -0.04415%)
MG Correction to account for finite box:                  0.456206
MG Remaining discrepancy, due to discretization:         -0.174842 (  -0.01223%)
     Trial step:       0.515782304323
             Q1:  -11495.835489091813
 Quadratic coef:       0.000746271862
 Linear coef   :      -0.002685267768
           Qmin:  -11495.835965657630
Quadratic minimum step length (  0.927955124010) accepted
    Initial Ne1:    7192.00005524
      Final Ne1:    7192.00000000

=================== Penalty functional idempotency correction ==================
 RMS occupancy error at iteration   1:  0.000011 (step -0.4997 Ne1=   7192.0000)
            Final RMS occupancy error   :  0.000000 (Ne1=   7192.0000)
               Final occupancy bounds   : [ -0.0000,  1.0000]
================================================================================

    8        -1.149583355010E+04     1.1093E-05     1.0033E-05    -2.4323E-03
MG BCs: +ve charge blocks (gridpoints):     31929 (   17689117).
MG BCs: -ve charge blocks (gridpoints):      8219 (    1106735).
MG BCs:     Elided blocks (gridpoints):    183298 (  191907693).
MG BCs: Computational effort saved:  99.9809%.
MG BCs: Charge after coarse-graining:           -9.0010465.
MG DL_MG: Calling solver with defect correction order = 8
MG DL_MG: Solver finished
MG Hartree energy from (\int phi*rho dr):              1429.449484
MG Hartree energy from (\int eps (grad phi)^2 dr):     1428.818440
MG Discrepancy due to finite box and discretization:     -0.631043 (  -0.04415%)
MG Correction to account for finite box:                  0.456206
MG Remaining discrepancy, due to discretization:         -0.174837 (  -0.01223%)
      ideal mu1:      -0.808117328541
             Q0:  -11495.835963479592
             G0:      -0.006163533350
   RMS gradient:       0.000012080257
MG BCs: +ve charge blocks (gridpoints):     31929 (   17688981).
MG BCs: -ve charge blocks (gridpoints):      8219 (    1106824).
MG BCs:     Elided blocks (gridpoints):    183298 (  191907740).
MG BCs: Computational effort saved:  99.9809%.
MG BCs: Charge after coarse-graining:           -9.0010465.
MG DL_MG: Calling solver with defect correction order = 8
MG DL_MG: Solver finished
MG Hartree energy from (\int phi*rho dr):              1429.168284
MG Hartree energy from (\int eps (grad phi)^2 dr):     1428.537265
MG Discrepancy due to finite box and discretization:     -0.631018 (  -0.04415%)
MG Correction to account for finite box:                  0.456195
MG Remaining discrepancy, due to discretization:         -0.174823 (  -0.01223%)
     Trial step:       0.691825723843
             Q1:  -11495.838471474359
 Quadratic coef:       0.001756096155
 Linear coef   :      -0.004264090921
           Qmin:  -11495.838551958494
Quadratic minimum step length (  0.839933445488) accepted
    Initial Ne1:    7192.00010101
      Final Ne1:    7192.00000000

=================== Penalty functional idempotency correction ==================
 RMS occupancy error at iteration   1:  0.000040 (step -0.4987 Ne1=   7192.0000)
            Final RMS occupancy error   :  0.000000 (Ne1=   7192.0000)
               Final occupancy bounds   : [ -0.0000,  1.0000]
================================================================================

    9        -1.149583596348E+04     1.2080E-05     1.0926E-05    -2.4134E-03
MG BCs: +ve charge blocks (gridpoints):     31930 (   17688957).
MG BCs: -ve charge blocks (gridpoints):      8219 (    1106852).
MG BCs:     Elided blocks (gridpoints):    183297 (  191907736).
MG BCs: Computational effort saved:  99.9809%.
MG BCs: Charge after coarse-graining:           -9.0010464.
MG DL_MG: Calling solver with defect correction order = 8
MG DL_MG: Solver finished
MG Hartree energy from (\int phi*rho dr):              1429.107502
MG Hartree energy from (\int eps (grad phi)^2 dr):     1428.476489
MG Discrepancy due to finite box and discretization:     -0.631013 (  -0.04415%)
MG Correction to account for finite box:                  0.456193
MG Remaining discrepancy, due to discretization:         -0.174820 (  -0.01223%)
      ideal mu1:      -0.807884637069
   10        -1.149583854920E+04     1.1606E-05     1.0497E-05    -2.5857E-03
Finished density kernel iterations (  10)

Writing density kernel to file "host_11121.vacuum_dkn" ... done


>>> Density kernel optimised for the current NGWF basis:
     ~~~~~~~~~~~~~~~~~~~~~~~~~~~~~~~~~~~~~~~~~~~~~~~~~~~~~~~~~~~
     Total energy                =  -1.14958385491959E+04  Eh
     Estimated bandgap           =  -2.3787E-01  Eh
     RMS occupancy error         =   4.8587E-08
     [H,K] commutator            =   1.0497E-05
     Occupancy bounds            = [ -0.000:  1.000]
     ~~~~~~~~~~~~~~~~~~~~~~~~~~~~~~~~~~~~~~~~~~~~~~~~~~~~~~~~~~~




################################################################################
########################### NGWF CG iteration  001 #############################
################################################################################
****** Reciprocal space K.E. preconditioning with k_zero =  3.5000 a0^-1 *******

>>> Checking for convergence of NGWFs:   NOT CONVERGED
  ========================================================================
         NGWF RMS gradient =  1.6228E-03 >  2.0000E-06  | above tolerance
  ========================================================================

>>> Improving NGWFs using line search:
============ Calculation of NGWF S^-1 using Hotelling algorithm ================ 
         Iteration  |  Frobenius norm and Maximum abs value    (of I-S*S_n^-1)   
               1       0.23473579E+00     0.62485689E-02
               2       0.12815873E-02     0.53773125E-04
               3       0.64240016E-07     0.43491611E-08
               4       0.13084303E-12     0.78825835E-14
================================================================================
MG BCs: +ve charge blocks (gridpoints):     31326 (   17634223).
MG BCs: -ve charge blocks (gridpoints):      8237 (    1103343).
MG BCs:     Elided blocks (gridpoints):    183902 (  191965979).
MG BCs: Computational effort saved:  99.9812%.
MG BCs: Charge after coarse-graining:           -9.0010513.
MG DL_MG: Calling solver with defect correction order = 8
MG DL_MG: Solver finished
MG Hartree energy from (\int phi*rho dr):              1401.309964
MG Hartree energy from (\int eps (grad phi)^2 dr):     1400.680281
MG Discrepancy due to finite box and discretization:     -0.629682 (  -0.04494%)
MG Correction to account for finite box:                  0.456185
MG Remaining discrepancy, due to discretization:         -0.173497 (  -0.01238%)
============ Calculation of NGWF S^-1 using Hotelling algorithm ================ 
         Iteration  |  Frobenius norm and Maximum abs value    (of I-S*S_n^-1)   
               1       0.21776850E+01     0.47639179E-01
               2       0.97962604E-01     0.31248149E-02
               3       0.27720818E-03     0.15311439E-04
               4       0.39989604E-08     0.43723014E-09
               5       0.11505886E-12     0.48849813E-14
================================================================================
------------------------------- NGWF line search -------------------------------
RMS gradient                =       0.00162277562404
Trial step length           =               0.122474
Gradient along search dir.  =       -290.93712994638
Functional at step 0        =  -11495.83854919590522
Functional at step 1        =  -11528.72302506410051
Functional predicted        =  -11611.35096272155351
Selected quadratic step     =               0.794071
--------------------------- NGWF line search finished --------------------------
                                               
Writing NGWFs to file "host_11121.vacuum_tightbox_ngwfs"....  done

>>> Optimising kernel for current NGWFs:
   Initial electron number for spin 1:    7237.87531077
     Final electron number for spin 1:    7192.00000000

=================== Penalty functional idempotency correction ==================
 RMS occupancy error at iteration   1:  0.005226 (step -0.4827 Ne1=   7192.0000)
 RMS occupancy error at iteration   2:  0.000097 (step -0.5004 Ne1=   7192.0000)
            Final RMS occupancy error   :  0.000000 (Ne1=   7192.0000)
               Final occupancy bounds   : [  0.0000,  1.0000]
================================================================================

................................................................................
<<<<<<<<<<<<<< LNV (Original version) density kernel optimisation >>>>>>>>>>>>>>
~~~~~~~~~~~~~~~~~~~~~~~~~~~~~~~~~~~~~~~~~~~~~~~~~~~~~~~~~~~~~~~~~~~~~~~~~~~~~~~~
   iter  |      energy (Eh)       | rms gradient |  commutator  |   dE (Eh)
MG BCs: +ve charge blocks (gridpoints):     25713 (   17425804).
MG BCs: -ve charge blocks (gridpoints):      8385 (    1073718).
MG BCs:     Elided blocks (gridpoints):    189519 (  192204023).
MG BCs: Computational effort saved:  99.9838%.
MG BCs: Charge after coarse-graining:           -9.0007606.
MG DL_MG: Calling solver with defect correction order = 8
MG DL_MG: Solver finished
MG Hartree energy from (\int phi*rho dr):              1271.027935
MG Hartree energy from (\int eps (grad phi)^2 dr):     1270.400924
MG Discrepancy due to finite box and discretization:     -0.627011 (  -0.04933%)
MG Correction to account for finite box:                  0.456180
MG Remaining discrepancy, due to discretization:         -0.170831 (  -0.01344%)
      ideal mu1:      -0.749385398408
             Q0:  -11610.693870367948
             G0:      -9.648610059637
   RMS gradient:       0.000477512865
MG BCs: +ve charge blocks (gridpoints):     25775 (   17440306).
MG BCs: -ve charge blocks (gridpoints):      8364 (    1069909).
MG BCs:     Elided blocks (gridpoints):    189457 (  192193330).
MG BCs: Computational effort saved:  99.9838%.
MG BCs: Charge after coarse-graining:           -9.0007565.
MG DL_MG: Calling solver with defect correction order = 8
MG DL_MG: Solver finished
MG Hartree energy from (\int phi*rho dr):              1285.375759
MG Hartree energy from (\int eps (grad phi)^2 dr):     1284.744046
MG Discrepancy due to finite box and discretization:     -0.631712 (  -0.04915%)
MG Correction to account for finite box:                  0.455633
MG Remaining discrepancy, due to discretization:         -0.176080 (  -0.01370%)
     Trial step:       0.762290996867
             Q1:  -11609.611293443129
 Quadratic coef:       8.437625505559
 Linear coef   :      -7.355048580741
           Qmin:  -11612.296712885354
Quadratic minimum step length (  0.332243195134) accepted
    Initial Ne1:    7191.99895875
      Final Ne1:    7192.00000000

=================== Penalty functional idempotency correction ==================
 RMS occupancy error at iteration   1:  0.000357 (step -0.4985 Ne1=   7192.0000)
 RMS occupancy error at iteration   2:  0.000000 (step -0.5000 Ne1=   7192.0000)
            Final RMS occupancy error   :  0.000000 (Ne1=   7192.0000)
               Final occupancy bounds   : [  0.0000,  1.0000]
================================================================================

    1        -1.161069387037E+04     4.7751E-04     4.3190E-04
MG BCs: +ve charge blocks (gridpoints):     25737 (   17432151).
MG BCs: -ve charge blocks (gridpoints):      8376 (    1072197).
MG BCs:     Elided blocks (gridpoints):    189495 (  192199197).
MG BCs: Computational effort saved:  99.9838%.
MG BCs: Charge after coarse-graining:           -9.0007587.
MG DL_MG: Calling solver with defect correction order = 8
MG DL_MG: Solver finished
MG Hartree energy from (\int phi*rho dr):              1276.210070
MG Hartree energy from (\int eps (grad phi)^2 dr):     1275.581108
MG Discrepancy due to finite box and discretization:     -0.628963 (  -0.04928%)
MG Correction to account for finite box:                  0.455925
MG Remaining discrepancy, due to discretization:         -0.173038 (  -0.01356%)
      ideal mu1:      -0.756047834623
             Q0:  -11612.275435501593
             G0:      -0.874960743568
   RMS gradient:       0.000144341669
MG BCs: +ve charge blocks (gridpoints):     25740 (   17431965).
MG BCs: -ve charge blocks (gridpoints):      8376 (    1072928).
MG BCs:     Elided blocks (gridpoints):    189492 (  192198652).
MG BCs: Computational effort saved:  99.9838%.
MG BCs: Charge after coarse-graining:           -9.0007585.
MG DL_MG: Calling solver with defect correction order = 8
MG DL_MG: Solver finished
MG Hartree energy from (\int phi*rho dr):              1276.807905
MG Hartree energy from (\int eps (grad phi)^2 dr):     1276.178737
MG Discrepancy due to finite box and discretization:     -0.629168 (  -0.04928%)
MG Correction to account for finite box:                  0.455876
MG Remaining discrepancy, due to discretization:         -0.173292 (  -0.01357%)
     Trial step:       0.503255398799
             Q1:  -11612.473259352380
 Quadratic coef:       0.242504867150
 Linear coef   :      -0.440328717938
           Qmin:  -11612.475317448418
Quadratic minimum step length (  0.456893519608) accepted
    Initial Ne1:    7191.99986915
      Final Ne1:    7192.00000000

=================== Penalty functional idempotency correction ==================
 RMS occupancy error at iteration   1:  0.000137 (step -0.4995 Ne1=   7192.0000)
            Final RMS occupancy error   :  0.000000 (Ne1=   7192.0000)
               Final occupancy bounds   : [ -0.0000,  1.0000]
================================================================================

    2        -1.161227543550E+04     1.4434E-04     1.3055E-04    -1.5816E+00
MG BCs: +ve charge blocks (gridpoints):     25739 (   17431997).
MG BCs: -ve charge blocks (gridpoints):      8374 (    1072844).
MG BCs:     Elided blocks (gridpoints):    189493 (  192198704).
MG BCs: Computational effort saved:  99.9838%.
MG BCs: Charge after coarse-graining:           -9.0007585.
MG DL_MG: Calling solver with defect correction order = 8
MG DL_MG: Solver finished
MG Hartree energy from (\int phi*rho dr):              1276.753356
MG Hartree energy from (\int eps (grad phi)^2 dr):     1276.124208
MG Discrepancy due to finite box and discretization:     -0.629148 (  -0.04928%)
MG Correction to account for finite box:                  0.455881
MG Remaining discrepancy, due to discretization:         -0.173267 (  -0.01357%)
      ideal mu1:      -0.756767462281
             Q0:  -11612.475706728641
             G0:      -0.171782994422
   RMS gradient:       0.000063650451
MG BCs: +ve charge blocks (gridpoints):     25738 (   17431261).
MG BCs: -ve charge blocks (gridpoints):      8378 (    1073273).
MG BCs:     Elided blocks (gridpoints):    189494 (  192199011).
MG BCs: Computational effort saved:  99.9838%.
MG BCs: Charge after coarse-graining:           -9.0007585.
MG DL_MG: Calling solver with defect correction order = 8
MG DL_MG: Solver finished
MG Hartree energy from (\int phi*rho dr):              1276.160915
MG Hartree energy from (\int eps (grad phi)^2 dr):     1275.531877
MG Discrepancy due to finite box and discretization:     -0.629037 (  -0.04929%)
MG Correction to account for finite box:                  0.455858
MG Remaining discrepancy, due to discretization:         -0.173179 (  -0.01357%)
     Trial step:       0.479514473628
             Q1:  -11612.525855714572
 Quadratic coef:       0.032223446218
 Linear coef   :      -0.082372432148
           Qmin:  -11612.528348658465
Quadratic minimum step length (  0.612888720461) accepted
    Initial Ne1:    7192.00053518
      Final Ne1:    7192.00000000

=================== Penalty functional idempotency correction ==================
 RMS occupancy error at iteration   1:  0.000069 (step -0.4997 Ne1=   7192.0000)
            Final RMS occupancy error   :  0.000000 (Ne1=   7192.0000)
               Final occupancy bounds   : [ -0.0000,  1.0000]
================================================================================

    3        -1.161247570673E+04     6.3650E-05     5.7570E-05    -2.0027E-01
MG BCs: +ve charge blocks (gridpoints):     25738 (   17431051).
MG BCs: -ve charge blocks (gridpoints):      8379 (    1073395).
MG BCs:     Elided blocks (gridpoints):    189494 (  192199099).
MG BCs: Computational effort saved:  99.9838%.
MG BCs: Charge after coarse-graining:           -9.0007585.
MG DL_MG: Calling solver with defect correction order = 8
MG DL_MG: Solver finished
MG Hartree energy from (\int phi*rho dr):              1275.995772
MG Hartree energy from (\int eps (grad phi)^2 dr):     1275.366765
MG Discrepancy due to finite box and discretization:     -0.629007 (  -0.04930%)
MG Correction to account for finite box:                  0.455852
MG Remaining discrepancy, due to discretization:         -0.173155 (  -0.01357%)
      ideal mu1:      -0.755811921518
             Q0:  -11612.528450117330
             G0:      -0.033769394786
   RMS gradient:       0.000028206012
MG BCs: +ve charge blocks (gridpoints):     25737 (   17430760).
MG BCs: -ve charge blocks (gridpoints):      8379 (    1073426).
MG BCs:     Elided blocks (gridpoints):    189495 (  192199359).
MG BCs: Computational effort saved:  99.9838%.
MG BCs: Charge after coarse-graining:           -9.0007586.
MG DL_MG: Calling solver with defect correction order = 8
MG DL_MG: Solver finished
MG Hartree energy from (\int phi*rho dr):              1276.008177
MG Hartree energy from (\int eps (grad phi)^2 dr):     1275.379249
MG Discrepancy due to finite box and discretization:     -0.628928 (  -0.04929%)
MG Correction to account for finite box:                  0.455860
MG Remaining discrepancy, due to discretization:         -0.173069 (  -0.01356%)
     Trial step:       0.542115312627
             Q1:  -11612.537342874100
 Quadratic coef:       0.009414149241
 Linear coef   :      -0.018306906012
           Qmin:  -11612.537350093291
Quadratic minimum step length (  0.527103077599) accepted
    Initial Ne1:    7192.00024301
      Final Ne1:    7192.00000000

=================== Penalty functional idempotency correction ==================
 RMS occupancy error at iteration   1:  0.000018 (step -0.4999 Ne1=   7192.0000)
            Final RMS occupancy error   :  0.000000 (Ne1=   7192.0000)
               Final occupancy bounds   : [ -0.0000,  1.0000]
================================================================================

    4        -1.161252845012E+04     2.8206E-05     2.5512E-05    -5.2743E-02
MG BCs: +ve charge blocks (gridpoints):     25737 (   17430769).
MG BCs: -ve charge blocks (gridpoints):      8379 (    1073427).
MG BCs:     Elided blocks (gridpoints):    189495 (  192199349).
MG BCs: Computational effort saved:  99.9838%.
MG BCs: Charge after coarse-graining:           -9.0007586.
MG DL_MG: Calling solver with defect correction order = 8
MG DL_MG: Solver finished
MG Hartree energy from (\int phi*rho dr):              1276.007813
MG Hartree energy from (\int eps (grad phi)^2 dr):     1275.378882
MG Discrepancy due to finite box and discretization:     -0.628930 (  -0.04929%)
MG Correction to account for finite box:                  0.455859
MG Remaining discrepancy, due to discretization:         -0.173071 (  -0.01356%)
      ideal mu1:      -0.755839465858
             Q0:  -11612.537355123670
             G0:      -0.010175984969
   RMS gradient:       0.000015504090
MG BCs: +ve charge blocks (gridpoints):     25737 (   17431205).
MG BCs: -ve charge blocks (gridpoints):      8379 (    1073265).
MG BCs:     Elided blocks (gridpoints):    189495 (  192199075).
MG BCs: Computational effort saved:  99.9838%.
MG BCs: Charge after coarse-graining:           -9.0007585.
MG DL_MG: Calling solver with defect correction order = 8
MG DL_MG: Solver finished
MG Hartree energy from (\int phi*rho dr):              1276.337671
MG Hartree energy from (\int eps (grad phi)^2 dr):     1275.708762
MG Discrepancy due to finite box and discretization:     -0.628909 (  -0.04927%)
MG Correction to account for finite box:                  0.455855
MG Remaining discrepancy, due to discretization:         -0.173053 (  -0.01356%)
     Trial step:       0.534556498136
             Q1:  -11612.539922992000
 Quadratic coef:       0.002871770559
 Linear coef   :      -0.005439638890
           Qmin:  -11612.539931032037
Quadratic minimum step length (  0.506272046548) accepted
    Initial Ne1:    7192.00008383
      Final Ne1:    7192.00000000

=================== Penalty functional idempotency correction ==================
 RMS occupancy error at iteration   1:  0.000007 (step -0.5000 Ne1=   7192.0000)
            Final RMS occupancy error   :  0.000000 (Ne1=   7192.0000)
               Final occupancy bounds   : [ -0.0000,  1.0000]
================================================================================

    5        -1.161253735512E+04     1.5504E-05     1.4023E-05    -8.9050E-03
MG BCs: +ve charge blocks (gridpoints):     25737 (   17431184).
MG BCs: -ve charge blocks (gridpoints):      8379 (    1073274).
MG BCs:     Elided blocks (gridpoints):    189495 (  192199087).
MG BCs: Computational effort saved:  99.9838%.
MG BCs: Charge after coarse-graining:           -9.0007585.
MG DL_MG: Calling solver with defect correction order = 8
MG DL_MG: Solver finished
MG Hartree energy from (\int phi*rho dr):              1276.320193
MG Hartree energy from (\int eps (grad phi)^2 dr):     1275.691284
MG Discrepancy due to finite box and discretization:     -0.628910 (  -0.04928%)
MG Correction to account for finite box:                  0.455856
MG Remaining discrepancy, due to discretization:         -0.173054 (  -0.01356%)
      ideal mu1:      -0.756085665672
             Q0:  -11612.539931704639
             G0:      -0.002333565016
   RMS gradient:       0.000007424531
MG BCs: +ve charge blocks (gridpoints):     25737 (   17431149).
MG BCs: -ve charge blocks (gridpoints):      8378 (    1073313).
MG BCs:     Elided blocks (gridpoints):    189495 (  192199083).
MG BCs: Computational effort saved:  99.9838%.
MG BCs: Charge after coarse-graining:           -9.0007585.
MG DL_MG: Calling solver with defect correction order = 8
MG DL_MG: Solver finished
MG Hartree energy from (\int phi*rho dr):              1276.288594
MG Hartree energy from (\int eps (grad phi)^2 dr):     1275.659692
MG Discrepancy due to finite box and discretization:     -0.628902 (  -0.04928%)
MG Correction to account for finite box:                  0.455851
MG Remaining discrepancy, due to discretization:         -0.173051 (  -0.01356%)
     Trial step:       0.520222079796
             Q1:  -11612.540611116565
 Quadratic coef:       0.000534560120
 Linear coef   :      -0.001213972046
           Qmin:  -11612.540620929327
Quadratic minimum step length (  0.590705365676) accepted
    Initial Ne1:    7192.00002580
      Final Ne1:    7192.00000000

=================== Penalty functional idempotency correction ==================
 RMS occupancy error at iteration   1:  0.000003 (step -0.5000 Ne1=   7192.0000)
            Final RMS occupancy error   :  0.000000 (Ne1=   7192.0000)
               Final occupancy bounds   : [  0.0000,  1.0000]
================================================================================

    6        -1.161253993170E+04     7.4245E-06     6.7153E-06    -2.5766E-03
MG BCs: +ve charge blocks (gridpoints):     25737 (   17431138).
MG BCs: -ve charge blocks (gridpoints):      8378 (    1073323).
MG BCs:     Elided blocks (gridpoints):    189495 (  192199084).
MG BCs: Computational effort saved:  99.9838%.
MG BCs: Charge after coarse-graining:           -9.0007585.
MG DL_MG: Calling solver with defect correction order = 8
MG DL_MG: Solver finished
MG Hartree energy from (\int phi*rho dr):              1276.284317
MG Hartree energy from (\int eps (grad phi)^2 dr):     1275.655416
MG Discrepancy due to finite box and discretization:     -0.628901 (  -0.04928%)
MG Correction to account for finite box:                  0.455850
MG Remaining discrepancy, due to discretization:         -0.173051 (  -0.01356%)
      ideal mu1:      -0.756060205826
             Q0:  -11612.540621004067
             G0:      -0.000768392964
   RMS gradient:       0.000004261322
MG BCs: +ve charge blocks (gridpoints):     25738 (   17431017).
MG BCs: -ve charge blocks (gridpoints):      8379 (    1073352).
MG BCs:     Elided blocks (gridpoints):    189494 (  192199176).
MG BCs: Computational effort saved:  99.9838%.
MG BCs: Charge after coarse-graining:           -9.0007585.
MG DL_MG: Calling solver with defect correction order = 8
MG DL_MG: Solver finished
MG Hartree energy from (\int phi*rho dr):              1276.220342
MG Hartree energy from (\int eps (grad phi)^2 dr):     1275.591438
MG Discrepancy due to finite box and discretization:     -0.628905 (  -0.04928%)
MG Correction to account for finite box:                  0.455853
MG Remaining discrepancy, due to discretization:         -0.173052 (  -0.01356%)
     Trial step:       0.554344634572
             Q1:  -11612.540791410021
 Quadratic coef:       0.000255548563
 Linear coef   :      -0.000425954517
           Qmin:  -11612.540798501886
Quadratic minimum step length (  0.461997513378) accepted
    Initial Ne1:    7191.99999938
      Final Ne1:    7192.00000000

=================== Penalty functional idempotency correction ==================
 RMS occupancy error at iteration   1:  0.000000 (step -0.5000 Ne1=   7192.0000)
            Final RMS occupancy error   :  0.000000 (Ne1=   7192.0000)
               Final occupancy bounds   : [  0.0000,  1.0000]
================================================================================

    7        -1.161254062100E+04     4.2613E-06     3.8543E-06    -6.8930E-04
MG BCs: +ve charge blocks (gridpoints):     25738 (   17431036).
MG BCs: -ve charge blocks (gridpoints):      8379 (    1073352).
MG BCs:     Elided blocks (gridpoints):    189494 (  192199157).
MG BCs: Computational effort saved:  99.9838%.
MG BCs: Charge after coarse-graining:           -9.0007585.
MG DL_MG: Calling solver with defect correction order = 8
MG DL_MG: Solver finished
MG Hartree energy from (\int phi*rho dr):              1276.230991
MG Hartree energy from (\int eps (grad phi)^2 dr):     1275.602087
MG Discrepancy due to finite box and discretization:     -0.628904 (  -0.04928%)
MG Correction to account for finite box:                  0.455853
MG Remaining discrepancy, due to discretization:         -0.173051 (  -0.01356%)
      ideal mu1:      -0.755995678364
             Q0:  -11612.540798498550
             G0:      -0.000371564348
   RMS gradient:       0.000002963182
MG BCs: +ve charge blocks (gridpoints):     25738 (   17431017).
MG BCs: -ve charge blocks (gridpoints):      8379 (    1073364).
MG BCs:     Elided blocks (gridpoints):    189494 (  192199164).
MG BCs: Computational effort saved:  99.9838%.
MG BCs: Charge after coarse-graining:           -9.0007585.
MG DL_MG: Calling solver with defect correction order = 8
MG DL_MG: Solver finished
MG Hartree energy from (\int phi*rho dr):              1276.212598
MG Hartree energy from (\int eps (grad phi)^2 dr):     1275.583694
MG Discrepancy due to finite box and discretization:     -0.628904 (  -0.04928%)
MG Correction to account for finite box:                  0.455852
MG Remaining discrepancy, due to discretization:         -0.173052 (  -0.01356%)
     Trial step:       0.506069009846
             Q1:  -11612.540933599696
 Quadratic coef:       0.000052936057
 Linear coef   :      -0.000188037202
           Qmin:  -11612.540965482980
Quadratic minimum step length (  0.898818368476) accepted
    Initial Ne1:    7191.99999941
      Final Ne1:    7192.00000000

=================== Penalty functional idempotency correction ==================
 RMS occupancy error at iteration   1:  0.000001 (step -0.5000 Ne1=   7192.0000)
            Final RMS occupancy error   :  0.000000 (Ne1=   7192.0000)
               Final occupancy bounds   : [  0.0000,  1.0000]
================================================================================

    8        -1.161254079850E+04     2.9632E-06     2.6801E-06    -1.7749E-04
MG BCs: +ve charge blocks (gridpoints):     25737 (   17431006).
MG BCs: -ve charge blocks (gridpoints):      8379 (    1073368).
MG BCs:     Elided blocks (gridpoints):    189495 (  192199171).
MG BCs: Computational effort saved:  99.9838%.
[...]
 RMS occupancy error at iteration   1:  0.000000 (step -0.5000 Ne1=   7192.0000)
            Final RMS occupancy error   :  0.000000 (Ne1=   7192.0000)
               Final occupancy bounds   : [ -0.0000,  1.0000]
================================================================================

    7        -1.164823687563E+04     4.4188E-09     3.9967E-09     1.1642E-10

Reusing previously generated solute cavity.
MG BCs: +ve charge blocks (gridpoints):     29786 (   19657880).
MG BCs: -ve charge blocks (gridpoints):      8395 (    1050729).
MG BCs:     Elided blocks (gridpoints):    185446 (  189994936).
MG BCs: Computational effort saved:  99.9819%.
MG BCs: Charge after coarse-graining:           -9.0010312.
MG DL_MG: Calling solver with defect correction order = 8
MG DL_MG: Solver finished
MG Hartree energy from (\int phi*rho dr):              1228.037357
MG Hartree energy from (\int eps (grad phi)^2 dr):     1227.858890
MG Discrepancy due to finite box and discretization:     -0.178468 (  -0.01453%)
MG Correction to account for finite box:                  0.006238
MG Remaining discrepancy, due to discretization:         -0.172230 (  -0.01402%)
      ideal mu1:      -0.515189970273
             Q0:  -11648.236875630915
             G0:      -0.000000001307
   RMS gradient:       0.000000004022

Reusing previously generated solute cavity.
MG BCs: +ve charge blocks (gridpoints):     29786 (   19657880).
MG BCs: -ve charge blocks (gridpoints):      8395 (    1050731).
MG BCs:     Elided blocks (gridpoints):    185446 (  189994934).
MG BCs: Computational effort saved:  99.9819%.
MG BCs: Charge after coarse-graining:           -9.0010312.
MG DL_MG: Calling solver with defect correction order = 8
MG DL_MG: Solver finished
MG Hartree energy from (\int phi*rho dr):              1228.037367
MG Hartree energy from (\int eps (grad phi)^2 dr):     1227.858899
MG Discrepancy due to finite box and discretization:     -0.178468 (  -0.01453%)
MG Correction to account for finite box:                  0.006238
MG Remaining discrepancy, due to discretization:         -0.172230 (  -0.01402%)
     Trial step:       0.136687440167
             Q1:  -11648.236875630566
 Quadratic coef:       0.000000000528
 Linear coef   :      -0.000000000179
           Qmin:  -11648.236875630930
Quadratic minimum step length (  0.023141684605) accepted
    Initial Ne1:    7192.00000000
      Final Ne1:    7192.00000000

=================== Penalty functional idempotency correction ==================
 RMS occupancy error at iteration   1:  0.000000 (step -0.5000 Ne1=   7192.0000)
            Final RMS occupancy error   :  0.000000 (Ne1=   7192.0000)
               Final occupancy bounds   : [  0.0000,  1.0000]
================================================================================

    8        -1.164823687563E+04     4.0222E-09     3.6380E-09     0.0000E+00

Reusing previously generated solute cavity.
MG BCs: +ve charge blocks (gridpoints):     29786 (   19657880).
MG BCs: -ve charge blocks (gridpoints):      8395 (    1050729).
MG BCs:     Elided blocks (gridpoints):    185446 (  189994936).
MG BCs: Computational effort saved:  99.9819%.
MG BCs: Charge after coarse-graining:           -9.0010312.
MG DL_MG: Calling solver with defect correction order = 8
MG DL_MG: Solver finished
MG Hartree energy from (\int phi*rho dr):              1228.037359
MG Hartree energy from (\int eps (grad phi)^2 dr):     1227.858891
MG Discrepancy due to finite box and discretization:     -0.178468 (  -0.01453%)
MG Correction to account for finite box:                  0.006238
MG Remaining discrepancy, due to discretization:         -0.172230 (  -0.01402%)
      ideal mu1:      -0.515189970371
             Q0:  -11648.236875630799
             G0:      -0.000000001708
   RMS gradient:       0.000000003797

Reusing previously generated solute cavity.
MG BCs: +ve charge blocks (gridpoints):     29786 (   19657880).
MG BCs: -ve charge blocks (gridpoints):      8395 (    1050729).
MG BCs:     Elided blocks (gridpoints):    185446 (  189994936).
MG BCs: Computational effort saved:  99.9819%.
MG BCs: Charge after coarse-graining:           -9.0010312.
MG DL_MG: Calling solver with defect correction order = 8
MG DL_MG: Solver finished
MG Hartree energy from (\int phi*rho dr):              1228.037364
MG Hartree energy from (\int eps (grad phi)^2 dr):     1227.858897
MG Discrepancy due to finite box and discretization:     -0.178468 (  -0.01453%)
MG Correction to account for finite box:                  0.006238
MG Remaining discrepancy, due to discretization:         -0.172230 (  -0.01402%)
     Trial step:       0.056242133937
             Q1:  -11648.236875630799
 Quadratic coef:       0.000000000096
 Linear coef   :      -0.000000000096
           Qmin:  -11648.236875630822
Quadratic minimum step length (  0.028017891198) accepted
    Initial Ne1:    7192.00000000
      Final Ne1:    7192.00000000

=================== Penalty functional idempotency correction ==================
 RMS occupancy error at iteration   1:  0.000000 (step -0.5000 Ne1=   7192.0000)
            Final RMS occupancy error   :  0.000000 (Ne1=   7192.0000)
               Final occupancy bounds   : [  0.0000,  1.0000]
================================================================================

    9        -1.164823687563E+04     3.7972E-09     3.4345E-09     1.1642E-10

Reusing previously generated solute cavity.
MG BCs: +ve charge blocks (gridpoints):     29786 (   19657880).
MG BCs: -ve charge blocks (gridpoints):      8395 (    1050729).
MG BCs:     Elided blocks (gridpoints):    185446 (  189994936).
MG BCs: Computational effort saved:  99.9819%.
MG BCs: Charge after coarse-graining:           -9.0010312.
MG DL_MG: Calling solver with defect correction order = 8
MG DL_MG: Solver finished
MG Hartree energy from (\int phi*rho dr):              1228.037362
MG Hartree energy from (\int eps (grad phi)^2 dr):     1227.858894
MG Discrepancy due to finite box and discretization:     -0.178468 (  -0.01453%)
MG Correction to account for finite box:                  0.006238
MG Remaining discrepancy, due to discretization:         -0.172230 (  -0.01402%)
      ideal mu1:      -0.515189970538
   10        -1.164823687563E+04     3.4348E-09     3.1067E-09     1.1642E-10
Finished density kernel iterations (  10)

Writing density kernel to file "host_11121.dkn" ... done


>>> Density kernel optimised for the current NGWF basis:
     ~~~~~~~~~~~~~~~~~~~~~~~~~~~~~~~~~~~~~~~~~~~~~~~~~~~~~~~~~~~
     Total energy                =  -1.16482368756307E+04  Eh
     Estimated bandgap           =   1.1516E-01  Eh
     RMS occupancy error         =   2.7055E-16
     [H,K] commutator            =   3.1067E-09
     Occupancy bounds            = [  0.000:  1.000]
     ~~~~~~~~~~~~~~~~~~~~~~~~~~~~~~~~~~~~~~~~~~~~~~~~~~~~~~~~~~~




################################################################################
########################### NGWF CG iteration  005 #############################
################################################################################
****** Reciprocal space K.E. preconditioning with k_zero =  3.5000 a0^-1 *******

>>> Checking for convergence of NGWFs: 
           ........................................................
           |         *** NGWF optimisation converged ***          |
           | RMS NGWF gradient =    0.00000105869337              |
           | Criteria satisfied:                                  |
           | -> RMS NGWF gradient lower than set threshold.       |
           ========================================================

Reusing previously generated solute cavity.
MG BCs: +ve charge blocks (gridpoints):     29786 (   19657880).
MG BCs: -ve charge blocks (gridpoints):      8395 (    1050729).
MG BCs:     Elided blocks (gridpoints):    185446 (  189994936).
MG BCs: Computational effort saved:  99.9819%.
MG BCs: Charge after coarse-graining:           -9.0010312.
MG DL_MG: Calling solver with defect correction order = 8
MG DL_MG: Solver finished
MG Hartree energy from (\int phi*rho dr):              1228.037362
MG Hartree energy from (\int eps (grad phi)^2 dr):     1227.858894
MG Discrepancy due to finite box and discretization:     -0.178468 (  -0.01453%)
MG Correction to account for finite box:                  0.006238
MG Remaining discrepancy, due to discretization:         -0.172230 (  -0.01402%)

================================================================================
           ---------------- ENERGY COMPONENTS (Eh) ----------------
           | Kinetic                    :     8413.62154223560174 |
           | Pseudo. (local,OBC,corr'd) :    -4992.67816995077919 |
           | Pseudopotential (non-local):     1446.24373629511774 |
           | Hartree (molecular)        :     1228.03736160301582 |
           | Exchange-correlation       :    -3335.11200029525753 |
           | Ion-ion (open BC)          :   820471.57523748627864 |
           | Smeared ion non-self corr. :  -820423.40704705333337 |
           | Smeared ion self corr.     :   -14457.16956389741972 |
           | Solvent cavitation energy  :        2.31976499517607 |
           | Solute-solvent dis-rep en. :       -1.66773704915696 |
           | Total                      :   -11648.23687563086060 |
           --------------------------------------------------------
           ------ LOCAL ENERGY COMPONENTS FROM MATRIX TRACES ------
           | Pseudopotential (local)    :    -4992.67816995080921 |
           | Hartree                    :    -1989.32130865447857 |
           --------------------------------------------------------
           Integrated density           :     7191.99999999775446
           Integrated density tr(KS)    :     7192.00000000000000
================================================================================


                        <<<<< CALCULATION SUMMARY >>>>>                         
|ITER|    RMS GRADIENT   |     TOTAL ENERGY    |   step   |     Epredicted              
   0     0.00003785130332 -11648.18760769010987   0.536972 -11648.23010536140282        
   1     0.00001238549757 -11648.23572514625266   0.114242 -11648.23669320843510        
   2     0.00000541659187 -11648.23683680151589   0.020256 -11648.23686963038199        
   3     0.00000239631269 -11648.23687413427979   0.004031 -11648.23687541277286        
   4     0.00000105869337 -11648.23687563068233  <-- CG                                 

=================== Finished the calculation in solvent ========================
= Adjusting the following parameters: 
= read_denskern: F
= read_tightbox_ngwfs: F
= maxit_pen: 0 (restored to user-specified value)
= restart read filename prefix: ""
= restart write filename prefix: ""
================================================================================

================================================================================
IS: Calculation in solvent completed (NGWFs converged).      

Individual components of total energy in solvent:     hartree           kcal/mol
- Usual non-electrostatic DFT terms:    -12876.92626517971803    -8080393.052907
- Electrostatic fixed charge energy:      1228.03736160301582      770605.062191
- Apolar cavitation energy:                  2.31976499517607        1455.674480
- Apolar dispersion-repulsion energy:       -1.66773704915696       -1046.520776
 -------------------------------------------------------------------------------
- Total energy in solvent:              -11648.23687563068233    -7309378.837012

Components of total energy in solvent:                hartree           kcal/mol
- Usual non-electrostatic DFT terms:    -12876.92626517971803    -8080393.052907
- Electrostatic energy:                   1228.03736160301582      770605.062191
- Apolar energy terms:                       0.65202794601911         409.153705
 -------------------------------------------------------------------------------
- Total energy in solvent:              -11648.23687563068233    -7309378.837012

Calculation of free energy of solvation:              hartree           kcal/mol
- Total energy in solvent:         (+)  -11648.23687563068233    -7309378.837012
- Total energy in vacuum:          (-)  -11644.21715995878913    -7306856.427399
 -------------------------------------------------------------------------------
- Total free energy of solvation:           -4.01971567189321       -2522.409612

Components of polar term in f.e. of solvation:        hartree           kcal/mol
- Electrostatic:                            -5.00352766414358       -3139.760945
- Change in nonelectrostatic DFT terms:      0.33178404622959         208.197628
 -------------------------------------------------------------------------------
- Polar term in f.e. of solvation:          -4.67174361791399       -2931.563317

Components of free energy of solvation:               hartree           kcal/mol
- Polar term in f.e. of solvation: (+)      -4.67174361791399       -2931.563317
- Apolar (cavitation, dis., rep.): (+)       0.65202794601911         409.153705
 -------------------------------------------------------------------------------
- Total free energy of solvation:           -4.01971567189488       -2522.409612
================================================================================


------------------------------ TIMING INFORMATION ------------------------------
AVERAGE TIME:   84962.267s on     40 node(s)                                    
TOTAL TIME:     84962.267s on     40 node(s)                                    
================= AVERAGE TIMINGS FROM ALL NODES (CUMULATIVE) ==================
|| TAG                                    #calls    cpu time   %total  Gflops ||
|| work_imbalance                       :     1        0.00s   0.000%  ------ ||
|| parallel_prepare_fd_halos_request    :  2313        0.02s   0.000%  ------ ||
|| sparse_set_to_garbage                :   246        0.06s   0.000%  ------ ||
|| parallel_prepare_fd_halos_satisfy    :  2313        0.07s   0.000%  ------ ||
|| parallel_prepare_fd_halos_alloc      :  2313        0.09s   0.000%  ------ ||
|| ngwfs_initialise_from_radial         :     1        0.17s   0.000%  ------ ||
|| basis_extract_function_from_box      :  6342        0.22s   0.000%  ------ ||
|| restart_ngwfs_tightbox_input         :     1        1.02s   0.001%  ------ ||
|| density_init_guess_real              :     1        2.14s   0.003%  ------ ||
|| restart_kernel_read                  :     1        2.35s   0.003%  ------ ||
|| parallel_prepare_fd_halos_comms_imbal:  2313        3.67s   0.004%  ------ ||
|| openbc_locps_radial                  :     1        4.56s   0.005%  ------ ||
|| pseudopotentials_nonlocal_mat        :    36        4.81s   0.006%  ------ ||
|| restart_kernel_write                 :    20       15.72s   0.018%  ------ ||
|| parallel_prepare_fd_halos_clear      :  2313       17.74s   0.021%  ------ ||
|| sparse_init                          :     2       22.15s   0.026%  ------ ||
|| projectors_func_ovlp_box             :    36       29.80s   0.035%  ------ ||
|| parallel_prepare_fd_halos_comms_wait :  2313       31.22s   0.037%  ------ ||
|| function_ops_brappd_ketppd           :    36       31.91s   0.038%  ------ ||
|| projectors_init_fftbox_recip         :   245       35.57s   0.042%  ------ ||
|| palser_mano_kernel_optimise          :     1       45.05s   0.053%  ------ ||
|| parallel_prepare_fd_halos            :  2313       52.82s   0.062%  ------ ||
|| pseudo_make_structure_factor         :     2       63.02s   0.074%  ------ ||
|| ngwf_gradient_coeffs                 :    19       76.18s   0.090%  ------ ||
|| restart_ngwfs_tightbox_output        :    17       85.66s   0.101%  ------ ||
|| sparse_embed_hotelling_invert_embed  :    36      108.04s   0.127%  ------ ||
|| finite_difference_derivative         :  2313      141.50s   0.167%  ------ ||
|| basis_copy_function_to_box           : 196.8k     143.18s   0.169%  ------ ||
|| integrals_kinetic                    :    36      203.60s   0.240%  ------ ||
|| openbc_locps_on_grid                 :     2      203.70s   0.240%  ------ ||
|| projectors_gradient_batch            :   209      274.80s   0.323%  ------ ||
|| sparse_trace                         :  5821      331.56s   0.390%  ------ ||
|| fourier_apply_box_pair               : 55525      407.71s   0.480% 596.315 ||
|| kernel_purify                        :   589      416.42s   0.490%  ------ ||
|| basis_dot_function_with_box          : 22.30M     418.10s   0.492%  ------ ||
|| kernel_fix                           :   190      655.12s   0.771%  ------ ||
|| lnv_gradient_norm                    :   190      678.46s   0.799%  ------ ||
|| hamiltonian_energy_components        :     4      788.31s   0.928%  ------ ||
|| basis_add_function_to_box            : 59.91M    1044.36s   1.229%  ------ ||
|| integrals_locpot_mat_els_batch       :  2189     1063.14s   1.251%  ------ ||
|| ke_density_batch_grad_apply          :  4224     1353.64s   1.593%  ------ ||
|| density_batch_row_sums               :  4224     1387.52s   1.633%  ------ ||
|| ke_density_batch_row_sums            :  4224     1388.33s   1.634%  ------ ||
|| density_fftbox_deposit_to_cell       : 62592     2075.49s   2.443%  ------ ||
|| fourier_apply_cell_forward           : 10373     2092.54s   2.463%  74.016 ||
|| fourier_apply_cell_backward          : 10375     2130.96s   2.508%  72.696 ||
|| ke_density_fftbox_deposit_to_cell    : 62592     2192.63s   2.581%  ------ ||
|| sparse_product                       :  7614     2516.06s   2.961%  ------ ||
|| cell_grid_deposit_box_real           : 127.6k    2516.29s   2.962%  ------ ||
|| cell_grid_extract_box_real           : 157.0k    2827.45s   3.328%  ------ ||
|| multigrid_prepare_bound_cond         :   385     3083.15s   3.629%  ------ ||
|| ngwf_gradient_build_batch            :   209     3186.02s   3.750%  ------ ||
|| ngwf_gradient_batch                  :   209     3536.78s   4.163%  ------ ||
|| ngwf_gradient_lnv                    :    19     3775.83s   4.444%  ------ ||
|| potential_apply_to_ngwf_batch        :  2189     4396.46s   5.175%  ------ ||
|| density_fftbox_interpolate_multiply  : 62592     4906.14s   5.774%  ------ ||
|| integrals_locpot_dbl_grid            :   199     5474.97s   6.444%  ------ ||
|| xc_energy_potential                  :   385     5616.45s   6.611%  ------ ||
|| density_batch_interp_deposit         :  4224     7986.03s   9.400%  ------ ||
|| dl_mg_solver_calls                   :   385     8567.23s  10.084%  ------ ||
|| nlxc_vdw_energy                      :   768     9394.43s  11.057%  ------ ||
|| density_on_dbl_grid                  :   384     9912.47s  11.667%  ------ ||
|| potential_apply_to_fftbox_batch      :  6270    11810.42s  13.901%  ------ ||
|| multigrid_calculate_hartree          :   385    11841.75s  13.938%  ------ ||
|| integrals_div_locpot_grad_functions  :   190    17497.41s  20.594%  ------ ||
|| ke_density_fftbox_interpolate_multipl: 62592    19515.01s  22.969%  ------ ||
|| ke_density_batch_interp_deposit      :  4224    22797.18s  26.832%  ------ ||
|| fourier_apply_box                    : 1.421M   25106.33s  29.550% 819.611 ||
|| ke_density_on_dbl_grid               :   384    26077.41s  30.693%  ------ ||
|| hamiltonian_lhxc_calculate           :   380    53462.95s  62.926%  ------ ||
|| lnv_denskernel_optimise_cg           :    19    76529.52s  90.075%  ------ ||
|| ngwf_cg_optimise                     :     2    84123.43s  99.013%  ------ ||
|| total_time                           :     1    84962.27s 100.000%  ------ ||
================================================================================
Overhead of generating timer report: 
- 0 ms averaging over threads,
- 7 ms ensuring consistency across MPI ranks,
- 2 ms printing in order.

Job completed: 03-02-2020 18:21 (-0000)

