 +---------------------------------------------------------------+
 |                                                               |
 |        ####### #     # ####### ####### ####### ######         |
 |        #     # ##    # #          #    #       #     #        |
 |        #     # # #   # #          #    #       #     #        |
 |        #     # #  #  # #####      #    #####   ######         |
 |        #     # #   # # #          #    #       #              |
 |        #     # #    ## #          #    #       #              |
 |        ####### #     # #######    #    ####### #              |
 |                                                               |
 |        Linear-Scaling Ab Initio Total Energy Program          |
 |                                                               |
 |          Release for academic collaborators of ODG            |
 |                                             Version 5.3.2.6.  |
 |                                                               |
 +---------------------------------------------------------------+
 |                                                               |
 |  Authors:                                                     |
 |  Jacek Dziedzic, Peter D. Haynes, Nicholas D. M. Hine,        |
 |  Arash. A. Mostofi, Mike C. Payne and Chris-Kriton Skylaris   |
 |                                                               |
 |  Contributors:                                                |
 |  J. Aarons, L. Andrinopoulos, P. W. Avraam, R. A. Bell,       |
 |  A. Bhandari, G. A. Bramley, R. J. Charlton, S. J. Clark,     |
 |  R. J. Clements, G. C. Constantinescu, F. Corsetti,           |
 |  N. Corsini, O. Dieguez, S. M. M. Dubois, K. K. B. Duff,      |
 |  J. M. Escartin, A. Greco, H. Helal, Q. O. Hill, L. P. Lee,   |
 |  J.-H. Li, E. B. Linscott, G. Moynihan, D. D. O`Regan,        |
 |  O. K. Okan, M. J. S. Phipps, C. J. Pickard,                  |
 |  J. C. A. Prentice, M. I. J. Probert, L. E. Ratcliff,         |
 |  M. Robinson, A. Ruiz Serrano, J. S. Spencer, E. W. Tait,     |
 |  G. Teobaldi, D. Turban, V. Vitale, K. A. Wilkinson,          |
 |  C. Weber, J. C. Womack, N. Yeung and T. J. Zuehlsdorff       |
 |                                                               |
 |                                   Copyright (c) 2004-2019     |
 |                                                               |
 |  Please cite:                                                 |
 |  "Introducing ONETEP: Linear-scaling density functional       |
 |   simulations on parallel computers".                         |
 |   C.-K. Skylaris, P. D. Haynes, A. A. Mostofi, M. C. Payne.   |
 |   J. Chem. Phys. 122 084119 (2005).                           |
 |                                                               |
 |          in all publications arising from your use of ONETEP. |
 |                                                               |
 +---------------------------------------------------------------+
 |                                                               |
 |   ONETEP is based on developments described in the following  |
 |   publications:                                               |
 |                                                               |
 |  "Nonorthogonal generalized Wannier function pseudopotential  |
 |   plane-wave method".                                         |
 |   C.-K. Skylaris, A. A. Mostofi, P. D. Haynes, O. Dieguez,    |
 |   M. C. Payne.                                                |
 |   Phys. Rev. B 66 035119 (2002).                              |
 |                                                               |
 |  "Preconditioned iterative minimization for linear-scaling    |
 |   electronic structure calculations".                         |
 |   A. A. Mostofi, P. D. Haynes, C.-K. Skylaris, M. C. Payne.   |
 |   J. Chem. Phys. 119(17), pp.8842-8848 (2003).                |
 |                                                               |
 |  "Total-energy calculations on a real space grid with         |
 |   localized functions and a plane-wave basis".                |
 |   A. A. Mostofi, C.-K. Skylaris, P. D. Haynes, M. C. Payne.   |
 |   Comput. Phys. Commun. 147, pp.788-802 (2002).               |
 |                                                               |
 |  "Accurate kinetic energy evaluation in electronic structure  |
 |   calculations with localized functions on real space grids"  |
 |   C.-K. Skylaris, A. A. Mostofi, P. D. Haynes, C. J. Pickard, |
 |   M. C. Payne.                                                |
 |   Comput. Phys. Commun. 140, pp.315-322 (2001).               |
 |                                                               |
 |  "Accurate ionic forces and geometry optimization in linear-  |
 |   scaling density-functional theory with local orbitals"      |
 |   N. D. M. Hine, M. Robinson, P. D. Haynes, C.-K. Skylaris,   |
 |   M. C. Payne, and A. A. Mostofi.                             |
 |   Phys. Rev. B 83 195102 (2011).                              |
 |                                                               |
 +---------------------------------------------------------------+

Job started: 11-03-2020 09:54 (-0000)
 
Reading parameters from file "host_10361.dat" ...... done

If your calculation crashes here, before "Checking processes and threads..."
is displayed, then your stack size is insufficient.
If so, use "ulimit -s unlimited" at runtime.
You can disable this check with "check_stack_size F".

Checking processes and threads...
   Determining the default number of threads...
      No default threads set at compilation time: defaulting to 1.
      OpenMP library call suggests 4 threads.
      Hybrid MPI-OpenMP compilation detected.
      Number of MPI processes > 1.
      OMP_NUM_THREADS environment variable present and
      its value matches the one obtained from the OpenMP library call.
      Using this value as default.
      Default threads: 4
      Default applies to threads_max and threads_num_fftboxes.
      Settings in the input file override this default.
   ... done

   Running with 40 MPI processes.
   There are 10 MPI processes running on the same node as the root process.
   Each MPI process is using: 
               1 threads for simulation cell FFTs.
               1 threads for parallel FFT box operations.
               4 threads for loops over batched FFT box operations.
               4 threads in other parallel regions.
... done

Basic input checks...... done

Reading geometry and species blocks from file "host_10361.dat" ...
  <species_atomic_set> block not found: NGWF initialisation set to SOLVE
IS: Dielectric excluded regions:
    - NONE.
    
  Number of PPD points along a3 set to 1.  This is 
  the default value, it may have been provided also in the input file.
... done
 Writing xyz coordinates to file "host_10361.xyz" ... done


--------------------------------------------------------------------------------
---------------------------------- INPUT FILE ----------------------------------
--------------------------------------------------------------------------------

cutoff_energy       : 800 eV                                                    
xc_functional B97M-V                                                            
task SINGLEPOINT                                                                
write_xyz true                                                                  
output_detail VERBOSE                                                           
ngwf_threshold_orig : 0.000002                                                  
kernel_cutoff       : 1000                                                      
k_zero              : 3.5                                                       
elec_cg_max 0                                                                   
occ_mix 1.0                                                                     
dispersion 0                                                                    
maxit_ngwf_cg 40                                                                
minit_lnv 10                                                                    
maxit_lnv 10                                                                    
write_denskern T                                                                
write_tightbox_ngwfs T                                                          
charge 9                                                                        
is_implicit_solvent T                                                           
is_auto_solvation T                                                             
is_include_apolar T                                                             
is_smeared_ion_rep T                                                            
is_solvent_surf_tension 4.7624E-5 Ha/bohr**2                                    
is_apolar_scaling_factor 0.281075                                               
is_solvation_beta 1.3                                                           
is_density_threshold 0.00035                                                    
is_bulk_permittivity 78.54                                                      
is_dielectric_model fix_initial                                                 
is_smeared_ion_width 0.8                                                        
mg_defco_fd_order 8                                                             
is_bc_coarseness 10                                                             
is_bc_surface_coarseness 1                                                      
fine_grid_scale 2.0                                                             
%block species                                                                  
N   N   7 4 8.0                                                                 
H   H   1 1 8.0                                                                 
C   C   6 4 8.0                                                                 
S   S  16 9 8.0                                                                 
O   O   8 4 8.0                                                                 
%endblock species                                                               
%block species_pot                                                              
N   N_00.recpot                                                                 
H   H_04.recpot                                                                 
C   C_01.recpot                                                                 
S   S_00.recpot                                                                 
O   O_02.recpot                                                                 
%endblock species_pot                                                           
%block lattice_cart                                                             
142.669   0.000   0.000                                                         
0.000 146.65   0.000                                                            
0.000   0.000   162.396                                                         
%endblock lattice_cart                                                          
%block positions_abs                                                            
     Hash =  -000008827300030497314039
%endblock positions_abs                                                         

--------------------------------------------------------------------------------
-------------------------------- END INPUT FILE --------------------------------
--------------------------------------------------------------------------------


 
 ESDF WARNING(1): "kernelcutoff" (esdf_physical) has no units. Assume "bohr".
 ESDF WARNING(2): "kzero" (esdf_physical) has no units. Assume "1/bohr".
 ESDF WARNING(3
 ): "issmearedionwidth" (esdf_physical) has no units. Assume "bohr".
<<<<<<<<<<<<<<<<<<<<<<<<<<<<<<<<< Full system >>>>>>>>>>>>>>>>>>>>>>>>>>>>>>>>>>
<<<<<<<<<<<<<<<<<<<<<<<<< Pseudopotential information >>>>>>>>>>>>>>>>>>>>>>>>>>
File: N_00.recpot [ 2001 points up to Gmax=  52.9 (1/bohr)]
  Atomic number:  7;  ionic charge:  5.000000
    Shell 1: l = 0; rc = 1.48 bohr
File: H_04.recpot [ 2001 points up to Gmax=  52.9 (1/bohr)]
  Atomic number:  1;  ionic charge:  1.000000
    Local potential
File: C_01.recpot [ 2001 points up to Gmax=  52.9 (1/bohr)]
  Atomic number:  6;  ionic charge:  4.000000
    Shell 1: l = 0; rc = 1.48 bohr
File: S_00.recpot [ 2001 points up to Gmax=  52.9 (1/bohr)]
  Atomic number: 16;  ionic charge:  6.000000
    Shell 1: l = 0; rc = 1.90 bohr
    Shell 2: l = 2; rc = 1.84 bohr
File: O_02.recpot [ 2001 points up to Gmax=  52.9 (1/bohr)]
  Atomic number:  8;  ionic charge:  6.000000
    Shell 1: l = 0; rc = 1.31 bohr
<<<<<<<<<<<<<<<<<<<<<<<<<<<<<<<<<<<<<<<<>>>>>>>>>>>>>>>>>>>>>>>>>>>>>>>>>>>>>>>>

-------------------------- Atom counting information ---------------------------
Symbol    Natoms    Nngwfs    Nprojs
  N        236       944       236
  H       1311      1311         0
  C        810      3240       810
  S          6        54        36
  O        239       956       239
.......   ......    ......    ......
Totals:   2602      6505      1321
--------------------------------------------------------------------------------

=============================== PSINC grid sizes ===============================
                      Simulation cell:  286 x 294 x 320
                              FFT-box:  105 x 105 x  99
                                  PPD:   11 x   6 x   1
Grid space d1=  0.498842657343a0 (KE cutoff=  30.52649Eh = 830.66799eV)
Grid space d2=  0.498809523810a0 (KE cutoff=  30.53054Eh = 830.77835eV)
Grid space d3=  0.507487500000a0 (KE cutoff=  29.49533Eh = 802.60885eV)
================================================================================

********************* Fourier parallelisation information **********************
       Coarse grid (whole simulation cell) dimensions:    286   294   320
          Real-space ('12') slabs/node (min max mean):      8     8     8
         Recip-space ('23') slabs/node (min max mean):      3     4     3
********************************************************************************

********************* Fourier parallelisation information **********************
       Double grid (whole simulation cell) dimensions:    572   588   640
          Real-space ('12') slabs/node (min max mean):     16    16    16
         Recip-space ('23') slabs/node (min max mean):      7     8     7
********************************************************************************
ONETEP fine grid is 572 x 588 x 640 gridpoints, 142.6690 x 146.6500 x 162.3960 bohr.
FD multigrid is     569 x 585 x 633 gridpoints, 141.9207 x 145.9018 x 160.6198 bohr.


Calculating local pseudopotential in open BC on a radial grid ...
Discrepancy between calculated realspace psloc and -Z/x on [5a0,261.215a0]:
max |rel. diff| # avg |rel. diff| #  avg rel. diff #  f # pseudopotential file
 0.000261901569    0.000004963664   0.000000071970   55  'N_00.recpot'
 0.000422260137    0.000017549664  -0.000000063361   55  'H_04.recpot'
 0.000361991046    0.000016543264   0.000000134927   55  'C_01.recpot'
 0.000447743184    0.000019132268   0.000000438157   55  'S_00.recpot'
 0.000711628927    0.000028437426   0.000000135877   55  'O_02.recpot'
... done
 WARNING: meta-GGA functionality under development.
          Using this functional is experimental.
          Minimum tau threshold, xc_min_tau =   1.00000000E-12
 WARNING: Using alternative XC functional PBE for 
          radial densities (xc_radial).

Atom SCF Calculation for N  : Z (AE atom) =   7 : Z (PS atom) =   5
Config String:
Orbitals (num,occ):  2     2.00 3.00
Orbitals   (num,l):  2        0    1
Real-space Grid (nr,dr,rmax): 1203    0.0066555740    8.0000000000
Spherical Bessel Basis (nsws,lmax,cutoff):   47    1  176.3951722778
Confining potential (l,width,scale):  0    3.0000000000  100.0000000000
Confining potential (l,width,scale):  1    3.0000000000  100.0000000000
  1         -4.7312375307   -3.4155304497    7.0523828109   -1.9351020946
  2         -9.7309464766   -2.0532547791    8.2966052865   -2.2494486027
  3         -9.6627394379   -2.1124926340    8.2327997121   -2.2369778124
  4         -9.6814993499   -2.1215521045    8.2229805960   -2.2365178421
  5         -9.6843326483   -2.1250939529    8.2191374534   -2.2362718126
  6         -9.6859628709   -2.1267894855    8.2172963573   -2.2362066344
  7         -9.6867347035   -2.1276425665    8.2163697352   -2.2361903369
  8         -9.6870802100   -2.1280764625    8.2158983890   -2.2361891460
  9         -9.6872290423   -2.1282977424    8.2156580222   -2.2361920435
 10         -9.6872901988   -2.1284107021    8.2155353368   -2.2361953393
 11         -9.6873135296   -2.1284684031    8.2154726809   -2.2361979819
 12         -9.6873212476   -2.1284978948    8.2154406648   -2.2361998431
 13         -9.6873229586   -2.1285129774    8.2154242957   -2.2362010676
 14         -9.6873226456   -2.1285206957    8.2154159216   -2.2362018403
 15         -9.6873218534   -2.1285246479    8.2154116349   -2.2362023142
 16         -9.6873212599   -2.1285262679    8.2154098784   -2.2362025420
 17         -9.6873207834   -2.1285272564    8.2154088068   -2.2362026955
 18         -9.6873204210   -2.1285278597    8.2154081529   -2.2362027982
 19         -9.6873201550   -2.1285282280    8.2154077538   -2.2362028667
 20         -9.6873199645   -2.1285284529    8.2154075102   -2.2362029121
 21         -9.6873198305   -2.1285285903    8.2154073614   -2.2362029421
 22         -9.6873197377   -2.1285286742    8.2154072705   -2.2362029618
Atom SCF converged after  22 iterations to a total energy of     -9.68731974

Atom SCF Calculation for H  : Z (AE atom) =   1 : Z (PS atom) =   1
Config String:
Orbitals (num,occ):  1     1.00
Orbitals   (num,l):  1        0
Real-space Grid (nr,dr,rmax): 1203    0.0066555740    8.0000000000
Spherical Bessel Basis (nsws,lmax,cutoff):   47    0  176.3951722778
Confining potential (l,width,scale):  0    3.0000000000  100.0000000000
  1         -0.3194257691   -0.2393854593    0.2820953124   -0.2424203209
  2         -0.3951823392   -0.2377116493    0.2886404059   -0.2475147891
  3         -0.4317044583   -0.2352244387    0.2921333887   -0.2514046172
  4         -0.4470703708   -0.2341892222    0.2934391879   -0.2531009782
  5         -0.4532132900   -0.2338556667    0.2938388426   -0.2537313520
  6         -0.4556579251   -0.2337612552    0.2939448584   -0.2539550462
  7         -0.4566418315   -0.2337377355    0.2939680120   -0.2540342273
  8         -0.4570437922   -0.2337331116    0.2939708287   -0.2540627372
  9         -0.4572102946   -0.2337328328    0.2939698291   -0.2540732650
 10         -0.4572800424   -0.2337332404    0.2939687193   -0.2540772588
 11         -0.4573095100   -0.2337335791    0.2939680317   -0.2540788122
 12         -0.4573220379   -0.2337337762    0.2939676699   -0.2540794294
 13         -0.4573273880   -0.2337338775    0.2939674931   -0.2540796787
 14         -0.4573296803   -0.2337339266    0.2939674099   -0.2540797808
 15         -0.4573306647   -0.2337339495    0.2939673718   -0.2540798230
 16         -0.4573310882   -0.2337339601    0.2939673545   -0.2540798406
 17         -0.4573312706   -0.2337339649    0.2939673467   -0.2540798479
 18         -0.4573313493   -0.2337339670    0.2939673433   -0.2540798510
Atom SCF converged after  18 iterations to a total energy of     -0.45733135

Atom SCF Calculation for C  : Z (AE atom) =   6 : Z (PS atom) =   4
Config String:
Orbitals (num,occ):  2     2.00 2.00
Orbitals   (num,l):  2        0    1
Real-space Grid (nr,dr,rmax): 1203    0.0066555740    8.0000000000
Spherical Bessel Basis (nsws,lmax,cutoff):   47    1  176.3951722778
Confining potential (l,width,scale):  0    3.0000000000  100.0000000000
Confining potential (l,width,scale):  1    3.0000000000  100.0000000000
  1         -5.2976922011   -1.3069684169    4.5135249990   -1.4493313817
  2         -5.3721716256   -1.3429755895    4.4750154450   -1.4361613026
  3         -5.3809959565   -1.3617365618    4.4541655428   -1.4305930207
  4         -5.3918938866   -1.3667928461    4.4484735100   -1.4294652294
  5         -5.3956096428   -1.3688539142    4.4461376126   -1.4290734646
  6         -5.3968271862   -1.3696852393    4.4451910874   -1.4289366866
  7         -5.3972028401   -1.3700178062    4.4448112275   -1.4288900460
  8         -5.3973067903   -1.3701500158    4.4446598370   -1.4288749220
  9         -5.3973286940   -1.3702023868    4.4445997329   -1.4288704293
 10         -5.3973289850   -1.3702230869    4.4445759233   -1.4288693188
 11         -5.3973254264   -1.3702312560    4.4445665049   -1.4288691775
 12         -5.3973224003   -1.3702344755    4.4445627836   -1.4288692549
 13         -5.3973208708   -1.3702354890    4.4445616088   -1.4288693270
 14         -5.3973198783   -1.3702360102    4.4445610034   -1.4288693814
 15         -5.3973192535   -1.3702362780    4.4445606917   -1.4288694190
 16         -5.3973188684   -1.3702364155    4.4445605313   -1.4288694437
 17         -5.3973186349   -1.3702364860    4.4445604489   -1.4288694595
 18         -5.3973184951   -1.3702365221    4.4445604065   -1.4288694693
 19         -5.3973184122   -1.3702365405    4.4445603848   -1.4288694753
Atom SCF converged after  19 iterations to a total energy of     -5.39731841

Atom SCF Calculation for S  : Z (AE atom) =  16 : Z (PS atom) =   6
Config String:
Orbitals (num,occ):  3     2.00 4.00 0.00
Orbitals   (num,l):  3        0    1    2
Real-space Grid (nr,dr,rmax): 1203    0.0066555740    8.0000000000
Spherical Bessel Basis (nsws,lmax,cutoff):   47    2  176.3951722778
Confining potential (l,width,scale):  0    3.0000000000  100.0000000000
Confining potential (l,width,scale):  1    3.0000000000  100.0000000000
Confining potential (l,width,scale):  2    3.0000000000  100.0000000000
  1        -12.4735062396   -1.0328741412   10.1554312477   -2.4512393157
  2         -9.9458301913   -2.4607392455    8.3041325857   -2.0306994528
  3        -10.1450417646   -2.2931184565    8.4831893826   -2.0812538287
  4        -10.1528335592   -2.2733105793    8.5050388867   -2.0896035179
  5        -10.1571940363   -2.2633716629    8.5160794258   -2.0939370707
  6        -10.1594380571   -2.2584938667    8.5215163935   -2.0961289008
  7        -10.1605856507   -2.2561081821    8.5241804044   -2.0972291378
  8        -10.1611799191   -2.2549395235    8.5254868240   -2.0977806248
  9        -10.1614918752   -2.2543658586    8.5261285885   -2.0980571586
 10        -10.1616572884   -2.2540839121    8.5264441898   -2.0981959233
 11        -10.1617455602   -2.2539453058    8.5265994231   -2.0982656006
 12        -10.1617928447   -2.2538772062    8.5266757320   -2.0983006047
 13        -10.1618182292   -2.2538437891    8.5267131983   -2.0983181961
 14        -10.1618318741   -2.2538274201    8.5267315620   -2.0983270391
 15        -10.1618392144   -2.2538194197    8.5267405433   -2.0983314852
 16        -10.1618431651   -2.2538155200    8.5267449245   -2.0983337210
 17        -10.1618452923   -2.2538136252    8.5267470551   -2.0983348455
 18        -10.1618464380   -2.2538127080    8.5267480875   -2.0983354110
 19        -10.1618470552   -2.2538122659    8.5267485856   -2.0983356955
 20        -10.1618473878   -2.2538120540    8.5267488248   -2.0983358386
 21        -10.1618475670   -2.2538119530    8.5267489389   -2.0983359106
 22        -10.1618476637   -2.2538119053    8.5267489929   -2.0983359468
Atom SCF converged after  22 iterations to a total energy of    -10.16184766

Atom SCF Calculation for O  : Z (AE atom) =   8 : Z (PS atom) =   6
Config String:
Orbitals (num,occ):  2     2.00 4.00
Orbitals   (num,l):  2        0    1
Real-space Grid (nr,dr,rmax): 1203    0.0066555740    8.0000000000
Spherical Bessel Basis (nsws,lmax,cutoff):   47    1  176.3951722778
Confining potential (l,width,scale):  0    3.0000000000  100.0000000000
Confining potential (l,width,scale):  1    3.0000000000  100.0000000000
  1         -1.8735052164   -7.5539365035   10.1554312477   -2.4512393157
  2        -16.0318313751   -3.1285771268   13.6395848164   -3.2358799643
  3        -15.9524020423   -3.0762819706   13.6967272503   -3.2536856837
  4        -15.8521515939   -3.0781493909   13.6951909330   -3.2561700440
  5        -15.8357139793   -3.0748501933   13.6988803334   -3.2580493133
  6        -15.8246052853   -3.0740779781   13.6997881576   -3.2588327446
  7        -15.8189019501   -3.0737449687   13.7001869911   -3.2592378801
  8        -15.8159785510   -3.0736026016   13.7003615168   -3.2594475790
  9        -15.8144776168   -3.0735437994   13.7004360379   -3.2595560735
 10        -15.8137058024   -3.0735207882   13.7004667348   -3.2596122456
 11        -15.8133083127   -3.0735125946   13.7004786868   -3.2596413656
 12        -15.8131032938   -3.0735102195   13.7004828997   -3.2596564858
 13        -15.8129973902   -3.0735099286   13.7004840891   -3.2596643505
 14        -15.8129426040   -3.0735102506   13.7004842061   -3.2596684489
 15        -15.8129142203   -3.0735106556   13.7004840157   -3.2596705887
 16        -15.8128994940   -3.0735109855   13.7004837906   -3.2596717080
 17        -15.8128918425   -3.0735112169   13.7004836103   -3.2596722946
 18        -15.8128878614   -3.0735113674   13.7004834848   -3.2596726026
 19        -15.8128857871   -3.0735114608   13.7004834035   -3.2596727646
 20        -15.8128847048   -3.0735115170   13.7004833533   -3.2596728500
 21        -15.8128841394   -3.0735115501   13.7004833231   -3.2596728951
 22        -15.8128838436   -3.0735115693   13.7004833054   -3.2596729190
 23        -15.8128836887   -3.0735115802   13.7004832951   -3.2596729316
 24        -15.8128836074   -3.0735115864   13.7004832893   -3.2596729383
Atom SCF converged after  24 iterations to a total energy of    -15.81288361

========================== Calculation in vacuum ==============================
= Adjusting the following parameters: 
= is_implicit_solvent: F
= is_include_apolar: F
= write_denskern: T
= write_tightbox_ngwfs: T
= restart read filename prefix: ""
= restart write filename prefix: "vacuum_"
===============================================================================

Determining parallel strategy ...
... using space-filling curve
... NGWF load balancing: max    163;  min    162;  average    163
... Projector load balancing: max     36;  min     32;  average     33
... done
Calculating direct Ion-Ion energy ...
Ion-Ion Energy        :    818610.18327716970816
Basis initialisation ...... NGWF spheres initialised
... Projector spheres initialised
... NGWF tight boxes initialised
... Tight-boxes gathered
... NGWF basis size (local,global):    1180825  47312315
... Nonlocal pseudopotential projector initialisation
... done

========================== Sparse matrix information ===========================
                        Overlap matrix filling:   6.70%
                        Density kernel filling: 100.00%
              NGWF-Proj overlap matrix filling:   1.76%
                    Hamiltonian matrix filling:   7.52%
                  NGWF diagonal matrix filling:   0.05%
                             KS matrix filling: 100.00% 
                           KSKS matrix filling: 100.00% 
================================================================================

Sparse matrix initialisation ... done

Generating smeared ion density ... done
Smeared ion self correction:     -14457.169564
Smeared ion non-self correction: -818562.321145
NGWF initialisation ...... done
============ Calculation of NGWF S^-1 using Hotelling algorithm ================ 
         Iteration  |  Frobenius norm and Maximum abs value    (of I-S*S_n^-1)   
               1       0.78635819E+02     0.98394240E+00
               2       0.76896483E+02     0.96824041E+00
               3       0.74040961E+02     0.93790207E+00
               4       0.69912220E+02     0.88145975E+00
               5       0.64695739E+02     0.78359783E+00
               6       0.58769447E+02     0.71071342E+00
               7       0.52730655E+02     0.67512828E+00
               8       0.47142806E+02     0.65062016E+00
               9       0.41220133E+02     0.61477926E+00
              10       0.33235915E+02     0.55331334E+00
              11       0.22840688E+02     0.45214434E+00
              12       0.12077128E+02     0.30851587E+00
              13       0.42047755E+01     0.15085809E+00
              14       0.72959711E+00     0.40367531E-01
              15       0.40721695E-01     0.38137086E-02
              16       0.30552269E-03     0.36283697E-04
              17       0.31193684E-07     0.37932808E-08
              18       0.10479914E-12     0.59952043E-14
================================================================================
Calculating local pseudopotential in open BC on the fine real space grid ...
... done

MG BCs: +ve charge blocks (gridpoints):     20875 (   16377947).
MG BCs: -ve charge blocks (gridpoints):      8077 (    1096893).
MG BCs:     Elided blocks (gridpoints):    194357 (  193228705).
MG BCs: Computational effort saved:  99.9863%.
MG BCs: Charge after coarse-graining:           -9.0002341.
MG DL_MG: Calling solver with defect correction order = 8
MG DL_MG: Solver finished
MG Hartree energy from (\int phi*rho dr):              1462.580349
MG Hartree energy from (\int eps (grad phi)^2 dr):     1461.978971
MG Discrepancy due to finite box and discretization:     -0.601378 (  -0.04112%)
MG Correction to account for finite box:                  0.454595
MG Remaining discrepancy, due to discretization:         -0.146783 (  -0.01004%)
 WARNING: xc_energy_potential using alternative initial XC functional PBE.
Up spin density kernel initialisation ... 
======= Optimisation of K by Palser-Manolopoulos canonical purification ======== 
         Iteration  |  Band structure energy |    c_n   
               1       -2578.96923088458152    0.5259315
               2       -2754.56036915685763    0.5164064
               3       -2933.61793147196977    0.5154392
               4       -3081.77862449571739    0.5299061
               5       -3171.58166667163277    0.5667474
               6       -3208.61521146828090    0.6108810
               7       -3221.24315652135101    0.6213003
               8       -3226.79438024462161    0.6208507
               9       -3229.46689008696649    0.6363900
              10       -3230.56599330187510    0.6614987
              11       -3230.99663941759718    0.6791118
              12       -3231.18436840324648    0.6749855
              13       -3231.28149003862927    0.6414950
              14       -3231.33861578071219    0.5805740
              15       -3231.37175511847181    0.5382415
              16       -3231.38358258265180    0.5690711
              17       -3231.38562038117288    0.6294482
              18       -3231.38608494627533    0.6412035
              19       -3231.38626736783499    0.6233089
              20       -3231.38639888576608    0.5940259
              21       -3231.38650057097766    0.5554386
              22       -3231.38656604884409    0.5192217
              23       -3231.38659091010231    0.5022593
              24       -3231.38659401983205    0.5000307
              25       -3231.38659420685690    0.5000307
Termination criterion satisfied: band energy change below threshold.

WARNING in palser_mano_kernel_optimise: Possible degeneracy at fermi level

Diagonalisation (maxit_palser_mano=-1) may be required.
Final occupancy bounds: [    0.00000000003952:    0.99999999968409]
Closest occupancy to 0.5:     0.52181680746336
================================================================================
... done

Writing density kernel to file "host_10361.vacuum_dkn" ... done

>>> Optimising kernel for current NGWFs:
   Initial electron number for spin 1:    7192.00000000
     Final electron number for spin 1:    7192.00000000

=================== Penalty functional idempotency correction ==================
 RMS occupancy error at iteration   1:  0.004375 (step ******* Ne1=   7192.0000)
            Final RMS occupancy error   :  0.000000 (Ne1=   7192.0000)
               Final occupancy bounds   : [  0.0000,  1.0000]
================================================================================

................................................................................
<<<<<<<<<<<<<< LNV (Original version) density kernel optimisation >>>>>>>>>>>>>>
~~~~~~~~~~~~~~~~~~~~~~~~~~~~~~~~~~~~~~~~~~~~~~~~~~~~~~~~~~~~~~~~~~~~~~~~~~~~~~~~
   iter  |      energy (Eh)       | rms gradient |  commutator  |   dE (Eh)
MG BCs: +ve charge blocks (gridpoints):     31774 (   17519260).
MG BCs: -ve charge blocks (gridpoints):      8392 (    1130023).
MG BCs:     Elided blocks (gridpoints):    183446 (  192054262).
MG BCs: Computational effort saved:  99.9809%.
MG BCs: Charge after coarse-graining:           -9.0010273.
MG DL_MG: Calling solver with defect correction order = 8
MG DL_MG: Solver finished
MG Hartree energy from (\int phi*rho dr):              1418.683379
MG Hartree energy from (\int eps (grad phi)^2 dr):     1418.033579
MG Discrepancy due to finite box and discretization:     -0.649800 (  -0.04580%)
MG Correction to account for finite box:                  0.462260
MG Remaining discrepancy, due to discretization:         -0.187540 (  -0.01322%)
      ideal mu1:      -0.732292590418
             Q0:  -11471.437642570003
             G0:    -127.957441057582
   RMS gradient:       0.001738943503
MG BCs: +ve charge blocks (gridpoints):     31741 (   17593306).
MG BCs: -ve charge blocks (gridpoints):      8309 (    1106869).
MG BCs:     Elided blocks (gridpoints):    183477 (  192003370).
MG BCs: Computational effort saved:  99.9810%.
MG BCs: Charge after coarse-graining:           -9.0010513.
MG DL_MG: Calling solver with defect correction order = 8
MG DL_MG: Solver finished
MG Hartree energy from (\int phi*rho dr):              1439.602118
MG Hartree energy from (\int eps (grad phi)^2 dr):     1438.967018
MG Discrepancy due to finite box and discretization:     -0.635100 (  -0.04412%)
MG Correction to account for finite box:                  0.462577
MG Remaining discrepancy, due to discretization:         -0.172524 (  -0.01198%)
     Trial step:       0.500000000000
             Q1:  -11484.017199238646
 Quadratic coef:      51.399163860147
 Linear coef   :     -63.978720528791
           Qmin:  -11491.346899711027
Quadratic minimum step length (  0.311185609473) accepted
    Initial Ne1:    7192.00000156
      Final Ne1:    7192.00000000

=================== Penalty functional idempotency correction ==================
 RMS occupancy error at iteration   1:  0.003290 (step -0.4887 Ne1=   7192.0000)
 RMS occupancy error at iteration   2:  0.000027 (step -0.5002 Ne1=   7192.0000)
            Final RMS occupancy error   :  0.000000 (Ne1=   7192.0000)
               Final occupancy bounds   : [  0.0000,  1.0000]
================================================================================

    1        -1.147143764257E+04     1.7389E-03     1.5728E-03
MG BCs: +ve charge blocks (gridpoints):     31759 (   17566578).
MG BCs: -ve charge blocks (gridpoints):      8356 (    1115749).
MG BCs:     Elided blocks (gridpoints):    183459 (  192021218).
MG BCs: Computational effort saved:  99.9810%.
MG BCs: Charge after coarse-graining:           -9.0010424.
MG DL_MG: Calling solver with defect correction order = 8
MG DL_MG: Solver finished
MG Hartree energy from (\int phi*rho dr):              1425.092582
MG Hartree energy from (\int eps (grad phi)^2 dr):     1424.452753
MG Discrepancy due to finite box and discretization:     -0.639829 (  -0.04490%)
MG Correction to account for finite box:                  0.462351
MG Remaining discrepancy, due to discretization:         -0.177478 (  -0.01245%)
      ideal mu1:      -0.773615854635
             Q0:  -11491.741841722862
             G0:     -11.531624831056
   RMS gradient:       0.000518158874
MG BCs: +ve charge blocks (gridpoints):     31747 (   17583011).
MG BCs: -ve charge blocks (gridpoints):      8329 (    1109093).
MG BCs:     Elided blocks (gridpoints):    183471 (  192011441).
MG BCs: Computational effort saved:  99.9810%.
MG BCs: Charge after coarse-graining:           -9.0010465.
MG DL_MG: Calling solver with defect correction order = 8
MG DL_MG: Solver finished
MG Hartree energy from (\int phi*rho dr):              1430.270687
MG Hartree energy from (\int eps (grad phi)^2 dr):     1429.634069
MG Discrepancy due to finite box and discretization:     -0.636617 (  -0.04451%)
MG Correction to account for finite box:                  0.462094
MG Remaining discrepancy, due to discretization:         -0.174523 (  -0.01220%)
     Trial step:       0.394452538002
             Q1:  -11494.389059904846
 Quadratic coef:       1.901460499914
 Linear coef   :      -4.548678681897
           Qmin:  -11494.462181923471
Quadratic minimum step length (  0.471805186253) accepted
    Initial Ne1:    7191.99983149
      Final Ne1:    7192.00000000

=================== Penalty functional idempotency correction ==================
 RMS occupancy error at iteration   1:  0.001585 (step -0.4941 Ne1=   7192.0000)
 RMS occupancy error at iteration   2:  0.000009 (step -0.5002 Ne1=   7192.0000)
            Final RMS occupancy error   :  0.000000 (Ne1=   7192.0000)
               Final occupancy bounds   : [  0.0000,  1.0000]
================================================================================

    2        -1.149174184172E+04     5.1816E-04     4.6866E-04    -2.0304E+01
MG BCs: +ve charge blocks (gridpoints):     31750 (   17585935).
MG BCs: -ve charge blocks (gridpoints):      8327 (    1107792).
MG BCs:     Elided blocks (gridpoints):    183468 (  192009818).
MG BCs: Computational effort saved:  99.9810%.
MG BCs: Charge after coarse-graining:           -9.0010477.
MG DL_MG: Calling solver with defect correction order = 8
MG DL_MG: Solver finished
MG Hartree energy from (\int phi*rho dr):              1431.315092
MG Hartree energy from (\int eps (grad phi)^2 dr):     1430.679060
MG Discrepancy due to finite box and discretization:     -0.636032 (  -0.04444%)
MG Correction to account for finite box:                  0.462052
MG Remaining discrepancy, due to discretization:         -0.173980 (  -0.01216%)
      ideal mu1:      -0.795136119665
             Q0:  -11494.498724363628
             G0:      -1.925313602133
   RMS gradient:       0.000211772384
MG BCs: +ve charge blocks (gridpoints):     31743 (   17586712).
MG BCs: -ve charge blocks (gridpoints):      8331 (    1107804).
MG BCs:     Elided blocks (gridpoints):    183474 (  192009029).
MG BCs: Computational effort saved:  99.9810%.
MG BCs: Charge after coarse-graining:           -9.0010481.
MG DL_MG: Calling solver with defect correction order = 8
MG DL_MG: Solver finished
MG Hartree energy from (\int phi*rho dr):              1430.645472
MG Hartree energy from (\int eps (grad phi)^2 dr):     1430.009742
MG Discrepancy due to finite box and discretization:     -0.635730 (  -0.04444%)
MG Correction to account for finite box:                  0.461923
MG Remaining discrepancy, due to discretization:         -0.173807 (  -0.01215%)
     Trial step:       0.431398601250
             Q1:  -11494.999608918442
 Quadratic coef:       0.329693040112
 Linear coef   :      -0.830577594927
           Qmin:  -11495.021831509717
Quadratic minimum step length (  0.543399418682) accepted
    Initial Ne1:    7191.99992282
      Final Ne1:    7192.00000000

=================== Penalty functional idempotency correction ==================
 RMS occupancy error at iteration   1:  0.000633 (step -0.4972 Ne1=   7192.0000)
 RMS occupancy error at iteration   2:  0.000003 (step -0.5000 Ne1=   7192.0000)
            Final RMS occupancy error   :  0.000000 (Ne1=   7192.0000)
               Final occupancy bounds   : [  0.0000,  1.0000]
================================================================================

    3        -1.149449872436E+04     2.1177E-04     1.9154E-04    -2.7569E+00
MG BCs: +ve charge blocks (gridpoints):     31743 (   17587026).
MG BCs: -ve charge blocks (gridpoints):      8328 (    1107737).
MG BCs:     Elided blocks (gridpoints):    183474 (  192008782).
MG BCs: Computational effort saved:  99.9810%.
MG BCs: Charge after coarse-graining:           -9.0010482.
MG DL_MG: Calling solver with defect correction order = 8
MG DL_MG: Solver finished
MG Hartree energy from (\int phi*rho dr):              1430.476731
MG Hartree energy from (\int eps (grad phi)^2 dr):     1429.841067
MG Discrepancy due to finite box and discretization:     -0.635665 (  -0.04444%)
MG Correction to account for finite box:                  0.461891
MG Remaining discrepancy, due to discretization:         -0.173774 (  -0.01215%)
      ideal mu1:      -0.798309621232
             Q0:  -11495.027022061986
             G0:      -0.460767104202
   RMS gradient:       0.000103793517
MG BCs: +ve charge blocks (gridpoints):     31745 (   17587936).
MG BCs: -ve charge blocks (gridpoints):      8327 (    1107635).
MG BCs:     Elided blocks (gridpoints):    183471 (  192007974).
MG BCs: Computational effort saved:  99.9810%.
MG BCs: Charge after coarse-graining:           -9.0010479.
MG DL_MG: Calling solver with defect correction order = 8
MG DL_MG: Solver finished
MG Hartree energy from (\int phi*rho dr):              1431.612225
MG Hartree energy from (\int eps (grad phi)^2 dr):     1430.976499
MG Discrepancy due to finite box and discretization:     -0.635727 (  -0.04441%)
MG Correction to account for finite box:                  0.461799
MG Remaining discrepancy, due to discretization:         -0.173927 (  -0.01215%)
     Trial step:       0.484171198172
             Q1:  -11495.149975630571
 Quadratic coef:       0.100136592335
 Linear coef   :      -0.223090160920
           Qmin:  -11495.151275391210
Quadratic minimum step length (  0.539332465757) accepted
    Initial Ne1:    7191.99998153
      Final Ne1:    7192.00000000

=================== Penalty functional idempotency correction ==================
 RMS occupancy error at iteration   1:  0.000283 (step -0.4954 Ne1=   7192.0000)
 RMS occupancy error at iteration   2:  0.000003 (step -0.5000 Ne1=   7192.0000)
            Final RMS occupancy error   :  0.000000 (Ne1=   7192.0000)
               Final occupancy bounds   : [  0.0000,  1.0000]
================================================================================

    4        -1.149502702206E+04     1.0379E-04     9.3879E-05    -5.2830E-01
MG BCs: +ve charge blocks (gridpoints):     31745 (   17588020).
MG BCs: -ve charge blocks (gridpoints):      8327 (    1107610).
MG BCs:     Elided blocks (gridpoints):    183471 (  192007915).
MG BCs: Computational effort saved:  99.9810%.
MG BCs: Charge after coarse-graining:           -9.0010479.
MG DL_MG: Calling solver with defect correction order = 8
MG DL_MG: Solver finished
MG Hartree energy from (\int phi*rho dr):              1431.742014
MG Hartree energy from (\int eps (grad phi)^2 dr):     1431.106279
MG Discrepancy due to finite box and discretization:     -0.635734 (  -0.04440%)
MG Correction to account for finite box:                  0.461788
MG Remaining discrepancy, due to discretization:         -0.173946 (  -0.01215%)
      ideal mu1:      -0.798460637098
             Q0:  -11495.151830558549
             G0:      -0.198771605539
   RMS gradient:       0.000068389958
MG BCs: +ve charge blocks (gridpoints):     31747 (   17587739).
MG BCs: -ve charge blocks (gridpoints):      8330 (    1107720).
MG BCs:     Elided blocks (gridpoints):    183470 (  192008086).
MG BCs: Computational effort saved:  99.9810%.
MG BCs: Charge after coarse-graining:           -9.0010476.
MG DL_MG: Calling solver with defect correction order = 8
MG DL_MG: Solver finished
MG Hartree energy from (\int phi*rho dr):              1431.420264
MG Hartree energy from (\int eps (grad phi)^2 dr):     1430.784534
MG Discrepancy due to finite box and discretization:     -0.635730 (  -0.04441%)
MG Correction to account for finite box:                  0.461617
MG Remaining discrepancy, due to discretization:         -0.174113 (  -0.01216%)
     Trial step:       0.511008068585
             Q1:  -11495.223543527187
 Quadratic coef:       0.029860925599
 Linear coef   :      -0.101573894236
           Qmin:  -11495.238208122066
Quadratic minimum step length (  0.869113707486) accepted
    Initial Ne1:    7191.99998654
      Final Ne1:    7192.00000000

=================== Penalty functional idempotency correction ==================
 RMS occupancy error at iteration   1:  0.000881 (step -0.4422 Ne1=   7192.0000)
 RMS occupancy error at iteration   2:  0.000030 (step -0.4999 Ne1=   7192.0000)
            Final RMS occupancy error   :  0.000000 (Ne1=   7192.0000)
               Final occupancy bounds   : [ -0.0000,  1.0000]
================================================================================

    5        -1.149515183056E+04     6.8390E-05     6.1857E-05    -1.2481E-01
MG BCs: +ve charge blocks (gridpoints):     31743 (   17587481).
MG BCs: -ve charge blocks (gridpoints):      8329 (    1107876).
MG BCs:     Elided blocks (gridpoints):    183473 (  192008188).
MG BCs: Computational effort saved:  99.9810%.
MG BCs: Charge after coarse-graining:           -9.0010474.
MG DL_MG: Calling solver with defect correction order = 8
MG DL_MG: Solver finished
MG Hartree energy from (\int phi*rho dr):              1431.190608
MG Hartree energy from (\int eps (grad phi)^2 dr):     1430.554907
MG Discrepancy due to finite box and discretization:     -0.635701 (  -0.04442%)
MG Correction to account for finite box:                  0.461468
MG Remaining discrepancy, due to discretization:         -0.174233 (  -0.01217%)
      ideal mu1:      -0.797882984384
             Q0:  -11495.232124656322
             G0:      -0.371822730256
   RMS gradient:       0.000098134554
MG BCs: +ve charge blocks (gridpoints):     31752 (   17586742).
MG BCs: -ve charge blocks (gridpoints):      8329 (    1108459).
MG BCs:     Elided blocks (gridpoints):    183466 (  192008344).
MG BCs: Computational effort saved:  99.9810%.
MG BCs: Charge after coarse-graining:           -9.0010469.
MG DL_MG: Calling solver with defect correction order = 8
MG DL_MG: Solver finished
MG Hartree energy from (\int phi*rho dr):              1429.295738
MG Hartree energy from (\int eps (grad phi)^2 dr):     1428.661354
MG Discrepancy due to finite box and discretization:     -0.634383 (  -0.04438%)
MG Correction to account for finite box:                  0.459913
MG Remaining discrepancy, due to discretization:         -0.174470 (  -0.01221%)
     Trial step:       0.666426377811
             Q1:  -11495.373640338192
 Quadratic coef:       0.106276793444
 Linear coef   :      -0.247792475313
           Qmin:  -11495.376561435114
Quadratic minimum step length (  0.776912044581) accepted
    Initial Ne1:    7192.00005568
      Final Ne1:    7192.00000000

=================== Penalty functional idempotency correction ==================
 RMS occupancy error at iteration   1:  0.008328 (step -0.2188 Ne1=   7192.0000)
 RMS occupancy error at iteration   2:  0.000454 (step -0.4922 Ne1=   7192.0000)
 RMS occupancy error at iteration   3:  0.000007 (step -0.5003 Ne1=   7192.0000)
            Final RMS occupancy error   :  0.000000 (Ne1=   7192.0000)
               Final occupancy bounds   : [  0.0000,  1.0000]
================================================================================

    6        -1.149523212466E+04     9.8135E-05     8.8760E-05    -8.0294E-02
MG BCs: +ve charge blocks (gridpoints):     31749 (   17586517).
MG BCs: -ve charge blocks (gridpoints):      8329 (    1108592).
MG BCs:     Elided blocks (gridpoints):    183469 (  192008436).
MG BCs: Computational effort saved:  99.9810%.
MG BCs: Charge after coarse-graining:           -9.0010469.
MG DL_MG: Calling solver with defect correction order = 8
MG DL_MG: Solver finished
MG Hartree energy from (\int phi*rho dr):              1429.048022
MG Hartree energy from (\int eps (grad phi)^2 dr):     1428.413259
MG Discrepancy due to finite box and discretization:     -0.634763 (  -0.04442%)
MG Correction to account for finite box:                  0.460257
MG Remaining discrepancy, due to discretization:         -0.174506 (  -0.01221%)
      ideal mu1:      -0.799280345264
             Q0:  -11495.307446751161
             G0:      -1.093406083156
   RMS gradient:       0.000160747209
MG BCs: +ve charge blocks (gridpoints):     31744 (   17589072).
MG BCs: -ve charge blocks (gridpoints):      8320 (    1107217).
MG BCs:     Elided blocks (gridpoints):    183471 (  192007256).
MG BCs: Computational effort saved:  99.9810%.
MG BCs: Charge after coarse-graining:           -9.0010481.
MG DL_MG: Calling solver with defect correction order = 8
MG DL_MG: Solver finished
MG Hartree energy from (\int phi*rho dr):              1431.546040
MG Hartree energy from (\int eps (grad phi)^2 dr):     1430.913063
MG Discrepancy due to finite box and discretization:     -0.632977 (  -0.04422%)
MG Correction to account for finite box:                  0.458908
MG Remaining discrepancy, due to discretization:         -0.174069 (  -0.01216%)
     Trial step:       0.719551721385
             Q1:  -11495.664800880942
 Quadratic coef:       0.429408099526
 Linear coef   :      -0.786762229307
           Qmin:  -11495.667823515216
Quadratic minimum step length (  0.659181926288) accepted
    Initial Ne1:    7191.99993017
      Final Ne1:    7192.00000000

=================== Penalty functional idempotency correction ==================
 RMS occupancy error at iteration   1:  0.001321 (step -0.4101 Ne1=   7192.0000)
 RMS occupancy error at iteration   2:  0.000017 (step -0.4999 Ne1=   7192.0000)
            Final RMS occupancy error   :  0.000000 (Ne1=   7192.0000)
               Final occupancy bounds   : [ -0.0000,  1.0000]
================================================================================

    7        -1.149530744675E+04     1.6075E-04     1.4539E-04    -7.5322E-02
MG BCs: +ve charge blocks (gridpoints):     31744 (   17588775).
MG BCs: -ve charge blocks (gridpoints):      8321 (    1107380).
MG BCs:     Elided blocks (gridpoints):    183471 (  192007390).
MG BCs: Computational effort saved:  99.9810%.
MG BCs: Charge after coarse-graining:           -9.0010480.
MG DL_MG: Calling solver with defect correction order = 8
MG DL_MG: Solver finished
MG Hartree energy from (\int phi*rho dr):              1431.329717
MG Hartree energy from (\int eps (grad phi)^2 dr):     1430.696608
MG Discrepancy due to finite box and discretization:     -0.633109 (  -0.04423%)
MG Correction to account for finite box:                  0.459006
MG Remaining discrepancy, due to discretization:         -0.174104 (  -0.01216%)
      ideal mu1:      -0.804915552039
             Q0:  -11495.670205731178
             G0:      -0.883575121363
   RMS gradient:       0.000144175895
MG BCs: +ve charge blocks (gridpoints):     31741 (   17589591).
MG BCs: -ve charge blocks (gridpoints):      8315 (    1106597).
MG BCs:     Elided blocks (gridpoints):    183475 (  192007357).
MG BCs: Computational effort saved:  99.9810%.
MG BCs: Charge after coarse-graining:           -9.0010485.
MG DL_MG: Calling solver with defect correction order = 8
MG DL_MG: Solver finished
MG Hartree energy from (\int phi*rho dr):              1432.215381
MG Hartree energy from (\int eps (grad phi)^2 dr):     1431.583201
MG Discrepancy due to finite box and discretization:     -0.632179 (  -0.04414%)
MG Correction to account for finite box:                  0.458314
MG Remaining discrepancy, due to discretization:         -0.173865 (  -0.01214%)
     Trial step:       0.688705662650
             Q1:  -11495.826252691913
 Quadratic coef:       0.452476228724
 Linear coef   :      -0.608523189459
           Qmin:  -11495.874802375489
Quadratic minimum step length (  0.463110921448) accepted
    Initial Ne1:    7192.00000088
      Final Ne1:    7192.00000000

=================== Penalty functional idempotency correction ==================
 RMS occupancy error at iteration   1:  0.003104 (step -0.3321 Ne1=   7192.0000)
 RMS occupancy error at iteration   2:  0.000054 (step -0.4993 Ne1=   7192.0000)
            Final RMS occupancy error   :  0.000000 (Ne1=   7192.0000)
               Final occupancy bounds   : [ -0.0000,  1.0000]
================================================================================

    8        -1.149567020573E+04     1.4418E-04     1.3040E-04    -3.6276E-01
MG BCs: +ve charge blocks (gridpoints):     31745 (   17589363).
MG BCs: -ve charge blocks (gridpoints):      8317 (    1106820).
MG BCs:     Elided blocks (gridpoints):    183471 (  192007362).
MG BCs: Computational effort saved:  99.9810%.
MG BCs: Charge after coarse-graining:           -9.0010483.
MG DL_MG: Calling solver with defect correction order = 8
MG DL_MG: Solver finished
MG Hartree energy from (\int phi*rho dr):              1431.891137
MG Hartree energy from (\int eps (grad phi)^2 dr):     1431.259298
MG Discrepancy due to finite box and discretization:     -0.631838 (  -0.04413%)
MG Correction to account for finite box:                  0.457895
MG Remaining discrepancy, due to discretization:         -0.173944 (  -0.01215%)
      ideal mu1:      -0.807611099547
             Q0:  -11495.910276938346
             G0:      -0.444942946807
   RMS gradient:       0.000091094657
MG BCs: +ve charge blocks (gridpoints):     31743 (   17588065).
MG BCs: -ve charge blocks (gridpoints):      8326 (    1107339).
MG BCs:     Elided blocks (gridpoints):    183475 (  192008141).
MG BCs: Computational effort saved:  99.9810%.
MG BCs: Charge after coarse-graining:           -9.0010480.
MG DL_MG: Calling solver with defect correction order = 8
MG DL_MG: Solver finished
MG Hartree energy from (\int phi*rho dr):              1430.760532
MG Hartree energy from (\int eps (grad phi)^2 dr):     1430.129004
MG Discrepancy due to finite box and discretization:     -0.631528 (  -0.04414%)
MG Correction to account for finite box:                  0.457579
MG Remaining discrepancy, due to discretization:         -0.173950 (  -0.01216%)
     Trial step:       0.564754029677
             Q1:  -11495.994595997036
 Quadratic coef:       0.166964263497
 Linear coef   :      -0.251283322185
           Qmin:  -11496.004823080566
Quadratic minimum step length (  0.424980968450) accepted
    Initial Ne1:    7192.00080774
      Final Ne1:    7192.00000000

=================== Penalty functional idempotency correction ==================
 RMS occupancy error at iteration   1:  0.002142 (step -0.3695 Ne1=   7192.0000)
 RMS occupancy error at iteration   2:  0.000028 (step -0.4993 Ne1=   7192.0000)
            Final RMS occupancy error   :  0.000000 (Ne1=   7192.0000)
               Final occupancy bounds   : [ -0.0000,  1.0000]
================================================================================

    9        -1.149591027694E+04     9.1095E-05     8.2393E-05    -2.4007E-01
MG BCs: +ve charge blocks (gridpoints):     31745 (   17588331).
MG BCs: -ve charge blocks (gridpoints):      8321 (    1107236).
MG BCs:     Elided blocks (gridpoints):    183473 (  192007978).
MG BCs: Computational effort saved:  99.9810%.
MG BCs: Charge after coarse-graining:           -9.0010481.
MG DL_MG: Calling solver with defect correction order = 8
MG DL_MG: Solver finished
MG Hartree energy from (\int phi*rho dr):              1431.035117
MG Hartree energy from (\int eps (grad phi)^2 dr):     1430.403772
MG Discrepancy due to finite box and discretization:     -0.631345 (  -0.04412%)
MG Correction to account for finite box:                  0.457395
MG Remaining discrepancy, due to discretization:         -0.173950 (  -0.01216%)
      ideal mu1:      -0.807100635497
   10        -1.149602050289E+04     6.3409E-05     5.7352E-05    -1.1023E-01
Finished density kernel iterations (  10)

Writing density kernel to file "host_10361.vacuum_dkn" ... done


>>> Density kernel optimised for the current NGWF basis:
     ~~~~~~~~~~~~~~~~~~~~~~~~~~~~~~~~~~~~~~~~~~~~~~~~~~~~~~~~~~~
     Total energy                =  -1.14960205028872E+04  Eh
     Estimated bandgap           =  -2.4250E-01  Eh
     RMS occupancy error         =   3.5433E-08
     [H,K] commutator            =   5.7352E-05
     Occupancy bounds            = [ -0.000:  1.000]
     ~~~~~~~~~~~~~~~~~~~~~~~~~~~~~~~~~~~~~~~~~~~~~~~~~~~~~~~~~~~




################################################################################
########################### NGWF CG iteration  001 #############################
################################################################################
****** Reciprocal space K.E. preconditioning with k_zero =  3.5000 a0^-1 *******

>>> Checking for convergence of NGWFs:   NOT CONVERGED
  ========================================================================
         NGWF RMS gradient =  1.6197E-03 >  2.0000E-06  | above tolerance
  ========================================================================

>>> Improving NGWFs using line search:
============ Calculation of NGWF S^-1 using Hotelling algorithm ================ 
         Iteration  |  Frobenius norm and Maximum abs value    (of I-S*S_n^-1)   
               1       0.23272343E+00     0.63918726E-02
               2       0.12532285E-02     0.55038229E-04
               3       0.61086047E-07     0.47802053E-08
               4       0.12958745E-12     0.73274720E-14
================================================================================
MG BCs: +ve charge blocks (gridpoints):     31216 (   17533256).
MG BCs: -ve charge blocks (gridpoints):      8318 (    1103994).
MG BCs:     Elided blocks (gridpoints):    184005 (  192066295).
MG BCs: Computational effort saved:  99.9812%.
MG BCs: Charge after coarse-graining:           -9.0010477.
MG DL_MG: Calling solver with defect correction order = 8
MG DL_MG: Solver finished
MG Hartree energy from (\int phi*rho dr):              1403.300878
MG Hartree energy from (\int eps (grad phi)^2 dr):     1402.670728
MG Discrepancy due to finite box and discretization:     -0.630150 (  -0.04490%)
MG Correction to account for finite box:                  0.457383
MG Remaining discrepancy, due to discretization:         -0.172767 (  -0.01231%)
============ Calculation of NGWF S^-1 using Hotelling algorithm ================ 
         Iteration  |  Frobenius norm and Maximum abs value    (of I-S*S_n^-1)   
               1       0.21690030E+01     0.49099045E-01
               2       0.96747446E-01     0.30276295E-02
               3       0.26601717E-03     0.17594286E-04
               4       0.41020226E-08     0.80582820E-09
               5       0.11563627E-12     0.53290705E-14
================================================================================
------------------------------- NGWF line search -------------------------------
RMS gradient                =       0.00161973739650
Trial step length           =               0.122474
Gradient along search dir.  =       -289.84874074593
Functional at step 0        =  -11496.02050288720056
Functional at step 1        =  -11528.78552106465213
Functional predicted        =  -11611.25073291775698
Selected quadratic step     =               0.795106
--------------------------- NGWF line search finished --------------------------
                                               
Writing NGWFs to file "host_10361.vacuum_tightbox_ngwfs"....  done

>>> Optimising kernel for current NGWFs:
   Initial electron number for spin 1:    7237.54904185
     Final electron number for spin 1:    7192.00000000

=================== Penalty functional idempotency correction ==================
 RMS occupancy error at iteration   1:  0.005176 (step -0.4829 Ne1=   7192.0000)
 RMS occupancy error at iteration   2:  0.000096 (step -0.5003 Ne1=   7192.0000)
            Final RMS occupancy error   :  0.000000 (Ne1=   7192.0000)
               Final occupancy bounds   : [  0.0000,  1.0000]
================================================================================

................................................................................
<<<<<<<<<<<<<< LNV (Original version) density kernel optimisation >>>>>>>>>>>>>>
~~~~~~~~~~~~~~~~~~~~~~~~~~~~~~~~~~~~~~~~~~~~~~~~~~~~~~~~~~~~~~~~~~~~~~~~~~~~~~~~
   iter  |      energy (Eh)       | rms gradient |  commutator  |   dE (Eh)
MG BCs: +ve charge blocks (gridpoints):     25476 (   17305322).
MG BCs: -ve charge blocks (gridpoints):      8435 (    1074331).
MG BCs:     Elided blocks (gridpoints):    189756 (  192323892).
MG BCs: Computational effort saved:  99.9839%.
MG BCs: Charge after coarse-graining:           -9.0007539.
MG DL_MG: Calling solver with defect correction order = 8
MG DL_MG: Solver finished
MG Hartree energy from (\int phi*rho dr):              1273.097895
MG Hartree energy from (\int eps (grad phi)^2 dr):     1272.469806
MG Discrepancy due to finite box and discretization:     -0.628088 (  -0.04934%)
MG Correction to account for finite box:                  0.457355
MG Remaining discrepancy, due to discretization:         -0.170733 (  -0.01341%)
      ideal mu1:      -0.749238780027
             Q0:  -11610.597212373512
             G0:      -9.358353782819
   RMS gradient:       0.000470275581
MG BCs: +ve charge blocks (gridpoints):     25514 (   17312813).
MG BCs: -ve charge blocks (gridpoints):      8427 (    1072920).
MG BCs:     Elided blocks (gridpoints):    189718 (  192317812).
MG BCs: Computational effort saved:  99.9839%.
MG BCs: Charge after coarse-graining:           -9.0007516.
MG DL_MG: Calling solver with defect correction order = 8
MG DL_MG: Solver finished
MG Hartree energy from (\int phi*rho dr):              1280.707989
MG Hartree energy from (\int eps (grad phi)^2 dr):     1280.077193
MG Discrepancy due to finite box and discretization:     -0.630796 (  -0.04925%)
MG Correction to account for finite box:                  0.456694
MG Remaining discrepancy, due to discretization:         -0.174102 (  -0.01359%)
     Trial step:       0.489907863244
             Q1:  -11611.862221036921
 Quadratic coef:       3.319722441809
 Linear coef   :      -4.584731105218
           Qmin:  -11612.180157911551
Quadratic minimum step length (  0.338295724820) accepted
    Initial Ne1:    7191.99897308
      Final Ne1:    7192.00000000

=================== Penalty functional idempotency correction ==================
 RMS occupancy error at iteration   1:  0.000367 (step -0.4984 Ne1=   7192.0000)
 RMS occupancy error at iteration   2:  0.000001 (step -0.5000 Ne1=   7192.0000)
            Final RMS occupancy error   :  0.000000 (Ne1=   7192.0000)
               Final occupancy bounds   : [  0.0000,  1.0000]
================================================================================

    1        -1.161059721237E+04     4.7028E-04     4.2535E-04
MG BCs: +ve charge blocks (gridpoints):     25506 (   17310690).
MG BCs: -ve charge blocks (gridpoints):      8428 (    1073340).
MG BCs:     Elided blocks (gridpoints):    189726 (  192319515).
MG BCs: Computational effort saved:  99.9839%.
MG BCs: Charge after coarse-graining:           -9.0007521.
MG DL_MG: Calling solver with defect correction order = 8
MG DL_MG: Solver finished
MG Hartree energy from (\int phi*rho dr):              1277.986887
MG Hartree energy from (\int eps (grad phi)^2 dr):     1277.356980
MG Discrepancy due to finite box and discretization:     -0.629907 (  -0.04929%)
MG Correction to account for finite box:                  0.456876
MG Remaining discrepancy, due to discretization:         -0.173031 (  -0.01354%)
      ideal mu1:      -0.755294339730
             Q0:  -11612.174127637176
             G0:      -0.928649924855
   RMS gradient:       0.000147950567
MG BCs: +ve charge blocks (gridpoints):     25504 (   17309421).
MG BCs: -ve charge blocks (gridpoints):      8431 (    1074266).
MG BCs:     Elided blocks (gridpoints):    189728 (  192319858).
MG BCs: Computational effort saved:  99.9839%.
MG BCs: Charge after coarse-graining:           -9.0007522.
MG DL_MG: Calling solver with defect correction order = 8
MG DL_MG: Solver finished
MG Hartree energy from (\int phi*rho dr):              1278.165254
MG Hartree energy from (\int eps (grad phi)^2 dr):     1277.535275
MG Discrepancy due to finite box and discretization:     -0.629980 (  -0.04929%)
MG Correction to account for finite box:                  0.456696
MG Remaining discrepancy, due to discretization:         -0.173284 (  -0.01356%)
     Trial step:       0.407104084591
             Q1:  -11612.388204779360
 Quadratic coef:       0.163980035381
 Linear coef   :      -0.378057177564
           Qmin:  -11612.392031038002
Quadratic minimum step length (  0.469290730540) accepted
    Initial Ne1:    7191.99985896
      Final Ne1:    7192.00000000

=================== Penalty functional idempotency correction ==================
 RMS occupancy error at iteration   1:  0.000197 (step -0.4950 Ne1=   7192.0000)
 RMS occupancy error at iteration   2:  0.000002 (step -0.5000 Ne1=   7192.0000)
            Final RMS occupancy error   :  0.000000 (Ne1=   7192.0000)
               Final occupancy bounds   : [  0.0000,  1.0000]
================================================================================

    2        -1.161217412764E+04     1.4795E-04     1.3382E-04    -1.5769E+00
MG BCs: +ve charge blocks (gridpoints):     25504 (   17309174).
MG BCs: -ve charge blocks (gridpoints):      8430 (    1074444).
MG BCs:     Elided blocks (gridpoints):    189728 (  192319927).
MG BCs: Computational effort saved:  99.9839%.
MG BCs: Charge after coarse-graining:           -9.0007523.
MG DL_MG: Calling solver with defect correction order = 8
MG DL_MG: Solver finished
MG Hartree energy from (\int phi*rho dr):              1278.192164
MG Hartree energy from (\int eps (grad phi)^2 dr):     1277.562168
MG Discrepancy due to finite box and discretization:     -0.629995 (  -0.04929%)
MG Correction to account for finite box:                  0.456672
MG Remaining discrepancy, due to discretization:         -0.173324 (  -0.01356%)
      ideal mu1:      -0.755742577799
             Q0:  -11612.392449901206
             G0:      -0.212129863148
   RMS gradient:       0.000070712640
MG BCs: +ve charge blocks (gridpoints):     25503 (   17308423).
MG BCs: -ve charge blocks (gridpoints):      8429 (    1074845).
MG BCs:     Elided blocks (gridpoints):    189729 (  192320277).
MG BCs: Computational effort saved:  99.9839%.
MG BCs: Charge after coarse-graining:           -9.0007522.
MG DL_MG: Calling solver with defect correction order = 8
MG DL_MG: Solver finished
MG Hartree energy from (\int phi*rho dr):              1277.598480
MG Hartree energy from (\int eps (grad phi)^2 dr):     1276.968673
MG Discrepancy due to finite box and discretization:     -0.629807 (  -0.04930%)
MG Correction to account for finite box:                  0.456553
MG Remaining discrepancy, due to discretization:         -0.173254 (  -0.01356%)
     Trial step:       0.437092865720
             Q1:  -11612.454078915413
 Quadratic coef:       0.031091435581
 Linear coef   :      -0.092720449788
           Qmin:  -11612.461577312406
Quadratic minimum step length (  0.651746153740) accepted
    Initial Ne1:    7191.99995477
      Final Ne1:    7192.00000000

=================== Penalty functional idempotency correction ==================
 RMS occupancy error at iteration   1:  0.000260 (step -0.4821 Ne1=   7192.0000)
 RMS occupancy error at iteration   2:  0.000003 (step -0.5000 Ne1=   7192.0000)
            Final RMS occupancy error   :  0.000000 (Ne1=   7192.0000)
               Final occupancy bounds   : [  0.0000,  1.0000]
================================================================================

    3        -1.161239244990E+04     7.0713E-05     6.3958E-05    -2.1832E-01
MG BCs: +ve charge blocks (gridpoints):     25500 (   17308107).
MG BCs: -ve charge blocks (gridpoints):      8429 (    1075004).
MG BCs:     Elided blocks (gridpoints):    189732 (  192320434).
MG BCs: Computational effort saved:  99.9839%.
MG BCs: Charge after coarse-graining:           -9.0007522.
MG DL_MG: Calling solver with defect correction order = 8
MG DL_MG: Solver finished
MG Hartree energy from (\int phi*rho dr):              1277.306401
MG Hartree energy from (\int eps (grad phi)^2 dr):     1276.676674
MG Discrepancy due to finite box and discretization:     -0.629728 (  -0.04930%)
MG Correction to account for finite box:                  0.456508
MG Remaining discrepancy, due to discretization:         -0.173220 (  -0.01356%)
      ideal mu1:      -0.754779283870
             Q0:  -11612.461875215056
             G0:      -0.056360897115
   RMS gradient:       0.000036338981
MG BCs: +ve charge blocks (gridpoints):     25500 (   17308038).
MG BCs: -ve charge blocks (gridpoints):      8428 (    1075031).
MG BCs:     Elided blocks (gridpoints):    189732 (  192320476).
MG BCs: Computational effort saved:  99.9839%.
MG BCs: Charge after coarse-graining:           -9.0007522.
MG DL_MG: Calling solver with defect correction order = 8
MG DL_MG: Solver finished
MG Hartree energy from (\int phi*rho dr):              1277.397063
MG Hartree energy from (\int eps (grad phi)^2 dr):     1276.767488
MG Discrepancy due to finite box and discretization:     -0.629575 (  -0.04929%)
MG Correction to account for finite box:                  0.456453
MG Remaining discrepancy, due to discretization:         -0.173122 (  -0.01355%)
     Trial step:       0.533735509462
             Q1:  -11612.479599650367
 Quadratic coef:       0.012357376825
 Linear coef   :      -0.030081812135
           Qmin:  -11612.480182405858
Quadratic minimum step length (  0.649641568464) accepted
    Initial Ne1:    7191.99998668
      Final Ne1:    7192.00000000

=================== Penalty functional idempotency correction ==================
 RMS occupancy error at iteration   1:  0.000207 (step -0.4837 Ne1=   7192.0000)
 RMS occupancy error at iteration   2:  0.000001 (step -0.5000 Ne1=   7192.0000)
            Final RMS occupancy error   :  0.000000 (Ne1=   7192.0000)
               Final occupancy bounds   : [  0.0000,  1.0000]
================================================================================

    4        -1.161246187522E+04     3.6339E-05     3.2868E-05    -6.9425E-02
MG BCs: +ve charge blocks (gridpoints):     25499 (   17308014).
MG BCs: -ve charge blocks (gridpoints):      8428 (    1075038).
MG BCs:     Elided blocks (gridpoints):    189733 (  192320493).
MG BCs: Computational effort saved:  99.9839%.
MG BCs: Charge after coarse-graining:           -9.0007522.
MG DL_MG: Calling solver with defect correction order = 8
MG DL_MG: Solver finished
MG Hartree energy from (\int phi*rho dr):              1277.416983
MG Hartree energy from (\int eps (grad phi)^2 dr):     1276.787438
MG Discrepancy due to finite box and discretization:     -0.629545 (  -0.04928%)
MG Correction to account for finite box:                  0.456444
MG Remaining discrepancy, due to discretization:         -0.173101 (  -0.01355%)
      ideal mu1:      -0.755158170699
             Q0:  -11612.480324538308
             G0:      -0.026219217380
   RMS gradient:       0.000024721598
MG BCs: +ve charge blocks (gridpoints):     25500 (   17308744).
MG BCs: -ve charge blocks (gridpoints):      8428 (    1074786).
MG BCs:     Elided blocks (gridpoints):    189732 (  192320015).
MG BCs: Computational effort saved:  99.9839%.
MG BCs: Charge after coarse-graining:           -9.0007521.
MG DL_MG: Calling solver with defect correction order = 8
MG DL_MG: Solver finished
MG Hartree energy from (\int phi*rho dr):              1277.923007
MG Hartree energy from (\int eps (grad phi)^2 dr):     1277.293516
MG Discrepancy due to finite box and discretization:     -0.629491 (  -0.04926%)
MG Correction to account for finite box:                  0.456409
MG Remaining discrepancy, due to discretization:         -0.173081 (  -0.01354%)
     Trial step:       0.588843590023
             Q1:  -11612.487788848579
 Quadratic coef:       0.007974707818
 Linear coef   :      -0.015439018089
           Qmin:  -11612.487797015201
Quadratic minimum step length (  0.569999995339) accepted
    Initial Ne1:    7191.99999444
      Final Ne1:    7192.00000000

=================== Penalty functional idempotency correction ==================
 RMS occupancy error at iteration   1:  0.000179 (step -0.4854 Ne1=   7192.0000)
 RMS occupancy error at iteration   2:  0.000001 (step -0.5000 Ne1=   7192.0000)
            Final RMS occupancy error   :  0.000000 (Ne1=   7192.0000)
               Final occupancy bounds   : [  0.0000,  1.0000]
================================================================================

    5        -1.161248032454E+04     2.4722E-05     2.2360E-05    -1.8449E-02
MG BCs: +ve charge blocks (gridpoints):     25500 (   17308714).
MG BCs: -ve charge blocks (gridpoints):      8428 (    1074796).
MG BCs:     Elided blocks (gridpoints):    189732 (  192320035).
MG BCs: Computational effort saved:  99.9839%.
MG BCs: Charge after coarse-graining:           -9.0007521.
MG DL_MG: Calling solver with defect correction order = 8
MG DL_MG: Solver finished
MG Hartree energy from (\int phi*rho dr):              1277.906788
MG Hartree energy from (\int eps (grad phi)^2 dr):     1277.277297
MG Discrepancy due to finite box and discretization:     -0.629491 (  -0.04926%)
MG Correction to account for finite box:                  0.456409
MG Remaining discrepancy, due to discretization:         -0.173082 (  -0.01354%)
      ideal mu1:      -0.755684078295
             Q0:  -11612.487905494636
             G0:      -0.009820707970
   RMS gradient:       0.000015067859
MG BCs: +ve charge blocks (gridpoints):     25500 (   17308666).
MG BCs: -ve charge blocks (gridpoints):      8428 (    1074831).
MG BCs:     Elided blocks (gridpoints):    189732 (  192320048).
MG BCs: Computational effort saved:  99.9839%.
MG BCs: Charge after coarse-graining:           -9.0007521.
MG DL_MG: Calling solver with defect correction order = 8
MG DL_MG: Solver finished
MG Hartree energy from (\int phi*rho dr):              1277.804226
MG Hartree energy from (\int eps (grad phi)^2 dr):     1277.174745
MG Discrepancy due to finite box and discretization:     -0.629481 (  -0.04926%)
MG Correction to account for finite box:                  0.456387
MG Remaining discrepancy, due to discretization:         -0.173094 (  -0.01355%)
     Trial step:       0.579345185161
             Q1:  -11612.491151230875
 Quadratic coef:       0.002443843638
 Linear coef   :      -0.005689579877
           Qmin:  -11612.491217011653
Quadratic minimum step length (  0.674394764195) accepted
    Initial Ne1:    7191.99999751
      Final Ne1:    7192.00000000

=================== Penalty functional idempotency correction ==================
 RMS occupancy error at iteration   1:  0.000139 (step -0.4885 Ne1=   7192.0000)
 RMS occupancy error at iteration   2:  0.000000 (step -0.5000 Ne1=   7192.0000)
            Final RMS occupancy error   :  0.000000 (Ne1=   7192.0000)
               Final occupancy bounds   : [  0.0000,  1.0000]
================================================================================

    6        -1.161248790549E+04     1.5068E-05     1.3629E-05    -7.5810E-03
MG BCs: +ve charge blocks (gridpoints):     25500 (   17308663).
MG BCs: -ve charge blocks (gridpoints):      8429 (    1074839).
MG BCs:     Elided blocks (gridpoints):    189732 (  192320043).
MG BCs: Computational effort saved:  99.9839%.
MG BCs: Charge after coarse-graining:           -9.0007521.
MG DL_MG: Calling solver with defect correction order = 8
MG DL_MG: Solver finished
MG Hartree energy from (\int phi*rho dr):              1277.787442
MG Hartree energy from (\int eps (grad phi)^2 dr):     1277.157963
MG Discrepancy due to finite box and discretization:     -0.629479 (  -0.04926%)
MG Correction to account for finite box:                  0.456384
MG Remaining discrepancy, due to discretization:         -0.173096 (  -0.01355%)
      ideal mu1:      -0.755615666121
             Q0:  -11612.491278308327
             G0:      -0.004154459196
   RMS gradient:       0.000009908546
MG BCs: +ve charge blocks (gridpoints):     25500 (   17308359).
MG BCs: -ve charge blocks (gridpoints):      8429 (    1074922).
MG BCs:     Elided blocks (gridpoints):    189732 (  192320264).
MG BCs: Computational effort saved:  99.9839%.
MG BCs: Charge after coarse-graining:           -9.0007522.
MG DL_MG: Calling solver with defect correction order = 8
MG DL_MG: Solver finished
MG Hartree energy from (\int phi*rho dr):              1277.638796
MG Hartree energy from (\int eps (grad phi)^2 dr):     1277.009311
MG Discrepancy due to finite box and discretization:     -0.629485 (  -0.04927%)
MG Correction to account for finite box:                  0.456385
MG Remaining discrepancy, due to discretization:         -0.173100 (  -0.01355%)
     Trial step:       0.625065884154
             Q1:  -11612.492076026625
 Quadratic coef:       0.001799092413
 Linear coef   :      -0.002596810711
           Qmin:  -11612.492215367733
Quadratic minimum step length (  0.451110173845) accepted
    Initial Ne1:    7191.99999999
      Final Ne1:    7192.00000000

=================== Penalty functional idempotency correction ==================
 RMS occupancy error at iteration   1:  0.000001 (step -0.5000 Ne1=   7192.0000)
            Final RMS occupancy error   :  0.000000 (Ne1=   7192.0000)
               Final occupancy bounds   : [  0.0000,  1.0000]
================================================================================

    7        -1.161249127831E+04     9.9085E-06     8.9621E-06    -3.3728E-03
MG BCs: +ve charge blocks (gridpoints):     25500 (   17308426).
MG BCs: -ve charge blocks (gridpoints):      8429 (    1074908).
MG BCs:     Elided blocks (gridpoints):    189732 (  192320211).
MG BCs: Computational effort saved:  99.9839%.
MG BCs: Charge after coarse-graining:           -9.0007522.
MG DL_MG: Calling solver with defect correction order = 8
MG DL_MG: Solver finished
MG Hartree energy from (\int phi*rho dr):              1277.680073
MG Hartree energy from (\int eps (grad phi)^2 dr):     1277.050590
MG Discrepancy due to finite box and discretization:     -0.629483 (  -0.04927%)
MG Correction to account for finite box:                  0.456384
MG Remaining discrepancy, due to discretization:         -0.173099 (  -0.01355%)
      ideal mu1:      -0.755519638349
             Q0:  -11612.492215246428
             G0:      -0.001785030147
   RMS gradient:       0.000006494633
MG BCs: +ve charge blocks (gridpoints):     25500 (   17308409).
MG BCs: -ve charge blocks (gridpoints):      8429 (    1074892).
MG BCs:     Elided blocks (gridpoints):    189732 (  192320244).
MG BCs: Computational effort saved:  99.9839%.
MG BCs: Charge after coarse-graining:           -9.0007522.
MG DL_MG: Calling solver with defect correction order = 8
MG DL_MG: Solver finished
MG Hartree energy from (\int phi*rho dr):              1277.642166
MG Hartree energy from (\int eps (grad phi)^2 dr):     1277.012682
MG Discrepancy due to finite box and discretization:     -0.629484 (  -0.04927%)
MG Correction to account for finite box:                  0.456380
MG Remaining discrepancy, due to discretization:         -0.173104 (  -0.01355%)
[...]
 RMS occupancy error at iteration   1:  0.000000 (step -0.5000 Ne1=   7192.0000)
            Final RMS occupancy error   :  0.000000 (Ne1=   7192.0000)
               Final occupancy bounds   : [  0.0000,  1.0000]
================================================================================

    7        -1.164808452187E+04     1.3934E-08     1.2603E-08    -1.0477E-09

Reusing previously generated solute cavity.
MG BCs: +ve charge blocks (gridpoints):     29666 (   19505688).
MG BCs: -ve charge blocks (gridpoints):      8444 (    1051735).
MG BCs:     Elided blocks (gridpoints):    185566 (  190146122).
MG BCs: Computational effort saved:  99.9819%.
MG BCs: Charge after coarse-graining:           -9.0010239.
MG DL_MG: Calling solver with defect correction order = 8
MG DL_MG: Solver finished
MG Hartree energy from (\int phi*rho dr):              1229.565791
MG Hartree energy from (\int eps (grad phi)^2 dr):     1229.387513
MG Discrepancy due to finite box and discretization:     -0.178279 (  -0.01450%)
MG Correction to account for finite box:                  0.006247
MG Remaining discrepancy, due to discretization:         -0.172031 (  -0.01399%)
      ideal mu1:      -0.513623842260
             Q0:  -11648.084521873621
             G0:      -0.000000005782
   RMS gradient:       0.000000009204

Reusing previously generated solute cavity.
MG BCs: +ve charge blocks (gridpoints):     29666 (   19505687).
MG BCs: -ve charge blocks (gridpoints):      8444 (    1051735).
MG BCs:     Elided blocks (gridpoints):    185566 (  190146123).
MG BCs: Computational effort saved:  99.9819%.
MG BCs: Charge after coarse-graining:           -9.0010239.
MG DL_MG: Calling solver with defect correction order = 8
MG DL_MG: Solver finished
MG Hartree energy from (\int phi*rho dr):              1229.565800
MG Hartree energy from (\int eps (grad phi)^2 dr):     1229.387521
MG Discrepancy due to finite box and discretization:     -0.178279 (  -0.01450%)
MG Correction to account for finite box:                  0.006247
MG Remaining discrepancy, due to discretization:         -0.172031 (  -0.01399%)
     Trial step:       0.244010995007
             Q1:  -11648.084521873621
 Quadratic coef:       0.000000001412
 Linear coef   :      -0.000000001411
           Qmin:  -11648.084521873974
Quadratic minimum step length (  0.121956357915) accepted
    Initial Ne1:    7192.00000000
      Final Ne1:    7192.00000000

=================== Penalty functional idempotency correction ==================
 RMS occupancy error at iteration   1:  0.000000 (step -0.5000 Ne1=   7192.0000)
            Final RMS occupancy error   :  0.000000 (Ne1=   7192.0000)
               Final occupancy bounds   : [  0.0000,  1.0000]
================================================================================

    8        -1.164808452187E+04     9.2043E-09     8.3251E-09    -6.9849E-10

Reusing previously generated solute cavity.
MG BCs: +ve charge blocks (gridpoints):     29666 (   19505687).
MG BCs: -ve charge blocks (gridpoints):      8444 (    1051735).
MG BCs:     Elided blocks (gridpoints):    185566 (  190146123).
MG BCs: Computational effort saved:  99.9819%.
MG BCs: Charge after coarse-graining:           -9.0010239.
MG DL_MG: Calling solver with defect correction order = 8
MG DL_MG: Solver finished
MG Hartree energy from (\int phi*rho dr):              1229.565796
MG Hartree energy from (\int eps (grad phi)^2 dr):     1229.387517
MG Discrepancy due to finite box and discretization:     -0.178279 (  -0.01450%)
MG Correction to account for finite box:                  0.006247
MG Remaining discrepancy, due to discretization:         -0.172031 (  -0.01399%)
      ideal mu1:      -0.513623840858
             Q0:  -11648.084521873738
             G0:      -0.000000004932
   RMS gradient:       0.000000007308

Reusing previously generated solute cavity.
MG BCs: +ve charge blocks (gridpoints):     29666 (   19505687).
MG BCs: -ve charge blocks (gridpoints):      8444 (    1051735).
MG BCs:     Elided blocks (gridpoints):    185566 (  190146123).
MG BCs: Computational effort saved:  99.9819%.
MG BCs: Charge after coarse-graining:           -9.0010239.
MG DL_MG: Calling solver with defect correction order = 8
MG DL_MG: Solver finished
MG Hartree energy from (\int phi*rho dr):              1229.565798
MG Hartree energy from (\int eps (grad phi)^2 dr):     1229.387520
MG Discrepancy due to finite box and discretization:     -0.178279 (  -0.01450%)
MG Correction to account for finite box:                  0.006247
MG Remaining discrepancy, due to discretization:         -0.172031 (  -0.01399%)
     Trial step:       0.172507078818
             Q1:  -11648.084521873505
 Quadratic coef:       0.000000001084
 Linear coef   :      -0.000000000851
           Qmin:  -11648.084521873905
Quadratic minimum step length (  0.067695363071) accepted
    Initial Ne1:    7192.00000000
      Final Ne1:    7192.00000000

=================== Penalty functional idempotency correction ==================
 RMS occupancy error at iteration   1:  0.000000 (step -0.5000 Ne1=   7192.0000)
            Final RMS occupancy error   :  0.000000 (Ne1=   7192.0000)
               Final occupancy bounds   : [ -0.0000,  1.0000]
================================================================================

    9        -1.164808452187E+04     7.3076E-09     6.6096E-09    -1.1642E-10

Reusing previously generated solute cavity.
MG BCs: +ve charge blocks (gridpoints):     29666 (   19505687).
MG BCs: -ve charge blocks (gridpoints):      8444 (    1051735).
MG BCs:     Elided blocks (gridpoints):    185566 (  190146123).
MG BCs: Computational effort saved:  99.9819%.
MG BCs: Charge after coarse-graining:           -9.0010239.
MG DL_MG: Calling solver with defect correction order = 8
MG DL_MG: Solver finished
MG Hartree energy from (\int phi*rho dr):              1229.565797
MG Hartree energy from (\int eps (grad phi)^2 dr):     1229.387518
MG Discrepancy due to finite box and discretization:     -0.178279 (  -0.01450%)
MG Correction to account for finite box:                  0.006247
MG Remaining discrepancy, due to discretization:         -0.172031 (  -0.01399%)
      ideal mu1:      -0.513623837573
   10        -1.164808452187E+04     6.3565E-09     5.7494E-09     0.0000E+00
Finished density kernel iterations (  10)

Writing density kernel to file "host_10361.dkn" ... done


>>> Density kernel optimised for the current NGWF basis:
     ~~~~~~~~~~~~~~~~~~~~~~~~~~~~~~~~~~~~~~~~~~~~~~~~~~~~~~~~~~~
     Total energy                =  -1.16480845218737E+04  Eh
     Estimated bandgap           =   1.0929E-01  Eh
     RMS occupancy error         =   3.6550E-16
     [H,K] commutator            =   5.7494E-09
     Occupancy bounds            = [ -0.000:  1.000]
     ~~~~~~~~~~~~~~~~~~~~~~~~~~~~~~~~~~~~~~~~~~~~~~~~~~~~~~~~~~~




################################################################################
########################### NGWF CG iteration  005 #############################
################################################################################
****** Reciprocal space K.E. preconditioning with k_zero =  3.5000 a0^-1 *******

>>> Checking for convergence of NGWFs: 
           ........................................................
           |         *** NGWF optimisation converged ***          |
           | RMS NGWF gradient =    0.00000101639148              |
           | Criteria satisfied:                                  |
           | -> RMS NGWF gradient lower than set threshold.       |
           ========================================================

Reusing previously generated solute cavity.
MG BCs: +ve charge blocks (gridpoints):     29666 (   19505687).
MG BCs: -ve charge blocks (gridpoints):      8444 (    1051735).
MG BCs:     Elided blocks (gridpoints):    185566 (  190146123).
MG BCs: Computational effort saved:  99.9819%.
MG BCs: Charge after coarse-graining:           -9.0010239.
MG DL_MG: Calling solver with defect correction order = 8
MG DL_MG: Solver finished
MG Hartree energy from (\int phi*rho dr):              1229.565797
MG Hartree energy from (\int eps (grad phi)^2 dr):     1229.387518
MG Discrepancy due to finite box and discretization:     -0.178279 (  -0.01450%)
MG Correction to account for finite box:                  0.006247
MG Remaining discrepancy, due to discretization:         -0.172031 (  -0.01399%)

================================================================================
           ---------------- ENERGY COMPONENTS (Eh) ----------------
           | Kinetic                    :     8407.56358716697832 |
           | Pseudo. (local,OBC,corr'd) :    -4989.17985541987218 |
           | Pseudopotential (non-local):     1446.23412086429880 |
           | Hartree (molecular)        :     1229.56579667185611 |
           | Exchange-correlation       :    -3333.61183607814019 |
           | Ion-ion (open BC)          :   818610.18327716970816 |
           | Smeared ion non-self corr. :  -818562.32114510505926 |
           | Smeared ion self corr.     :   -14457.16956389741972 |
           | Solvent cavitation energy  :        2.31645202870379 |
           | Solute-solvent dis-rep en. :       -1.66535527473588 |
           | Total                      :   -11648.08452187366129 |
           --------------------------------------------------------
           ------ LOCAL ENERGY COMPONENTS FROM MATRIX TRACES ------
           | Pseudopotential (local)    :    -4989.17985541987400 |
           | Hartree                    :    -1983.46926775058751 |
           --------------------------------------------------------
           Integrated density           :     7191.99999999781721
           Integrated density tr(KS)    :     7191.99999999999909
================================================================================


                        <<<<< CALCULATION SUMMARY >>>>>                         
|ITER|    RMS GRADIENT   |     TOTAL ENERGY    |   step   |     Epredicted              
   0     0.00003733310201 -11648.03653866378590   0.536937 -11648.07787798884237        
   1     0.00001231118686 -11648.08338313142303   0.114512 -11648.08434187835519        
   2     0.00000535316923 -11648.08448423736263   0.020095 -11648.08451604729453        
   3     0.00000235608017 -11648.08452046348248   0.003954 -11648.08452167583164        
   4     0.00000101639148 -11648.08452187373769  <-- CG                                 

=================== Finished the calculation in solvent ========================
= Adjusting the following parameters: 
= read_denskern: F
= read_tightbox_ngwfs: F
= maxit_pen: 0 (restored to user-specified value)
= restart read filename prefix: ""
= restart write filename prefix: ""
================================================================================

================================================================================
IS: Calculation in solvent completed (NGWFs converged).      

Individual components of total energy in solvent:     hartree           kcal/mol
- Usual non-electrostatic DFT terms:    -12878.30141529956200    -8081255.972617
- Electrostatic fixed charge energy:      1229.56579667185611      771564.169656
- Apolar cavitation energy:                  2.31645202870379        1453.595563
- Apolar dispersion-repulsion energy:       -1.66535527473588       -1045.026190
 -------------------------------------------------------------------------------
- Total energy in solvent:              -11648.08452187373769    -7309283.233588

Components of total energy in solvent:                hartree           kcal/mol
- Usual non-electrostatic DFT terms:    -12878.30141529956200    -8081255.972617
- Electrostatic energy:                   1229.56579667185611      771564.169656
- Apolar energy terms:                       0.65109675396792         408.569373
 -------------------------------------------------------------------------------
- Total energy in solvent:              -11648.08452187373769    -7309283.233588

Calculation of free energy of solvation:              hartree           kcal/mol
- Total energy in solvent:         (+)  -11648.08452187373769    -7309283.233588
- Total energy in vacuum:          (-)  -11644.09685622109100    -7306780.935666
 -------------------------------------------------------------------------------
- Total free energy of solvation:           -3.98766565264668       -2502.297922

Components of polar term in f.e. of solvation:        hartree           kcal/mol
- Electrostatic:                            -4.93019395356760       -3093.743348
- Change in nonelectrostatic DFT terms:      0.29143154695339         182.876053
 -------------------------------------------------------------------------------
- Polar term in f.e. of solvation:          -4.63876240661421       -2910.867295

Components of free energy of solvation:               hartree           kcal/mol
- Polar term in f.e. of solvation: (+)      -4.63876240661421       -2910.867295
- Apolar (cavitation, dis., rep.): (+)       0.65109675396792         408.569373
 -------------------------------------------------------------------------------
- Total free energy of solvation:           -3.98766565264629       -2502.297922
================================================================================


------------------------------ TIMING INFORMATION ------------------------------
AVERAGE TIME:   73124.060s on     40 node(s)                                    
TOTAL TIME:     73124.060s on     40 node(s)                                    
================= AVERAGE TIMINGS FROM ALL NODES (CUMULATIVE) ==================
|| TAG                                    #calls    cpu time   %total  Gflops ||
|| work_imbalance                       :     1        0.00s   0.000%  ------ ||
|| parallel_prepare_fd_halos_request    :  1947        0.02s   0.000%  ------ ||
|| sparse_set_to_garbage                :   204        0.05s   0.000%  ------ ||
|| parallel_prepare_fd_halos_satisfy    :  1947        0.06s   0.000%  ------ ||
|| parallel_prepare_fd_halos_alloc      :  1947        0.08s   0.000%  ------ ||
|| ngwfs_initialise_from_radial         :     1        0.17s   0.000%  ------ ||
|| basis_extract_function_from_box      :  5366        0.18s   0.000%  ------ ||
|| restart_ngwfs_tightbox_input         :     1        1.50s   0.002%  ------ ||
|| restart_kernel_read                  :     1        2.45s   0.003%  ------ ||
|| parallel_prepare_fd_halos_comms_imbal:  1947        3.17s   0.004%  ------ ||
|| pseudopotentials_nonlocal_mat        :    30        3.95s   0.005%  ------ ||
|| openbc_locps_radial                  :     1        4.46s   0.006%  ------ ||
|| density_init_guess_real              :     1        9.24s   0.013%  ------ ||
|| parallel_prepare_fd_halos_clear      :  1947       14.92s   0.020%  ------ ||
|| sparse_init                          :     2       22.03s   0.030%  ------ ||
|| projectors_func_ovlp_box             :    30       25.36s   0.035%  ------ ||
|| parallel_prepare_fd_halos_comms_wait :  1947       26.21s   0.036%  ------ ||
|| function_ops_brappd_ketppd           :    30       29.69s   0.041%  ------ ||
|| projectors_init_fftbox_recip         :   206       29.75s   0.041%  ------ ||
|| palser_mano_kernel_optimise          :     1       42.46s   0.058%  ------ ||
|| parallel_prepare_fd_halos            :  1947       44.46s   0.061%  ------ ||
|| ngwf_gradient_coeffs                 :    16       60.91s   0.083%  ------ ||
|| pseudo_make_structure_factor         :     2       62.06s   0.085%  ------ ||
|| sparse_embed_hotelling_invert_embed  :    30       94.01s   0.129%  ------ ||
|| restart_kernel_write                 :    17      101.33s   0.139%  ------ ||
|| basis_copy_function_to_box           : 165.7k     119.65s   0.164%  ------ ||
|| finite_difference_derivative         :  1947      121.14s   0.166%  ------ ||
|| integrals_kinetic                    :    30      177.50s   0.243%  ------ ||
|| restart_ngwfs_tightbox_output        :    14      181.58s   0.248%  ------ ||
|| openbc_locps_on_grid                 :     2      206.98s   0.283%  ------ ||
|| projectors_gradient_batch            :   176      229.36s   0.314%  ------ ||
|| sparse_trace                         :  5015      290.04s   0.397%  ------ ||
|| kernel_purify                        :   495      338.61s   0.463%  ------ ||
|| fourier_apply_box_pair               : 46732      341.61s   0.467% 598.992 ||
|| basis_dot_function_with_box          : 18.84M     351.25s   0.480%  ------ ||
|| lnv_gradient_norm                    :   160      547.04s   0.748%  ------ ||
|| kernel_fix                           :   160      566.24s   0.774%  ------ ||
|| hamiltonian_energy_components        :     4      803.10s   1.098%  ------ ||
|| basis_add_function_to_box            : 50.32M     867.93s   1.187%  ------ ||
|| integrals_locpot_mat_els_batch       :  1859      927.50s   1.268%  ------ ||
|| ke_density_batch_grad_apply          :  3553     1137.24s   1.555%  ------ ||
|| ke_density_batch_row_sums            :  3553     1205.83s   1.649%  ------ ||
|| density_batch_row_sums               :  3553     1206.55s   1.650%  ------ ||
|| fourier_apply_cell_forward           :  8726     1851.67s   2.532%  70.364 ||
|| fourier_apply_cell_backward          :  8728     1905.70s   2.606%  68.385 ||
|| density_fftbox_deposit_to_cell       : 52649     1986.15s   2.716%  ------ ||
|| sparse_product                       :  6499     2048.01s   2.801%  ------ ||
|| ke_density_fftbox_deposit_to_cell    : 52649     2111.84s   2.888%  ------ ||
|| cell_grid_deposit_box_real           : 107.3k    2347.98s   3.211%  ------ ||
|| cell_grid_extract_box_real           : 132.4k    2393.22s   3.273%  ------ ||
|| multigrid_prepare_bound_cond         :   324     2577.30s   3.525%  ------ ||
|| ngwf_gradient_build_batch            :   176     2680.96s   3.666%  ------ ||
|| ngwf_gradient_batch                  :   176     2981.07s   4.077%  ------ ||
|| ngwf_gradient_lnv                    :    16     3167.89s   4.332%  ------ ||
|| potential_apply_to_ngwf_batch        :  1859     3722.18s   5.090%  ------ ||
|| density_fftbox_interpolate_multiply  : 52649     4033.63s   5.516%  ------ ||
|| integrals_locpot_dbl_grid            :   169     4663.12s   6.377%  ------ ||
|| xc_energy_potential                  :   324     4927.83s   6.739%  ------ ||
|| density_batch_interp_deposit         :  3553     6951.35s   9.506%  ------ ||
|| dl_mg_solver_calls                   :   324     7647.28s  10.458%  ------ ||
|| nlxc_vdw_energy                      :   646     8252.34s  11.285%  ------ ||
|| density_on_dbl_grid                  :   323     8652.59s  11.833%  ------ ||
|| potential_apply_to_fftbox_batch      :  5280     9997.32s  13.672%  ------ ||
|| multigrid_calculate_hartree          :   324    10388.21s  14.206%  ------ ||
|| integrals_div_locpot_grad_functions  :   160    14805.26s  20.247%  ------ ||
|| ke_density_fftbox_interpolate_multipl: 52649    16267.31s  22.246%  ------ ||
|| ke_density_batch_interp_deposit      :  3553    19385.25s  26.510%  ------ ||
|| fourier_apply_box                    : 1.196M   21032.25s  28.762% 823.796 ||
|| ke_density_on_dbl_grid               :   323    22210.87s  30.374%  ------ ||
|| hamiltonian_lhxc_calculate           :   319    46093.22s  63.034%  ------ ||
|| lnv_denskernel_optimise_cg           :    16    65632.74s  89.755%  ------ ||
|| ngwf_cg_optimise                     :     2    72264.90s  98.825%  ------ ||
|| total_time                           :     1    73124.06s 100.000%  ------ ||
================================================================================
Overhead of generating timer report: 
- 0 ms averaging over threads,
- 7 ms ensuring consistency across MPI ranks,
- 2 ms printing in order.

Job completed: 12-03-2020 06:13 (-0000)

