 +---------------------------------------------------------------+
 |                                                               |
 |        ####### #     # ####### ####### ####### ######         |
 |        #     # ##    # #          #    #       #     #        |
 |        #     # # #   # #          #    #       #     #        |
 |        #     # #  #  # #####      #    #####   ######         |
 |        #     # #   # # #          #    #       #              |
 |        #     # #    ## #          #    #       #              |
 |        ####### #     # #######    #    ####### #              |
 |                                                               |
 |        Linear-Scaling Ab Initio Total Energy Program          |
 |                                                               |
 |          Release for academic collaborators of ODG            |
 |                                             Version 5.3.2.6.  |
 |                                                               |
 +---------------------------------------------------------------+
 |                                                               |
 |  Authors:                                                     |
 |  Jacek Dziedzic, Peter D. Haynes, Nicholas D. M. Hine,        |
 |  Arash. A. Mostofi, Mike C. Payne and Chris-Kriton Skylaris   |
 |                                                               |
 |  Contributors:                                                |
 |  J. Aarons, L. Andrinopoulos, P. W. Avraam, R. A. Bell,       |
 |  A. Bhandari, G. A. Bramley, R. J. Charlton, S. J. Clark,     |
 |  R. J. Clements, G. C. Constantinescu, F. Corsetti,           |
 |  N. Corsini, O. Dieguez, S. M. M. Dubois, K. K. B. Duff,      |
 |  J. M. Escartin, A. Greco, H. Helal, Q. O. Hill, L. P. Lee,   |
 |  J.-H. Li, E. B. Linscott, G. Moynihan, D. D. O`Regan,        |
 |  O. K. Okan, M. J. S. Phipps, C. J. Pickard,                  |
 |  J. C. A. Prentice, M. I. J. Probert, L. E. Ratcliff,         |
 |  M. Robinson, A. Ruiz Serrano, J. S. Spencer, E. W. Tait,     |
 |  G. Teobaldi, D. Turban, V. Vitale, K. A. Wilkinson,          |
 |  C. Weber, J. C. Womack, N. Yeung and T. J. Zuehlsdorff       |
 |                                                               |
 |                                   Copyright (c) 2004-2019     |
 |                                                               |
 |  Please cite:                                                 |
 |  "Introducing ONETEP: Linear-scaling density functional       |
 |   simulations on parallel computers".                         |
 |   C.-K. Skylaris, P. D. Haynes, A. A. Mostofi, M. C. Payne.   |
 |   J. Chem. Phys. 122 084119 (2005).                           |
 |                                                               |
 |          in all publications arising from your use of ONETEP. |
 |                                                               |
 +---------------------------------------------------------------+
 |                                                               |
 |   ONETEP is based on developments described in the following  |
 |   publications:                                               |
 |                                                               |
 |  "Nonorthogonal generalized Wannier function pseudopotential  |
 |   plane-wave method".                                         |
 |   C.-K. Skylaris, A. A. Mostofi, P. D. Haynes, O. Dieguez,    |
 |   M. C. Payne.                                                |
 |   Phys. Rev. B 66 035119 (2002).                              |
 |                                                               |
 |  "Preconditioned iterative minimization for linear-scaling    |
 |   electronic structure calculations".                         |
 |   A. A. Mostofi, P. D. Haynes, C.-K. Skylaris, M. C. Payne.   |
 |   J. Chem. Phys. 119(17), pp.8842-8848 (2003).                |
 |                                                               |
 |  "Total-energy calculations on a real space grid with         |
 |   localized functions and a plane-wave basis".                |
 |   A. A. Mostofi, C.-K. Skylaris, P. D. Haynes, M. C. Payne.   |
 |   Comput. Phys. Commun. 147, pp.788-802 (2002).               |
 |                                                               |
 |  "Accurate kinetic energy evaluation in electronic structure  |
 |   calculations with localized functions on real space grids"  |
 |   C.-K. Skylaris, A. A. Mostofi, P. D. Haynes, C. J. Pickard, |
 |   M. C. Payne.                                                |
 |   Comput. Phys. Commun. 140, pp.315-322 (2001).               |
 |                                                               |
 |  "Accurate ionic forces and geometry optimization in linear-  |
 |   scaling density-functional theory with local orbitals"      |
 |   N. D. M. Hine, M. Robinson, P. D. Haynes, C.-K. Skylaris,   |
 |   M. C. Payne, and A. A. Mostofi.                             |
 |   Phys. Rev. B 83 195102 (2011).                              |
 |                                                               |
 +---------------------------------------------------------------+

Job started: 20-02-2020 05:50 (-0000)
 
Reading parameters from file "host_21761.dat" ...... done

If your calculation crashes here, before "Checking processes and threads..."
is displayed, then your stack size is insufficient.
If so, use "ulimit -s unlimited" at runtime.
You can disable this check with "check_stack_size F".

Checking processes and threads...
   Determining the default number of threads...
      No default threads set at compilation time: defaulting to 1.
      OpenMP library call suggests 4 threads.
      Hybrid MPI-OpenMP compilation detected.
      Number of MPI processes > 1.
      OMP_NUM_THREADS environment variable present and
      its value matches the one obtained from the OpenMP library call.
      Using this value as default.
      Default threads: 4
      Default applies to threads_max and threads_num_fftboxes.
      Settings in the input file override this default.
   ... done

   Running with 40 MPI processes.
   There are 10 MPI processes running on the same node as the root process.
   Each MPI process is using: 
               1 threads for simulation cell FFTs.
               1 threads for parallel FFT box operations.
               4 threads for loops over batched FFT box operations.
               4 threads in other parallel regions.
... done

Basic input checks...... done

Reading geometry and species blocks from file "host_21761.dat" ...
  <species_atomic_set> block not found: NGWF initialisation set to SOLVE
IS: Dielectric excluded regions:
    - NONE.
    
  Number of PPD points along a3 set to 1.  This is 
  the default value, it may have been provided also in the input file.
... done
 Writing xyz coordinates to file "host_21761.xyz" ... done


--------------------------------------------------------------------------------
---------------------------------- INPUT FILE ----------------------------------
--------------------------------------------------------------------------------

cutoff_energy       : 800 eV                                                    
xc_functional B97M-V                                                            
task SINGLEPOINT                                                                
write_xyz true                                                                  
output_detail VERBOSE                                                           
ngwf_threshold_orig : 0.000002                                                  
kernel_cutoff       : 1000                                                      
k_zero              : 3.5                                                       
elec_cg_max 0                                                                   
occ_mix 1.0                                                                     
dispersion 0                                                                    
maxit_ngwf_cg 40                                                                
minit_lnv 10                                                                    
maxit_lnv 10                                                                    
write_denskern T                                                                
write_tightbox_ngwfs T                                                          
charge 9                                                                        
is_implicit_solvent T                                                           
is_auto_solvation T                                                             
is_include_apolar T                                                             
is_smeared_ion_rep T                                                            
is_solvent_surf_tension 4.7624E-5 Ha/bohr**2                                    
is_apolar_scaling_factor 0.281075                                               
is_solvation_beta 1.3                                                           
is_density_threshold 0.00035                                                    
is_bulk_permittivity 78.54                                                      
is_dielectric_model fix_initial                                                 
is_smeared_ion_width 0.8                                                        
mg_defco_fd_order 8                                                             
is_bc_coarseness 10                                                             
is_bc_surface_coarseness 1                                                      
fine_grid_scale 2.0                                                             
%block species                                                                  
N   N   7 4 8.0                                                                 
H   H   1 1 8.0                                                                 
C   C   6 4 8.0                                                                 
S   S  16 9 8.0                                                                 
O   O   8 4 8.0                                                                 
%endblock species                                                               
%block species_pot                                                              
N   N_00.recpot                                                                 
H   H_04.recpot                                                                 
C   C_01.recpot                                                                 
S   S_00.recpot                                                                 
O   O_02.recpot                                                                 
%endblock species_pot                                                           
%block lattice_cart                                                             
142.669   0.000   0.000                                                         
0.000 146.65   0.000                                                            
0.000   0.000   162.396                                                         
%endblock lattice_cart                                                          
%block positions_abs                                                            
     Hash =   000002286767593771055992
%endblock positions_abs                                                         

--------------------------------------------------------------------------------
-------------------------------- END INPUT FILE --------------------------------
--------------------------------------------------------------------------------


 
 ESDF WARNING(1): "kernelcutoff" (esdf_physical) has no units. Assume "bohr".
 ESDF WARNING(2): "kzero" (esdf_physical) has no units. Assume "1/bohr".
 ESDF WARNING(3
 ): "issmearedionwidth" (esdf_physical) has no units. Assume "bohr".
<<<<<<<<<<<<<<<<<<<<<<<<<<<<<<<<< Full system >>>>>>>>>>>>>>>>>>>>>>>>>>>>>>>>>>
<<<<<<<<<<<<<<<<<<<<<<<<< Pseudopotential information >>>>>>>>>>>>>>>>>>>>>>>>>>
File: N_00.recpot [ 2001 points up to Gmax=  52.9 (1/bohr)]
  Atomic number:  7;  ionic charge:  5.000000
    Shell 1: l = 0; rc = 1.48 bohr
File: H_04.recpot [ 2001 points up to Gmax=  52.9 (1/bohr)]
  Atomic number:  1;  ionic charge:  1.000000
    Local potential
File: C_01.recpot [ 2001 points up to Gmax=  52.9 (1/bohr)]
  Atomic number:  6;  ionic charge:  4.000000
    Shell 1: l = 0; rc = 1.48 bohr
File: S_00.recpot [ 2001 points up to Gmax=  52.9 (1/bohr)]
  Atomic number: 16;  ionic charge:  6.000000
    Shell 1: l = 0; rc = 1.90 bohr
    Shell 2: l = 2; rc = 1.84 bohr
File: O_02.recpot [ 2001 points up to Gmax=  52.9 (1/bohr)]
  Atomic number:  8;  ionic charge:  6.000000
    Shell 1: l = 0; rc = 1.31 bohr
<<<<<<<<<<<<<<<<<<<<<<<<<<<<<<<<<<<<<<<<>>>>>>>>>>>>>>>>>>>>>>>>>>>>>>>>>>>>>>>>

-------------------------- Atom counting information ---------------------------
Symbol    Natoms    Nngwfs    Nprojs
  N        236       944       236
  H       1311      1311         0
  C        810      3240       810
  S          6        54        36
  O        239       956       239
.......   ......    ......    ......
Totals:   2602      6505      1321
--------------------------------------------------------------------------------

=============================== PSINC grid sizes ===============================
                      Simulation cell:  286 x 294 x 320
                              FFT-box:  105 x 105 x  99
                                  PPD:   11 x   6 x   1
Grid space d1=  0.498842657343a0 (KE cutoff=  30.52649Eh = 830.66799eV)
Grid space d2=  0.498809523810a0 (KE cutoff=  30.53054Eh = 830.77835eV)
Grid space d3=  0.507487500000a0 (KE cutoff=  29.49533Eh = 802.60885eV)
================================================================================

********************* Fourier parallelisation information **********************
       Coarse grid (whole simulation cell) dimensions:    286   294   320
          Real-space ('12') slabs/node (min max mean):      8     8     8
         Recip-space ('23') slabs/node (min max mean):      3     4     3
********************************************************************************

********************* Fourier parallelisation information **********************
       Double grid (whole simulation cell) dimensions:    572   588   640
          Real-space ('12') slabs/node (min max mean):     16    16    16
         Recip-space ('23') slabs/node (min max mean):      7     8     7
********************************************************************************
ONETEP fine grid is 572 x 588 x 640 gridpoints, 142.6690 x 146.6500 x 162.3960 bohr.
FD multigrid is     569 x 585 x 633 gridpoints, 141.9207 x 145.9018 x 160.6198 bohr.


Calculating local pseudopotential in open BC on a radial grid ...
Discrepancy between calculated realspace psloc and -Z/x on [5a0,261.215a0]:
max |rel. diff| # avg |rel. diff| #  avg rel. diff #  f # pseudopotential file
 0.000261901569    0.000004963664   0.000000071970   55  'N_00.recpot'
 0.000422260137    0.000017549664  -0.000000063361   55  'H_04.recpot'
 0.000361991046    0.000016543264   0.000000134927   55  'C_01.recpot'
 0.000447743184    0.000019132268   0.000000438157   55  'S_00.recpot'
 0.000711628927    0.000028437426   0.000000135877   55  'O_02.recpot'
... done
 WARNING: meta-GGA functionality under development.
          Using this functional is experimental.
          Minimum tau threshold, xc_min_tau =   1.00000000E-12
 WARNING: Using alternative XC functional PBE for 
          radial densities (xc_radial).

Atom SCF Calculation for N  : Z (AE atom) =   7 : Z (PS atom) =   5
Config String:
Orbitals (num,occ):  2     2.00 3.00
Orbitals   (num,l):  2        0    1
Real-space Grid (nr,dr,rmax): 1203    0.0066555740    8.0000000000
Spherical Bessel Basis (nsws,lmax,cutoff):   47    1  176.3951722778
Confining potential (l,width,scale):  0    3.0000000000  100.0000000000
Confining potential (l,width,scale):  1    3.0000000000  100.0000000000
  1         -4.7312375307   -3.4155304497    7.0523828109   -1.9351020946
  2         -9.7309464766   -2.0532547791    8.2966052865   -2.2494486027
  3         -9.6627394379   -2.1124926340    8.2327997121   -2.2369778124
  4         -9.6814993499   -2.1215521045    8.2229805960   -2.2365178421
  5         -9.6843326483   -2.1250939529    8.2191374534   -2.2362718126
  6         -9.6859628709   -2.1267894855    8.2172963573   -2.2362066344
  7         -9.6867347035   -2.1276425665    8.2163697352   -2.2361903369
  8         -9.6870802100   -2.1280764625    8.2158983890   -2.2361891460
  9         -9.6872290423   -2.1282977424    8.2156580222   -2.2361920435
 10         -9.6872901988   -2.1284107021    8.2155353368   -2.2361953393
 11         -9.6873135296   -2.1284684031    8.2154726809   -2.2361979819
 12         -9.6873212476   -2.1284978948    8.2154406648   -2.2361998431
 13         -9.6873229586   -2.1285129774    8.2154242957   -2.2362010676
 14         -9.6873226456   -2.1285206957    8.2154159216   -2.2362018403
 15         -9.6873218534   -2.1285246479    8.2154116349   -2.2362023142
 16         -9.6873212599   -2.1285262679    8.2154098784   -2.2362025420
 17         -9.6873207834   -2.1285272564    8.2154088068   -2.2362026955
 18         -9.6873204210   -2.1285278597    8.2154081529   -2.2362027982
 19         -9.6873201550   -2.1285282280    8.2154077538   -2.2362028667
 20         -9.6873199645   -2.1285284529    8.2154075102   -2.2362029121
 21         -9.6873198305   -2.1285285903    8.2154073614   -2.2362029421
 22         -9.6873197377   -2.1285286742    8.2154072705   -2.2362029618
Atom SCF converged after  22 iterations to a total energy of     -9.68731974

Atom SCF Calculation for H  : Z (AE atom) =   1 : Z (PS atom) =   1
Config String:
Orbitals (num,occ):  1     1.00
Orbitals   (num,l):  1        0
Real-space Grid (nr,dr,rmax): 1203    0.0066555740    8.0000000000
Spherical Bessel Basis (nsws,lmax,cutoff):   47    0  176.3951722778
Confining potential (l,width,scale):  0    3.0000000000  100.0000000000
  1         -0.3194257691   -0.2393854593    0.2820953124   -0.2424203209
  2         -0.3951823392   -0.2377116493    0.2886404059   -0.2475147891
  3         -0.4317044583   -0.2352244387    0.2921333887   -0.2514046172
  4         -0.4470703708   -0.2341892222    0.2934391879   -0.2531009782
  5         -0.4532132900   -0.2338556667    0.2938388426   -0.2537313520
  6         -0.4556579251   -0.2337612552    0.2939448584   -0.2539550462
  7         -0.4566418315   -0.2337377355    0.2939680120   -0.2540342273
  8         -0.4570437922   -0.2337331116    0.2939708287   -0.2540627372
  9         -0.4572102946   -0.2337328328    0.2939698291   -0.2540732650
 10         -0.4572800424   -0.2337332404    0.2939687193   -0.2540772588
 11         -0.4573095100   -0.2337335791    0.2939680317   -0.2540788122
 12         -0.4573220379   -0.2337337762    0.2939676699   -0.2540794294
 13         -0.4573273880   -0.2337338775    0.2939674931   -0.2540796787
 14         -0.4573296803   -0.2337339266    0.2939674099   -0.2540797808
 15         -0.4573306647   -0.2337339495    0.2939673718   -0.2540798230
 16         -0.4573310882   -0.2337339601    0.2939673545   -0.2540798406
 17         -0.4573312706   -0.2337339649    0.2939673467   -0.2540798479
 18         -0.4573313493   -0.2337339670    0.2939673433   -0.2540798510
Atom SCF converged after  18 iterations to a total energy of     -0.45733135

Atom SCF Calculation for C  : Z (AE atom) =   6 : Z (PS atom) =   4
Config String:
Orbitals (num,occ):  2     2.00 2.00
Orbitals   (num,l):  2        0    1
Real-space Grid (nr,dr,rmax): 1203    0.0066555740    8.0000000000
Spherical Bessel Basis (nsws,lmax,cutoff):   47    1  176.3951722778
Confining potential (l,width,scale):  0    3.0000000000  100.0000000000
Confining potential (l,width,scale):  1    3.0000000000  100.0000000000
  1         -5.2976922011   -1.3069684169    4.5135249990   -1.4493313817
  2         -5.3721716256   -1.3429755895    4.4750154450   -1.4361613026
  3         -5.3809959565   -1.3617365618    4.4541655428   -1.4305930207
  4         -5.3918938866   -1.3667928461    4.4484735100   -1.4294652294
  5         -5.3956096428   -1.3688539142    4.4461376126   -1.4290734646
  6         -5.3968271862   -1.3696852393    4.4451910874   -1.4289366866
  7         -5.3972028401   -1.3700178062    4.4448112275   -1.4288900460
  8         -5.3973067903   -1.3701500158    4.4446598370   -1.4288749220
  9         -5.3973286940   -1.3702023868    4.4445997329   -1.4288704293
 10         -5.3973289850   -1.3702230869    4.4445759233   -1.4288693188
 11         -5.3973254264   -1.3702312560    4.4445665049   -1.4288691775
 12         -5.3973224003   -1.3702344755    4.4445627836   -1.4288692549
 13         -5.3973208708   -1.3702354890    4.4445616088   -1.4288693270
 14         -5.3973198783   -1.3702360102    4.4445610034   -1.4288693814
 15         -5.3973192535   -1.3702362780    4.4445606917   -1.4288694190
 16         -5.3973188684   -1.3702364155    4.4445605313   -1.4288694437
 17         -5.3973186349   -1.3702364860    4.4445604489   -1.4288694595
 18         -5.3973184951   -1.3702365221    4.4445604065   -1.4288694693
 19         -5.3973184122   -1.3702365405    4.4445603848   -1.4288694753
Atom SCF converged after  19 iterations to a total energy of     -5.39731841

Atom SCF Calculation for S  : Z (AE atom) =  16 : Z (PS atom) =   6
Config String:
Orbitals (num,occ):  3     2.00 4.00 0.00
Orbitals   (num,l):  3        0    1    2
Real-space Grid (nr,dr,rmax): 1203    0.0066555740    8.0000000000
Spherical Bessel Basis (nsws,lmax,cutoff):   47    2  176.3951722778
Confining potential (l,width,scale):  0    3.0000000000  100.0000000000
Confining potential (l,width,scale):  1    3.0000000000  100.0000000000
Confining potential (l,width,scale):  2    3.0000000000  100.0000000000
  1        -12.4735062396   -1.0328741412   10.1554312477   -2.4512393157
  2         -9.9458301913   -2.4607392455    8.3041325857   -2.0306994528
  3        -10.1450417646   -2.2931184565    8.4831893826   -2.0812538287
  4        -10.1528335592   -2.2733105793    8.5050388867   -2.0896035179
  5        -10.1571940363   -2.2633716629    8.5160794258   -2.0939370707
  6        -10.1594380571   -2.2584938667    8.5215163935   -2.0961289008
  7        -10.1605856507   -2.2561081821    8.5241804044   -2.0972291378
  8        -10.1611799191   -2.2549395235    8.5254868240   -2.0977806248
  9        -10.1614918752   -2.2543658586    8.5261285885   -2.0980571586
 10        -10.1616572884   -2.2540839121    8.5264441898   -2.0981959233
 11        -10.1617455602   -2.2539453058    8.5265994231   -2.0982656006
 12        -10.1617928447   -2.2538772062    8.5266757320   -2.0983006047
 13        -10.1618182292   -2.2538437891    8.5267131983   -2.0983181961
 14        -10.1618318741   -2.2538274201    8.5267315620   -2.0983270391
 15        -10.1618392144   -2.2538194197    8.5267405433   -2.0983314852
 16        -10.1618431651   -2.2538155200    8.5267449245   -2.0983337210
 17        -10.1618452923   -2.2538136252    8.5267470551   -2.0983348455
 18        -10.1618464380   -2.2538127080    8.5267480875   -2.0983354110
 19        -10.1618470552   -2.2538122659    8.5267485856   -2.0983356955
 20        -10.1618473878   -2.2538120540    8.5267488248   -2.0983358386
 21        -10.1618475670   -2.2538119530    8.5267489389   -2.0983359106
 22        -10.1618476637   -2.2538119053    8.5267489929   -2.0983359468
Atom SCF converged after  22 iterations to a total energy of    -10.16184766

Atom SCF Calculation for O  : Z (AE atom) =   8 : Z (PS atom) =   6
Config String:
Orbitals (num,occ):  2     2.00 4.00
Orbitals   (num,l):  2        0    1
Real-space Grid (nr,dr,rmax): 1203    0.0066555740    8.0000000000
Spherical Bessel Basis (nsws,lmax,cutoff):   47    1  176.3951722778
Confining potential (l,width,scale):  0    3.0000000000  100.0000000000
Confining potential (l,width,scale):  1    3.0000000000  100.0000000000
  1         -1.8735052164   -7.5539365035   10.1554312477   -2.4512393157
  2        -16.0318313751   -3.1285771268   13.6395848164   -3.2358799643
  3        -15.9524020423   -3.0762819706   13.6967272503   -3.2536856837
  4        -15.8521515939   -3.0781493909   13.6951909330   -3.2561700440
  5        -15.8357139793   -3.0748501933   13.6988803334   -3.2580493133
  6        -15.8246052853   -3.0740779781   13.6997881576   -3.2588327446
  7        -15.8189019501   -3.0737449687   13.7001869911   -3.2592378801
  8        -15.8159785510   -3.0736026016   13.7003615168   -3.2594475790
  9        -15.8144776168   -3.0735437994   13.7004360379   -3.2595560735
 10        -15.8137058024   -3.0735207882   13.7004667348   -3.2596122456
 11        -15.8133083127   -3.0735125946   13.7004786868   -3.2596413656
 12        -15.8131032938   -3.0735102195   13.7004828997   -3.2596564858
 13        -15.8129973902   -3.0735099286   13.7004840891   -3.2596643505
 14        -15.8129426040   -3.0735102506   13.7004842061   -3.2596684489
 15        -15.8129142203   -3.0735106556   13.7004840157   -3.2596705887
 16        -15.8128994940   -3.0735109855   13.7004837906   -3.2596717080
 17        -15.8128918425   -3.0735112169   13.7004836103   -3.2596722946
 18        -15.8128878614   -3.0735113674   13.7004834848   -3.2596726026
 19        -15.8128857871   -3.0735114608   13.7004834035   -3.2596727646
 20        -15.8128847048   -3.0735115170   13.7004833533   -3.2596728500
 21        -15.8128841394   -3.0735115501   13.7004833231   -3.2596728951
 22        -15.8128838436   -3.0735115693   13.7004833054   -3.2596729190
 23        -15.8128836887   -3.0735115802   13.7004832951   -3.2596729316
 24        -15.8128836074   -3.0735115864   13.7004832893   -3.2596729383
Atom SCF converged after  24 iterations to a total energy of    -15.81288361

========================== Calculation in vacuum ==============================
= Adjusting the following parameters: 
= is_implicit_solvent: F
= is_include_apolar: F
= write_denskern: T
= write_tightbox_ngwfs: T
= restart read filename prefix: ""
= restart write filename prefix: "vacuum_"
===============================================================================

Determining parallel strategy ...
... using space-filling curve
... NGWF load balancing: max    163;  min    162;  average    163
... Projector load balancing: max     36;  min     32;  average     33
... done
Calculating direct Ion-Ion energy ...
Ion-Ion Energy        :    825133.24562082369812
Basis initialisation ...... NGWF spheres initialised
... Projector spheres initialised
... NGWF tight boxes initialised
... Tight-boxes gathered
... NGWF basis size (local,global):    1183353  47344251
... Nonlocal pseudopotential projector initialisation
... done

========================== Sparse matrix information ===========================
                        Overlap matrix filling:   6.70%
                        Density kernel filling: 100.00%
              NGWF-Proj overlap matrix filling:   1.76%
                    Hamiltonian matrix filling:   7.54%
                  NGWF diagonal matrix filling:   0.05%
                             KS matrix filling: 100.00% 
                           KSKS matrix filling: 100.00% 
================================================================================

Sparse matrix initialisation ... done

Generating smeared ion density ... done
Smeared ion self correction:     -14457.169564
Smeared ion non-self correction: -825085.325114
NGWF initialisation ...... done
============ Calculation of NGWF S^-1 using Hotelling algorithm ================ 
         Iteration  |  Frobenius norm and Maximum abs value    (of I-S*S_n^-1)   
               1       0.78514942E+02     0.98286330E+00
               2       0.76687948E+02     0.96620049E+00
               3       0.73719362E+02     0.93419555E+00
               4       0.69482719E+02     0.87488007E+00
               5       0.64190067E+02     0.77154285E+00
               6       0.58230667E+02     0.70502398E+00
               7       0.52221706E+02     0.66947674E+00
               8       0.46666691E+02     0.64647185E+00
               9       0.40631711E+02     0.60851922E+00
              10       0.32425201E+02     0.54111931E+00
              11       0.21891669E+02     0.43047654E+00
              12       0.11261409E+02     0.28039227E+00
              13       0.37578079E+01     0.13714208E+00
              14       0.61796454E+00     0.41739746E-01
              15       0.34928762E-01     0.45188867E-02
              16       0.29419715E-03     0.57042883E-04
              17       0.35540248E-07     0.92252418E-08
              18       0.97153384E-13     0.11990409E-13
================================================================================
Calculating local pseudopotential in open BC on the fine real space grid ...
... done

MG BCs: +ve charge blocks (gridpoints):     20732 (   16377647).
MG BCs: -ve charge blocks (gridpoints):      8088 (    1096609).
MG BCs:     Elided blocks (gridpoints):    194500 (  193229289).
MG BCs: Computational effort saved:  99.9863%.
MG BCs: Charge after coarse-graining:           -9.0002298.
MG DL_MG: Calling solver with defect correction order = 8
MG DL_MG: Solver finished
MG Hartree energy from (\int phi*rho dr):              1462.680916
MG Hartree energy from (\int eps (grad phi)^2 dr):     1462.080420
MG Discrepancy due to finite box and discretization:     -0.600496 (  -0.04105%)
MG Correction to account for finite box:                  0.453840
MG Remaining discrepancy, due to discretization:         -0.146656 (  -0.01003%)
 WARNING: xc_energy_potential using alternative initial XC functional PBE.
Up spin density kernel initialisation ... 
======= Optimisation of K by Palser-Manolopoulos canonical purification ======== 
         Iteration  |  Band structure energy |    c_n   
               1       -2586.25585697441647    0.5260983
               2       -2761.91166173523288    0.5165779
               3       -2941.10087980092203    0.5155621
               4       -3089.52006552437888    0.5298621
               5       -3179.69649193682653    0.5662453
               6       -3217.00998892717507    0.6092866
               7       -3229.78338821748366    0.6175889
               8       -3235.41710997350856    0.6135050
               9       -3238.13478747504178    0.6301351
              10       -3239.21280634958748    0.6708765
              11       -3239.59247352867715    0.7121251
              12       -3239.74318103695668    0.7297939
              13       -3239.81978447327401    0.7034387
              14       -3239.87303950280148    0.6442757
              15       -3239.91405023477273    0.5755289
              16       -3239.93996256105038    0.5242264
              17       -3239.94975769837311    0.5007364
              18       -3239.95171270675291    0.4981239
              19       -3239.95196309208495    0.4998343
              20       -3239.95197449040279    0.4999998
              21       -3239.95197452127195    0.4999998
Termination criterion satisfied: band energy change below threshold.
Final occupancy bounds: [   -0.00000000000000:    0.99999999999999]
Closest occupancy to 0.5:     0.99999999999999
================================================================================
... done

Writing density kernel to file "host_21761.vacuum_dkn" ... done

>>> Optimising kernel for current NGWFs:
   Initial electron number for spin 1:    7192.00000000
     Final electron number for spin 1:    7192.00000000

=================== Penalty functional idempotency correction ==================
 RMS occupancy error at iteration   1:  0.000000 (step -0.5000 Ne1=   7192.0000)
            Final RMS occupancy error   :  0.000000 (Ne1=   7192.0000)
               Final occupancy bounds   : [  0.0000,  1.0000]
================================================================================

................................................................................
<<<<<<<<<<<<<< LNV (Original version) density kernel optimisation >>>>>>>>>>>>>>
~~~~~~~~~~~~~~~~~~~~~~~~~~~~~~~~~~~~~~~~~~~~~~~~~~~~~~~~~~~~~~~~~~~~~~~~~~~~~~~~
   iter  |      energy (Eh)       | rms gradient |  commutator  |   dE (Eh)
MG BCs: +ve charge blocks (gridpoints):     31730 (   17500229).
MG BCs: -ve charge blocks (gridpoints):      8420 (    1130509).
MG BCs:     Elided blocks (gridpoints):    183496 (  192072807).
MG BCs: Computational effort saved:  99.9809%.
MG BCs: Charge after coarse-graining:           -9.0009942.
MG DL_MG: Calling solver with defect correction order = 8
MG DL_MG: Solver finished
MG Hartree energy from (\int phi*rho dr):              1417.227803
MG Hartree energy from (\int eps (grad phi)^2 dr):     1416.579511
MG Discrepancy due to finite box and discretization:     -0.648293 (  -0.04574%)
MG Correction to account for finite box:                  0.460178
MG Remaining discrepancy, due to discretization:         -0.188114 (  -0.01327%)
      ideal mu1:      -0.749345771169
             Q0:  -11472.910797367105
             G0:    -125.533721616305
   RMS gradient:       0.001722395576
MG BCs: +ve charge blocks (gridpoints):     31699 (   17577356).
MG BCs: -ve charge blocks (gridpoints):      8299 (    1107220).
MG BCs:     Elided blocks (gridpoints):    183527 (  192018969).
MG BCs: Computational effort saved:  99.9810%.
MG BCs: Charge after coarse-graining:           -9.0010165.
MG DL_MG: Calling solver with defect correction order = 8
MG DL_MG: Solver finished
MG Hartree energy from (\int phi*rho dr):              1438.885219
MG Hartree energy from (\int eps (grad phi)^2 dr):     1438.252849
MG Discrepancy due to finite box and discretization:     -0.632370 (  -0.04395%)
MG Correction to account for finite box:                  0.459411
MG Remaining discrepancy, due to discretization:         -0.172959 (  -0.01202%)
     Trial step:       0.500000000000
             Q1:  -11484.983823515708
 Quadratic coef:      50.693834659551
 Linear coef   :     -62.766860808153
           Qmin:  -11492.339584132636
Quadratic minimum step length (  0.309538927316) accepted
    Initial Ne1:    7192.00000000
      Final Ne1:    7192.00000000

=================== Penalty functional idempotency correction ==================
 RMS occupancy error at iteration   1:  0.003195 (step -0.4891 Ne1=   7192.0000)
 RMS occupancy error at iteration   2:  0.000023 (step -0.5000 Ne1=   7192.0000)
            Final RMS occupancy error   :  0.000000 (Ne1=   7192.0000)
               Final occupancy bounds   : [  0.0000,  1.0000]
================================================================================

    1        -1.147291079737E+04     1.7224E-03     1.5579E-03
MG BCs: +ve charge blocks (gridpoints):     31715 (   17549390).
MG BCs: -ve charge blocks (gridpoints):      8341 (    1116355).
MG BCs:     Elided blocks (gridpoints):    183508 (  192037800).
MG BCs: Computational effort saved:  99.9810%.
MG BCs: Charge after coarse-graining:           -9.0010082.
MG DL_MG: Calling solver with defect correction order = 8
MG DL_MG: Solver finished
MG Hartree energy from (\int phi*rho dr):              1424.074091
MG Hartree energy from (\int eps (grad phi)^2 dr):     1423.436459
MG Discrepancy due to finite box and discretization:     -0.637632 (  -0.04478%)
MG Correction to account for finite box:                  0.459614
MG Remaining discrepancy, due to discretization:         -0.178018 (  -0.01250%)
      ideal mu1:      -0.789376040402
             Q0:  -11492.723091404187
             G0:     -11.072954835967
   RMS gradient:       0.000507824558
MG BCs: +ve charge blocks (gridpoints):     31706 (   17566388).
MG BCs: -ve charge blocks (gridpoints):      8314 (    1109460).
MG BCs:     Elided blocks (gridpoints):    183517 (  192027697).
MG BCs: Computational effort saved:  99.9810%.
MG BCs: Charge after coarse-graining:           -9.0010125.
MG DL_MG: Calling solver with defect correction order = 8
MG DL_MG: Solver finished
MG Hartree energy from (\int phi*rho dr):              1429.661693
MG Hartree energy from (\int eps (grad phi)^2 dr):     1429.027639
MG Discrepancy due to finite box and discretization:     -0.634054 (  -0.04435%)
MG Correction to account for finite box:                  0.459034
MG Remaining discrepancy, due to discretization:         -0.175020 (  -0.01224%)
     Trial step:       0.393407503307
             Q1:  -11495.269161055912
 Quadratic coef:       1.810113864518
 Linear coef   :      -4.356183516243
           Qmin:  -11495.343967250614
Quadratic minimum step length (  0.473383281202) accepted
    Initial Ne1:    7191.99992480
      Final Ne1:    7192.00000000

=================== Penalty functional idempotency correction ==================
 RMS occupancy error at iteration   1:  0.001514 (step -0.4946 Ne1=   7192.0000)
 RMS occupancy error at iteration   2:  0.000006 (step -0.5000 Ne1=   7192.0000)
            Final RMS occupancy error   :  0.000000 (Ne1=   7192.0000)
               Final occupancy bounds   : [  0.0000,  1.0000]
================================================================================

    2        -1.149272309140E+04     5.0782E-04     4.5932E-04    -1.9812E+01
MG BCs: +ve charge blocks (gridpoints):     31706 (   17569728).
MG BCs: -ve charge blocks (gridpoints):      8298 (    1107959).
MG BCs:     Elided blocks (gridpoints):    183517 (  192025858).
MG BCs: Computational effort saved:  99.9810%.
MG BCs: Charge after coarse-graining:           -9.0010136.
MG DL_MG: Calling solver with defect correction order = 8
MG DL_MG: Solver finished
MG Hartree energy from (\int phi*rho dr):              1430.822139
MG Hartree energy from (\int eps (grad phi)^2 dr):     1430.188766
MG Discrepancy due to finite box and discretization:     -0.633373 (  -0.04427%)
MG Correction to account for finite box:                  0.458925
MG Remaining discrepancy, due to discretization:         -0.174448 (  -0.01219%)
      ideal mu1:      -0.809993746179
             Q0:  -11495.377618631115
             G0:      -1.838800845965
   RMS gradient:       0.000207046492
MG BCs: +ve charge blocks (gridpoints):     31707 (   17571135).
MG BCs: -ve charge blocks (gridpoints):      8302 (    1107911).
MG BCs:     Elided blocks (gridpoints):    183516 (  192024499).
MG BCs: Computational effort saved:  99.9810%.
MG BCs: Charge after coarse-graining:           -9.0010135.
MG DL_MG: Calling solver with defect correction order = 8
MG DL_MG: Solver finished
MG Hartree energy from (\int phi*rho dr):              1430.280825
MG Hartree energy from (\int eps (grad phi)^2 dr):     1429.647919
MG Discrepancy due to finite box and discretization:     -0.632905 (  -0.04425%)
MG Correction to account for finite box:                  0.458646
MG Remaining discrepancy, due to discretization:         -0.174259 (  -0.01218%)
     Trial step:       0.431546677388
             Q1:  -11495.850436509587
 Quadratic coef:       0.320710516984
 Linear coef   :      -0.793528395455
           Qmin:  -11495.868471971626
Quadratic minimum step length (  0.533884179559) accepted
    Initial Ne1:    7191.99997687
      Final Ne1:    7192.00000000

=================== Penalty functional idempotency correction ==================
 RMS occupancy error at iteration   1:  0.000578 (step -0.4978 Ne1=   7192.0000)
 RMS occupancy error at iteration   2:  0.000001 (step -0.5000 Ne1=   7192.0000)
            Final RMS occupancy error   :  0.000000 (Ne1=   7192.0000)
               Final occupancy bounds   : [  0.0000,  1.0000]
================================================================================

    3        -1.149537761863E+04     2.0705E-04     1.8727E-04    -2.6545E+00
MG BCs: +ve charge blocks (gridpoints):     31706 (   17571316).
MG BCs: -ve charge blocks (gridpoints):      8303 (    1107991).
MG BCs:     Elided blocks (gridpoints):    183517 (  192024238).
MG BCs: Computational effort saved:  99.9810%.
MG BCs: Charge after coarse-graining:           -9.0010136.
MG DL_MG: Calling solver with defect correction order = 8
MG DL_MG: Solver finished
MG Hartree energy from (\int phi*rho dr):              1430.157239
MG Hartree energy from (\int eps (grad phi)^2 dr):     1429.524433
MG Discrepancy due to finite box and discretization:     -0.632806 (  -0.04425%)
MG Correction to account for finite box:                  0.458581
MG Remaining discrepancy, due to discretization:         -0.174225 (  -0.01218%)
      ideal mu1:      -0.812897601094
             Q0:  -11495.873135832022
             G0:      -0.402072593774
   RMS gradient:       0.000096976013
MG BCs: +ve charge blocks (gridpoints):     31707 (   17571849).
MG BCs: -ve charge blocks (gridpoints):      8301 (    1107835).
MG BCs:     Elided blocks (gridpoints):    183516 (  192023861).
MG BCs: Computational effort saved:  99.9810%.
MG BCs: Charge after coarse-graining:           -9.0010136.
MG DL_MG: Calling solver with defect correction order = 8
MG DL_MG: Solver finished
MG Hartree energy from (\int phi*rho dr):              1431.180013
MG Hartree energy from (\int eps (grad phi)^2 dr):     1430.547154
MG Discrepancy due to finite box and discretization:     -0.632859 (  -0.04422%)
MG Correction to account for finite box:                  0.458480
MG Remaining discrepancy, due to discretization:         -0.174379 (  -0.01218%)
     Trial step:       0.479995774772
             Q1:  -11495.971661738120
 Quadratic coef:       0.094467240066
 Linear coef   :      -0.192993146163
           Qmin:  -11495.971705331989
Quadratic minimum step length (  0.490306981838) accepted
    Initial Ne1:    7191.99999522
      Final Ne1:    7192.00000000

=================== Penalty functional idempotency correction ==================
 RMS occupancy error at iteration   1:  0.000185 (step -0.4992 Ne1=   7192.0000)
            Final RMS occupancy error   :  0.000000 (Ne1=   7192.0000)
               Final occupancy bounds   : [ -0.0000,  1.0000]
================================================================================

    4        -1.149587313583E+04     9.6976E-05     8.7713E-05    -4.9552E-01
MG BCs: +ve charge blocks (gridpoints):     31706 (   17571892).
MG BCs: -ve charge blocks (gridpoints):      8301 (    1107818).
MG BCs:     Elided blocks (gridpoints):    183517 (  192023835).
MG BCs: Computational effort saved:  99.9810%.
MG BCs: Charge after coarse-graining:           -9.0010136.
MG DL_MG: Calling solver with defect correction order = 8
MG DL_MG: Solver finished
MG Hartree energy from (\int phi*rho dr):              1431.202222
MG Hartree energy from (\int eps (grad phi)^2 dr):     1430.569362
MG Discrepancy due to finite box and discretization:     -0.632860 (  -0.04422%)
MG Correction to account for finite box:                  0.458478
MG Remaining discrepancy, due to discretization:         -0.174382 (  -0.01218%)
      ideal mu1:      -0.812874895451
             Q0:  -11495.972138331621
             G0:      -0.103876375121
   RMS gradient:       0.000049441175
MG BCs: +ve charge blocks (gridpoints):     31711 (   17571563).
MG BCs: -ve charge blocks (gridpoints):      8304 (    1107991).
MG BCs:     Elided blocks (gridpoints):    183512 (  192023991).
MG BCs: Computational effort saved:  99.9810%.
MG BCs: Charge after coarse-graining:           -9.0010132.
MG DL_MG: Calling solver with defect correction order = 8
MG DL_MG: Solver finished
MG Hartree energy from (\int phi*rho dr):              1430.926342
MG Hartree energy from (\int eps (grad phi)^2 dr):     1430.293335
MG Discrepancy due to finite box and discretization:     -0.633007 (  -0.04424%)
MG Correction to account for finite box:                  0.458489
MG Remaining discrepancy, due to discretization:         -0.174519 (  -0.01220%)
     Trial step:       0.485123983764
             Q1:  -11495.996263699140
 Quadratic coef:       0.026267553398
 Linear coef   :      -0.050392920918
           Qmin:  -11495.996307374320
Quadratic minimum step length (  0.465342435570) accepted
    Initial Ne1:    7192.00177786
      Final Ne1:    7192.00000000

=================== Penalty functional idempotency correction ==================
 RMS occupancy error at iteration   1:  0.000062 (step -0.4997 Ne1=   7192.0000)
            Final RMS occupancy error   :  0.000000 (Ne1=   7192.0000)
               Final occupancy bounds   : [ -0.0000,  1.0000]
================================================================================

    5        -1.149597213833E+04     4.9441E-05     4.4718E-05    -9.9002E-02
MG BCs: +ve charge blocks (gridpoints):     31711 (   17571559).
MG BCs: -ve charge blocks (gridpoints):      8303 (    1107987).
MG BCs:     Elided blocks (gridpoints):    183512 (  192023999).
MG BCs: Computational effort saved:  99.9810%.
MG BCs: Charge after coarse-graining:           -9.0010133.
MG DL_MG: Calling solver with defect correction order = 8
MG DL_MG: Solver finished
MG Hartree energy from (\int phi*rho dr):              1430.937579
MG Hartree energy from (\int eps (grad phi)^2 dr):     1430.304578
MG Discrepancy due to finite box and discretization:     -0.633001 (  -0.04424%)
MG Correction to account for finite box:                  0.458488
MG Remaining discrepancy, due to discretization:         -0.174513 (  -0.01220%)
      ideal mu1:      -0.812269205580
             Q0:  -11495.996352908784
             G0:      -0.024446274954
   RMS gradient:       0.000024008508
MG BCs: +ve charge blocks (gridpoints):     31712 (   17571311).
MG BCs: -ve charge blocks (gridpoints):      8303 (    1108141).
MG BCs:     Elided blocks (gridpoints):    183511 (  192024093).
MG BCs: Computational effort saved:  99.9810%.
MG BCs: Charge after coarse-graining:           -9.0010132.
MG DL_MG: Calling solver with defect correction order = 8
MG DL_MG: Solver finished
MG Hartree energy from (\int phi*rho dr):              1430.451914
MG Hartree energy from (\int eps (grad phi)^2 dr):     1429.818891
MG Discrepancy due to finite box and discretization:     -0.633024 (  -0.04425%)
MG Correction to account for finite box:                  0.458500
MG Remaining discrepancy, due to discretization:         -0.174524 (  -0.01220%)
     Trial step:       0.475130272829
             Q1:  -11496.003405646887
 Quadratic coef:       0.004562427186
 Linear coef   :      -0.011615165289
           Qmin:  -11496.003745468664
Quadratic minimum step length (  0.604800518177) accepted
    Initial Ne1:    7192.00082246
      Final Ne1:    7192.00000000

=================== Penalty functional idempotency correction ==================
 RMS occupancy error at iteration   1:  0.000025 (step -0.4999 Ne1=   7192.0000)
            Final RMS occupancy error   :  0.000000 (Ne1=   7192.0000)
               Final occupancy bounds   : [ -0.0000,  1.0000]
================================================================================

    6        -1.149599635291E+04     2.4009E-05     2.1715E-05    -2.4215E-02
MG BCs: +ve charge blocks (gridpoints):     31711 (   17571267).
MG BCs: -ve charge blocks (gridpoints):      8304 (    1108198).
MG BCs:     Elided blocks (gridpoints):    183512 (  192024080).
MG BCs: Computational effort saved:  99.9810%.
MG BCs: Charge after coarse-graining:           -9.0010132.
MG DL_MG: Calling solver with defect correction order = 8
MG DL_MG: Solver finished
MG Hartree energy from (\int phi*rho dr):              1430.319224
MG Hartree energy from (\int eps (grad phi)^2 dr):     1429.686194
MG Discrepancy due to finite box and discretization:     -0.633029 (  -0.04426%)
MG Correction to account for finite box:                  0.458503
MG Remaining discrepancy, due to discretization:         -0.174527 (  -0.01220%)
      ideal mu1:      -0.812205793464
             Q0:  -11496.003751158831
             G0:      -0.008785099063
   RMS gradient:       0.000014408741
MG BCs: +ve charge blocks (gridpoints):     31711 (   17571655).
MG BCs: -ve charge blocks (gridpoints):      8303 (    1107950).
MG BCs:     Elided blocks (gridpoints):    183512 (  192023940).
MG BCs: Computational effort saved:  99.9810%.
MG BCs: Charge after coarse-graining:           -9.0010133.
MG DL_MG: Calling solver with defect correction order = 8
MG DL_MG: Solver finished
MG Hartree energy from (\int phi*rho dr):              1430.819593
MG Hartree energy from (\int eps (grad phi)^2 dr):     1430.186569
MG Discrepancy due to finite box and discretization:     -0.633024 (  -0.04424%)
MG Correction to account for finite box:                  0.458491
MG Remaining discrepancy, due to discretization:         -0.174533 (  -0.01220%)
     Trial step:       0.536058798275
             Q1:  -11496.005948739243
 Quadratic coef:       0.002511749235
 Linear coef   :      -0.004709329646
           Qmin:  -11496.005958563277
Quadratic minimum step length (  0.502533763241) accepted
    Initial Ne1:    7192.00004571
      Final Ne1:    7192.00000000

=================== Penalty functional idempotency correction ==================
 RMS occupancy error at iteration   1:  0.000001 (step -0.5000 Ne1=   7192.0000)
            Final RMS occupancy error   :  0.000000 (Ne1=   7192.0000)
               Final occupancy bounds   : [  0.0000,  1.0000]
================================================================================

    7        -1.149600375116E+04     1.4409E-05     1.3032E-05    -7.3983E-03
MG BCs: +ve charge blocks (gridpoints):     31711 (   17571611).
MG BCs: -ve charge blocks (gridpoints):      8303 (    1107969).
MG BCs:     Elided blocks (gridpoints):    183512 (  192023965).
MG BCs: Computational effort saved:  99.9810%.
MG BCs: Charge after coarse-graining:           -9.0010133.
MG DL_MG: Calling solver with defect correction order = 8
MG DL_MG: Solver finished
MG Hartree energy from (\int phi*rho dr):              1430.788274
MG Hartree energy from (\int eps (grad phi)^2 dr):     1430.155250
MG Discrepancy due to finite box and discretization:     -0.633025 (  -0.04424%)
MG Correction to account for finite box:                  0.458492
MG Remaining discrepancy, due to discretization:         -0.174533 (  -0.01220%)
      ideal mu1:      -0.812514918107
             Q0:  -11496.005958589260
             G0:      -0.004428778538
   RMS gradient:       0.000010230664
MG BCs: +ve charge blocks (gridpoints):     31712 (   17571661).
MG BCs: -ve charge blocks (gridpoints):      8303 (    1107927).
MG BCs:     Elided blocks (gridpoints):    183511 (  192023957).
MG BCs: Computational effort saved:  99.9810%.
MG BCs: Charge after coarse-graining:           -9.0010133.
MG DL_MG: Calling solver with defect correction order = 8
MG DL_MG: Solver finished
MG Hartree energy from (\int phi*rho dr):              1430.823785
MG Hartree energy from (\int eps (grad phi)^2 dr):     1430.190776
MG Discrepancy due to finite box and discretization:     -0.633009 (  -0.04424%)
MG Correction to account for finite box:                  0.458482
MG Remaining discrepancy, due to discretization:         -0.174527 (  -0.01220%)
     Trial step:       0.519025669130
             Q1:  -11496.007596821757
 Quadratic coef:       0.000660417247
 Linear coef   :      -0.002298649744
           Qmin:  -11496.007958760618
Quadratic minimum step length (  0.903260951620) accepted
    Initial Ne1:    7192.00004122
      Final Ne1:    7192.00000000

=================== Penalty functional idempotency correction ==================
 RMS occupancy error at iteration   1:  0.000007 (step -0.4999 Ne1=   7192.0000)
            Final RMS occupancy error   :  0.000000 (Ne1=   7192.0000)
               Final occupancy bounds   : [ -0.0000,  1.0000]
================================================================================

    8        -1.149600595859E+04     1.0231E-05     9.2534E-06    -2.2074E-03
MG BCs: +ve charge blocks (gridpoints):     31711 (   17571715).
MG BCs: -ve charge blocks (gridpoints):      8303 (    1107899).
MG BCs:     Elided blocks (gridpoints):    183512 (  192023931).
MG BCs: Computational effort saved:  99.9810%.
MG BCs: Charge after coarse-graining:           -9.0010133.
MG DL_MG: Calling solver with defect correction order = 8
MG DL_MG: Solver finished
MG Hartree energy from (\int phi*rho dr):              1430.849633
MG Hartree energy from (\int eps (grad phi)^2 dr):     1430.216636
MG Discrepancy due to finite box and discretization:     -0.632997 (  -0.04424%)
MG Correction to account for finite box:                  0.458474
MG Remaining discrepancy, due to discretization:         -0.174522 (  -0.01220%)
      ideal mu1:      -0.812575970861
             Q0:  -11496.007957722642
             G0:      -0.004777356280
   RMS gradient:       0.000010631388
MG BCs: +ve charge blocks (gridpoints):     31710 (   17571593).
MG BCs: -ve charge blocks (gridpoints):      8303 (    1107983).
MG BCs:     Elided blocks (gridpoints):    183513 (  192023969).
MG BCs: Computational effort saved:  99.9810%.
MG BCs: Charge after coarse-graining:           -9.0010133.
MG DL_MG: Calling solver with defect correction order = 8
MG DL_MG: Solver finished
MG Hartree energy from (\int phi*rho dr):              1430.606061
MG Hartree energy from (\int eps (grad phi)^2 dr):     1429.973084
MG Discrepancy due to finite box and discretization:     -0.632977 (  -0.04425%)
MG Correction to account for finite box:                  0.458464
MG Remaining discrepancy, due to discretization:         -0.174513 (  -0.01220%)
     Trial step:       0.684701117141
             Q1:  -11496.009841855615
 Quadratic coef:       0.001386928208
 Linear coef   :      -0.003271061182
           Qmin:  -11496.009886416787
Quadratic minimum step length (  0.807431571352) accepted
    Initial Ne1:    7192.00005399
      Final Ne1:    7192.00000000

=================== Penalty functional idempotency correction ==================
 RMS occupancy error at iteration   1:  0.000023 (step -0.4994 Ne1=   7192.0000)
            Final RMS occupancy error   :  0.000000 (Ne1=   7192.0000)
               Final occupancy bounds   : [ -0.0000,  1.0000]
================================================================================

    9        -1.149600795772E+04     1.0631E-05     9.6158E-06    -1.9991E-03
MG BCs: +ve charge blocks (gridpoints):     31710 (   17571570).
MG BCs: -ve charge blocks (gridpoints):      8304 (    1107994).
MG BCs:     Elided blocks (gridpoints):    183513 (  192023981).
MG BCs: Computational effort saved:  99.9810%.
MG BCs: Charge after coarse-graining:           -9.0010133.
MG DL_MG: Calling solver with defect correction order = 8
MG DL_MG: Solver finished
MG Hartree energy from (\int phi*rho dr):              1430.562060
MG Hartree energy from (\int eps (grad phi)^2 dr):     1429.929087
MG Discrepancy due to finite box and discretization:     -0.632973 (  -0.04425%)
MG Correction to account for finite box:                  0.458461
MG Remaining discrepancy, due to discretization:         -0.174512 (  -0.01220%)
      ideal mu1:      -0.812395595724
   10        -1.149600988557E+04     9.7618E-06     8.8293E-06    -1.9278E-03
Finished density kernel iterations (  10)

Writing density kernel to file "host_21761.vacuum_dkn" ... done


>>> Density kernel optimised for the current NGWF basis:
     ~~~~~~~~~~~~~~~~~~~~~~~~~~~~~~~~~~~~~~~~~~~~~~~~~~~~~~~~~~~
     Total energy                =  -1.14960098855719E+04  Eh
     Estimated bandgap           =  -2.3406E-01  Eh
     RMS occupancy error         =   1.2922E-08
     [H,K] commutator            =   8.8293E-06
     Occupancy bounds            = [ -0.000:  1.000]
     ~~~~~~~~~~~~~~~~~~~~~~~~~~~~~~~~~~~~~~~~~~~~~~~~~~~~~~~~~~~




################################################################################
########################### NGWF CG iteration  001 #############################
################################################################################
****** Reciprocal space K.E. preconditioning with k_zero =  3.5000 a0^-1 *******

>>> Checking for convergence of NGWFs:   NOT CONVERGED
  ========================================================================
         NGWF RMS gradient =  1.6211E-03 >  2.0000E-06  | above tolerance
  ========================================================================

>>> Improving NGWFs using line search:
============ Calculation of NGWF S^-1 using Hotelling algorithm ================ 
         Iteration  |  Frobenius norm and Maximum abs value    (of I-S*S_n^-1)   
               1       0.23334349E+00     0.63114986E-02
               2       0.12589620E-02     0.51611335E-04
               3       0.61166913E-07     0.38757146E-08
               4       0.13173748E-12     0.99920072E-14
================================================================================
MG BCs: +ve charge blocks (gridpoints):     31206 (   17519652).
MG BCs: -ve charge blocks (gridpoints):      8312 (    1104921).
MG BCs:     Elided blocks (gridpoints):    184023 (  192078972).
MG BCs: Computational effort saved:  99.9812%.
MG BCs: Charge after coarse-graining:           -9.0010162.
MG DL_MG: Calling solver with defect correction order = 8
MG DL_MG: Solver finished
MG Hartree energy from (\int phi*rho dr):              1402.785217
MG Hartree energy from (\int eps (grad phi)^2 dr):     1402.153592
MG Discrepancy due to finite box and discretization:     -0.631625 (  -0.04503%)
MG Correction to account for finite box:                  0.458394
MG Remaining discrepancy, due to discretization:         -0.173232 (  -0.01235%)
============ Calculation of NGWF S^-1 using Hotelling algorithm ================ 
         Iteration  |  Frobenius norm and Maximum abs value    (of I-S*S_n^-1)   
               1       0.21704978E+01     0.49104387E-01
               2       0.96886880E-01     0.30582348E-02
               3       0.26650929E-03     0.13441200E-04
               4       0.35954636E-08     0.38520236E-09
               5       0.11462785E-12     0.55511151E-14
================================================================================
------------------------------- NGWF line search -------------------------------
RMS gradient                =       0.00162106815572
Trial step length           =               0.122474
Gradient along search dir.  =       -290.32520975334
Functional at step 0        =  -11496.00988557189703
Functional at step 1        =  -11528.82767333078664
Functional predicted        =  -11611.38356039215250
Selected quadratic step     =               0.794789
--------------------------- NGWF line search finished --------------------------
                                               
Writing NGWFs to file "host_21761.vacuum_tightbox_ngwfs"....  done

>>> Optimising kernel for current NGWFs:
   Initial electron number for spin 1:    7237.80379960
     Final electron number for spin 1:    7192.00000000

=================== Penalty functional idempotency correction ==================
 RMS occupancy error at iteration   1:  0.005213 (step -0.4828 Ne1=   7192.0000)
 RMS occupancy error at iteration   2:  0.000096 (step -0.5003 Ne1=   7192.0000)
            Final RMS occupancy error   :  0.000000 (Ne1=   7192.0000)
               Final occupancy bounds   : [  0.0000,  1.0000]
================================================================================

................................................................................
<<<<<<<<<<<<<< LNV (Original version) density kernel optimisation >>>>>>>>>>>>>>
~~~~~~~~~~~~~~~~~~~~~~~~~~~~~~~~~~~~~~~~~~~~~~~~~~~~~~~~~~~~~~~~~~~~~~~~~~~~~~~~
   iter  |      energy (Eh)       | rms gradient |  commutator  |   dE (Eh)
MG BCs: +ve charge blocks (gridpoints):     25313 (   17291053).
MG BCs: -ve charge blocks (gridpoints):      8467 (    1074623).
MG BCs:     Elided blocks (gridpoints):    189919 (  192337869).
MG BCs: Computational effort saved:  99.9840%.
MG BCs: Charge after coarse-graining:           -9.0007403.
MG DL_MG: Calling solver with defect correction order = 8
MG DL_MG: Solver finished
MG Hartree energy from (\int phi*rho dr):              1272.437449
MG Hartree energy from (\int eps (grad phi)^2 dr):     1271.808625
MG Discrepancy due to finite box and discretization:     -0.628823 (  -0.04942%)
MG Correction to account for finite box:                  0.458063
MG Remaining discrepancy, due to discretization:         -0.170760 (  -0.01342%)
      ideal mu1:      -0.754859979314
             Q0:  -11610.737377527752
             G0:      -9.594929540016
   RMS gradient:       0.000476182679
MG BCs: +ve charge blocks (gridpoints):     25369 (   17305269).
MG BCs: -ve charge blocks (gridpoints):      8450 (    1071126).
MG BCs:     Elided blocks (gridpoints):    189863 (  192327150).
MG BCs: Computational effort saved:  99.9839%.
MG BCs: Charge after coarse-graining:           -9.0007365.
MG DL_MG: Calling solver with defect correction order = 8
MG DL_MG: Solver finished
MG Hartree energy from (\int phi*rho dr):              1286.187888
MG Hartree energy from (\int eps (grad phi)^2 dr):     1285.554392
MG Discrepancy due to finite box and discretization:     -0.633496 (  -0.04925%)
MG Correction to account for finite box:                  0.457649
MG Remaining discrepancy, due to discretization:         -0.175847 (  -0.01367%)
     Trial step:       0.743538364121
             Q1:  -11609.884983006748
 Quadratic coef:       7.986592735040
 Linear coef   :      -7.134198214036
           Qmin:  -11612.330572080351
Quadratic minimum step length (  0.332090933228) accepted
    Initial Ne1:    7191.99904637
      Final Ne1:    7192.00000000

=================== Penalty functional idempotency correction ==================
 RMS occupancy error at iteration   1:  0.000355 (step -0.4985 Ne1=   7192.0000)
 RMS occupancy error at iteration   2:  0.000000 (step -0.5000 Ne1=   7192.0000)
            Final RMS occupancy error   :  0.000000 (Ne1=   7192.0000)
               Final occupancy bounds   : [  0.0000,  1.0000]
================================================================================

    1        -1.161073737753E+04     4.7618E-04     4.3070E-04
MG BCs: +ve charge blocks (gridpoints):     25341 (   17297481).
MG BCs: -ve charge blocks (gridpoints):      8462 (    1073042).
MG BCs:     Elided blocks (gridpoints):    189891 (  192333022).
MG BCs: Computational effort saved:  99.9840%.
MG BCs: Charge after coarse-graining:           -9.0007386.
MG DL_MG: Calling solver with defect correction order = 8
MG DL_MG: Solver finished
MG Hartree energy from (\int phi*rho dr):              1277.553729
MG Hartree energy from (\int eps (grad phi)^2 dr):     1276.922914
MG Discrepancy due to finite box and discretization:     -0.630815 (  -0.04938%)
MG Correction to account for finite box:                  0.457861
MG Remaining discrepancy, due to discretization:         -0.172954 (  -0.01354%)
      ideal mu1:      -0.760292547127
             Q0:  -11612.310563143459
             G0:      -0.865332185577
   RMS gradient:       0.000143494714
MG BCs: +ve charge blocks (gridpoints):     25341 (   17297145).
MG BCs: -ve charge blocks (gridpoints):      8461 (    1073878).
MG BCs:     Elided blocks (gridpoints):    189891 (  192332522).
MG BCs: Computational effort saved:  99.9840%.
MG BCs: Charge after coarse-graining:           -9.0007385.
MG DL_MG: Calling solver with defect correction order = 8
MG DL_MG: Solver finished
MG Hartree energy from (\int phi*rho dr):              1278.136195
MG Hartree energy from (\int eps (grad phi)^2 dr):     1277.505134
MG Discrepancy due to finite box and discretization:     -0.631061 (  -0.04937%)
MG Correction to account for finite box:                  0.457851
MG Remaining discrepancy, due to discretization:         -0.173210 (  -0.01355%)
     Trial step:       0.496912818542
             Q1:  -11612.508620365057
 Quadratic coef:       0.231937433713
 Linear coef   :      -0.429994655310
           Qmin:  -11612.509857626281
Quadratic minimum step length (  0.460619600527) accepted
    Initial Ne1:    7191.99987987
      Final Ne1:    7192.00000000

=================== Penalty functional idempotency correction ==================
 RMS occupancy error at iteration   1:  0.000136 (step -0.4995 Ne1=   7192.0000)
            Final RMS occupancy error   :  0.000000 (Ne1=   7192.0000)
               Final occupancy bounds   : [ -0.0000,  1.0000]
================================================================================

    2        -1.161231056314E+04     1.4349E-04     1.2979E-04    -1.5732E+00
MG BCs: +ve charge blocks (gridpoints):     25341 (   17297189).
MG BCs: -ve charge blocks (gridpoints):      8461 (    1073790).
MG BCs:     Elided blocks (gridpoints):    189891 (  192332566).
MG BCs: Computational effort saved:  99.9840%.
MG BCs: Charge after coarse-graining:           -9.0007385.
MG DL_MG: Calling solver with defect correction order = 8
MG DL_MG: Solver finished
MG Hartree energy from (\int phi*rho dr):              1278.094145
MG Hartree energy from (\int eps (grad phi)^2 dr):     1277.463103
MG Discrepancy due to finite box and discretization:     -0.631042 (  -0.04937%)
MG Correction to account for finite box:                  0.457851
MG Remaining discrepancy, due to discretization:         -0.173191 (  -0.01355%)
      ideal mu1:      -0.760908615824
             Q0:  -11612.510236637085
             G0:      -0.171133580256
   RMS gradient:       0.000063531216
MG BCs: +ve charge blocks (gridpoints):     25338 (   17296576).
MG BCs: -ve charge blocks (gridpoints):      8463 (    1074149).
MG BCs:     Elided blocks (gridpoints):    189894 (  192332820).
MG BCs: Computational effort saved:  99.9840%.
MG BCs: Charge after coarse-graining:           -9.0007384.
MG DL_MG: Calling solver with defect correction order = 8
MG DL_MG: Solver finished
MG Hartree energy from (\int phi*rho dr):              1277.512565
MG Hartree energy from (\int eps (grad phi)^2 dr):     1276.881606
MG Discrepancy due to finite box and discretization:     -0.630958 (  -0.04939%)
MG Correction to account for finite box:                  0.457852
MG Remaining discrepancy, due to discretization:         -0.173106 (  -0.01355%)
     Trial step:       0.478422181732
             Q1:  -11612.560344595462
 Quadratic coef:       0.031766142456
 Linear coef   :      -0.081874100834
           Qmin:  -11612.562992243125
Quadratic minimum step length (  0.616543006480) accepted
    Initial Ne1:    7192.00053997
      Final Ne1:    7192.00000000

=================== Penalty functional idempotency correction ==================
 RMS occupancy error at iteration   1:  0.000070 (step -0.4997 Ne1=   7192.0000)
            Final RMS occupancy error   :  0.000000 (Ne1=   7192.0000)
               Final occupancy bounds   : [ -0.0000,  1.0000]
================================================================================

    3        -1.161251023664E+04     6.3531E-05     5.7463E-05    -1.9967E-01
MG BCs: +ve charge blocks (gridpoints):     25338 (   17296398).
MG BCs: -ve charge blocks (gridpoints):      8464 (    1074256).
MG BCs:     Elided blocks (gridpoints):    189894 (  192332891).
MG BCs: Computational effort saved:  99.9840%.
MG BCs: Charge after coarse-graining:           -9.0007384.
MG DL_MG: Calling solver with defect correction order = 8
MG DL_MG: Solver finished
MG Hartree energy from (\int phi*rho dr):              1277.344259
MG Hartree energy from (\int eps (grad phi)^2 dr):     1276.713325
MG Discrepancy due to finite box and discretization:     -0.630935 (  -0.04939%)
MG Correction to account for finite box:                  0.457852
MG Remaining discrepancy, due to discretization:         -0.173083 (  -0.01355%)
      ideal mu1:      -0.759949252967
             Q0:  -11612.563094777404
             G0:      -0.032757123415
   RMS gradient:       0.000027779626
MG BCs: +ve charge blocks (gridpoints):     25336 (   17296182).
MG BCs: -ve charge blocks (gridpoints):      8463 (    1074305).
MG BCs:     Elided blocks (gridpoints):    189896 (  192333058).
MG BCs: Computational effort saved:  99.9840%.
MG BCs: Charge after coarse-graining:           -9.0007385.
MG DL_MG: Calling solver with defect correction order = 8
MG DL_MG: Solver finished
MG Hartree energy from (\int phi*rho dr):              1277.369722
MG Hartree energy from (\int eps (grad phi)^2 dr):     1276.738865
MG Discrepancy due to finite box and discretization:     -0.630856 (  -0.04939%)
MG Correction to account for finite box:                  0.457858
MG Remaining discrepancy, due to discretization:         -0.172998 (  -0.01354%)
     Trial step:       0.543109427549
             Q1:  -11612.571865158272
 Quadratic coef:       0.009020321679
 Linear coef   :      -0.017790702546
           Qmin:  -11612.571866889652
Quadratic minimum step length (  0.535585016794) accepted
    Initial Ne1:    7192.00024435
      Final Ne1:    7192.00000000

=================== Penalty functional idempotency correction ==================
 RMS occupancy error at iteration   1:  0.000018 (step -0.4999 Ne1=   7192.0000)
            Final RMS occupancy error   :  0.000000 (Ne1=   7192.0000)
               Final occupancy bounds   : [ -0.0000,  1.0000]
================================================================================

    4        -1.161256309478E+04     2.7780E-05     2.5126E-05    -5.2858E-02
MG BCs: +ve charge blocks (gridpoints):     25336 (   17296185).
MG BCs: -ve charge blocks (gridpoints):      8463 (    1074304).
MG BCs:     Elided blocks (gridpoints):    189896 (  192333056).
MG BCs: Computational effort saved:  99.9840%.
MG BCs: Charge after coarse-graining:           -9.0007385.
MG DL_MG: Calling solver with defect correction order = 8
MG DL_MG: Solver finished
MG Hartree energy from (\int phi*rho dr):              1277.369360
MG Hartree energy from (\int eps (grad phi)^2 dr):     1276.738503
MG Discrepancy due to finite box and discretization:     -0.630857 (  -0.04939%)
MG Correction to account for finite box:                  0.457858
MG Remaining discrepancy, due to discretization:         -0.173000 (  -0.01354%)
      ideal mu1:      -0.760013113159
             Q0:  -11612.571871642140
             G0:      -0.009766354397
   RMS gradient:       0.000015189128
MG BCs: +ve charge blocks (gridpoints):     25337 (   17296536).
MG BCs: -ve charge blocks (gridpoints):      8463 (    1074156).
MG BCs:     Elided blocks (gridpoints):    189895 (  192332853).
MG BCs: Computational effort saved:  99.9840%.
MG BCs: Charge after coarse-graining:           -9.0007384.
MG DL_MG: Calling solver with defect correction order = 8
MG DL_MG: Solver finished
MG Hartree energy from (\int phi*rho dr):              1277.701728
MG Hartree energy from (\int eps (grad phi)^2 dr):     1277.070896
MG Discrepancy due to finite box and discretization:     -0.630832 (  -0.04937%)
MG Correction to account for finite box:                  0.457847
MG Remaining discrepancy, due to discretization:         -0.172985 (  -0.01354%)
     Trial step:       0.539334100419
             Q1:  -11612.574346865178
 Quadratic coef:       0.002792104924
 Linear coef   :      -0.005267327963
           Qmin:  -11612.574355856077
Quadratic minimum step length (  0.508729017328) accepted
    Initial Ne1:    7192.00008157
      Final Ne1:    7192.00000000

=================== Penalty functional idempotency correction ==================
 RMS occupancy error at iteration   1:  0.000007 (step -0.5000 Ne1=   7192.0000)
            Final RMS occupancy error   :  0.000000 (Ne1=   7192.0000)
               Final occupancy bounds   : [ -0.0000,  1.0000]
================================================================================

    5        -1.161257187164E+04     1.5189E-05     1.3738E-05    -8.7769E-03
MG BCs: +ve charge blocks (gridpoints):     25337 (   17296515).
MG BCs: -ve charge blocks (gridpoints):      8463 (    1074163).
MG BCs:     Elided blocks (gridpoints):    189895 (  192332867).
MG BCs: Computational effort saved:  99.9840%.
MG BCs: Charge after coarse-graining:           -9.0007384.
MG DL_MG: Calling solver with defect correction order = 8
MG DL_MG: Solver finished
MG Hartree energy from (\int phi*rho dr):              1277.682841
MG Hartree energy from (\int eps (grad phi)^2 dr):     1277.052008
MG Discrepancy due to finite box and discretization:     -0.630833 (  -0.04937%)
MG Correction to account for finite box:                  0.457848
MG Remaining discrepancy, due to discretization:         -0.172985 (  -0.01354%)
      ideal mu1:      -0.760261961998
             Q0:  -11612.574356445926
             G0:      -0.002250393829
   RMS gradient:       0.000007291143
MG BCs: +ve charge blocks (gridpoints):     25337 (   17296500).
MG BCs: -ve charge blocks (gridpoints):      8463 (    1074183).
MG BCs:     Elided blocks (gridpoints):    189895 (  192332862).
MG BCs: Computational effort saved:  99.9840%.
MG BCs: Charge after coarse-graining:           -9.0007384.
MG DL_MG: Calling solver with defect correction order = 8
MG DL_MG: Solver finished
MG Hartree energy from (\int phi*rho dr):              1277.639378
MG Hartree energy from (\int eps (grad phi)^2 dr):     1277.008552
MG Discrepancy due to finite box and discretization:     -0.630826 (  -0.04937%)
MG Correction to account for finite box:                  0.457844
MG Remaining discrepancy, due to discretization:         -0.172982 (  -0.01354%)
     Trial step:       0.523808082142
             Q1:  -11612.575020652497
 Quadratic coef:       0.000514567904
 Linear coef   :      -0.001178774476
           Qmin:  -11612.575031531398
Quadratic minimum step length (  0.599970958520) accepted
    Initial Ne1:    7192.00002490
      Final Ne1:    7192.00000000

=================== Penalty functional idempotency correction ==================
 RMS occupancy error at iteration   1:  0.000003 (step -0.5000 Ne1=   7192.0000)
            Final RMS occupancy error   :  0.000000 (Ne1=   7192.0000)
               Final occupancy bounds   : [  0.0000,  1.0000]
================================================================================

    6        -1.161257435645E+04     7.2911E-06     6.5947E-06    -2.4848E-03
MG BCs: +ve charge blocks (gridpoints):     25337 (   17296495).
MG BCs: -ve charge blocks (gridpoints):      8463 (    1074187).
MG BCs:     Elided blocks (gridpoints):    189895 (  192332863).
MG BCs: Computational effort saved:  99.9840%.
MG BCs: Charge after coarse-graining:           -9.0007384.
MG DL_MG: Calling solver with defect correction order = 8
MG DL_MG: Solver finished
MG Hartree energy from (\int phi*rho dr):              1277.633062
MG Hartree energy from (\int eps (grad phi)^2 dr):     1277.002237
MG Discrepancy due to finite box and discretization:     -0.630825 (  -0.04937%)
MG Correction to account for finite box:                  0.457844
MG Remaining discrepancy, due to discretization:         -0.172982 (  -0.01354%)
      ideal mu1:      -0.760204805743
             Q0:  -11612.575031595421
             G0:      -0.000746576715
   RMS gradient:       0.000004200393
MG BCs: +ve charge blocks (gridpoints):     25337 (   17296402).
MG BCs: -ve charge blocks (gridpoints):      8463 (    1074218).
MG BCs:     Elided blocks (gridpoints):    189895 (  192332925).
MG BCs: Computational effort saved:  99.9840%.
MG BCs: Charge after coarse-graining:           -9.0007384.
MG DL_MG: Calling solver with defect correction order = 8
MG DL_MG: Solver finished
MG Hartree energy from (\int phi*rho dr):              1277.580014
MG Hartree energy from (\int eps (grad phi)^2 dr):     1276.949188
MG Discrepancy due to finite box and discretization:     -0.630827 (  -0.04938%)
MG Correction to account for finite box:                  0.457844
MG Remaining discrepancy, due to discretization:         -0.172983 (  -0.01354%)
     Trial step:       0.560597571457
             Q1:  -11612.575203187764
 Quadratic coef:       0.000246936750
 Linear coef   :      -0.000418529093
           Qmin:  -11612.575208934964
Quadratic minimum step length (  0.475073866364) accepted
    Initial Ne1:    7191.99999939
      Final Ne1:    7192.00000000

=================== Penalty functional idempotency correction ==================
 RMS occupancy error at iteration   1:  0.000000 (step -0.5000 Ne1=   7192.0000)
            Final RMS occupancy error   :  0.000000 (Ne1=   7192.0000)
               Final occupancy bounds   : [  0.0000,  1.0000]
================================================================================

    7        -1.161257503160E+04     4.2004E-06     3.7992E-06    -6.7515E-04
MG BCs: +ve charge blocks (gridpoints):     25337 (   17296418).
MG BCs: -ve charge blocks (gridpoints):      8463 (    1074210).
MG BCs:     Elided blocks (gridpoints):    189895 (  192332917).
MG BCs: Computational effort saved:  99.9840%.
MG BCs: Charge after coarse-graining:           -9.0007384.
MG DL_MG: Calling solver with defect correction order = 8
MG DL_MG: Solver finished
MG Hartree energy from (\int phi*rho dr):              1277.588100
MG Hartree energy from (\int eps (grad phi)^2 dr):     1276.957273
MG Discrepancy due to finite box and discretization:     -0.630826 (  -0.04938%)
MG Correction to account for finite box:                  0.457844
MG Remaining discrepancy, due to discretization:         -0.172983 (  -0.01354%)
      ideal mu1:      -0.760155087325
             Q0:  -11612.575208933209
             G0:      -0.000375529342
   RMS gradient:       0.000002978998
MG BCs: +ve charge blocks (gridpoints):     25337 (   17296412).
MG BCs: -ve charge blocks (gridpoints):      8463 (    1074210).
MG BCs:     Elided blocks (gridpoints):    189895 (  192332923).
MG BCs: Computational effort saved:  99.9840%.
MG BCs: Charge after coarse-graining:           -9.0007384.
MG DL_MG: Calling solver with defect correction order = 8
MG DL_MG: Solver finished
MG Hartree energy from (\int phi*rho dr):              1277.570447
MG Hartree energy from (\int eps (grad phi)^2 dr):     1276.939621
MG Discrepancy due to finite box and discretization:     -0.630826 (  -0.04938%)
MG Correction to account for finite box:                  0.457844
MG Remaining discrepancy, due to discretization:         -0.172982 (  -0.01354%)
     Trial step:       0.516067103918
             Q1:  -11612.575349082588
 Quadratic coef:       0.000053648961
 Linear coef   :      -0.000193798340
           Qmin:  -11612.575383949632
Quadratic minimum step length (  0.932105180081) accepted
    Initial Ne1:    7191.99999939
      Final Ne1:    7192.00000000

=================== Penalty functional idempotency correction ==================
 RMS occupancy error at iteration   1:  0.000001 (step -0.5000 Ne1=   7192.0000)
            Final RMS occupancy error   :  0.000000 (Ne1=   7192.0000)
               Final occupancy bounds   : [  0.0000,  1.0000]
================================================================================

    8        -1.161257520893E+04     2.9790E-06     2.6944E-06    -1.7734E-04
MG BCs: +ve charge blocks (gridpoints):     25337 (   17296400).
MG BCs: -ve charge blocks (gridpoints):      8463 (    1074212).
MG BCs:     Elided blocks (gridpoints):    189895 (  192332933).
MG BCs: Computational effort saved:  99.9840%.
MG BCs: Charge after coarse-graining:           -9.0007384.
MG DL_MG: Calling solver with defect correction order = 8
MG DL_MG: Solver finished
MG Hartree energy from (\int phi*rho dr):              1277.556186
MG Hartree energy from (\int eps (grad phi)^2 dr):     1276.925360
[...]
 RMS occupancy error at iteration   1:  0.000000 (step -0.5000 Ne1=   7192.0000)
            Final RMS occupancy error   :  0.000000 (Ne1=   7192.0000)
               Final occupancy bounds   : [ -0.0000,  1.0000]
================================================================================

    7        -1.164826851612E+04     5.9137E-09     5.3488E-09     1.1642E-10

Reusing previously generated solute cavity.
MG BCs: +ve charge blocks (gridpoints):     29475 (   19443900).
MG BCs: -ve charge blocks (gridpoints):      8467 (    1051537).
MG BCs:     Elided blocks (gridpoints):    185757 (  190208108).
MG BCs: Computational effort saved:  99.9820%.
MG BCs: Charge after coarse-graining:           -9.0010003.
MG DL_MG: Calling solver with defect correction order = 8
MG DL_MG: Solver finished
MG Hartree energy from (\int phi*rho dr):              1229.262564
MG Hartree energy from (\int eps (grad phi)^2 dr):     1229.084015
MG Discrepancy due to finite box and discretization:     -0.178549 (  -0.01452%)
MG Correction to account for finite box:                  0.006294
MG Remaining discrepancy, due to discretization:         -0.172255 (  -0.01401%)
      ideal mu1:      -0.513432358160
             Q0:  -11648.268516123760
             G0:      -0.000000002095
   RMS gradient:       0.000000005151

Reusing previously generated solute cavity.
MG BCs: +ve charge blocks (gridpoints):     29475 (   19443900).
MG BCs: -ve charge blocks (gridpoints):      8467 (    1051537).
MG BCs:     Elided blocks (gridpoints):    185757 (  190208108).
MG BCs: Computational effort saved:  99.9820%.
MG BCs: Charge after coarse-graining:           -9.0010003.
MG DL_MG: Calling solver with defect correction order = 8
MG DL_MG: Solver finished
MG Hartree energy from (\int phi*rho dr):              1229.262569
MG Hartree energy from (\int eps (grad phi)^2 dr):     1229.084020
MG Discrepancy due to finite box and discretization:     -0.178549 (  -0.01452%)
MG Correction to account for finite box:                  0.006294
MG Remaining discrepancy, due to discretization:         -0.172255 (  -0.01401%)
     Trial step:       0.170658186525
             Q1:  -11648.268516123411
 Quadratic coef:       0.000000000708
 Linear coef   :      -0.000000000358
           Qmin:  -11648.268516123806
Quadratic minimum step length (  0.043122471783) accepted
    Initial Ne1:    7192.00000000
      Final Ne1:    7192.00000000

=================== Penalty functional idempotency correction ==================
 RMS occupancy error at iteration   1:  0.000000 (step -0.5000 Ne1=   7192.0000)
            Final RMS occupancy error   :  0.000000 (Ne1=   7192.0000)
               Final occupancy bounds   : [ -0.0000,  1.0000]
================================================================================

    8        -1.164826851612E+04     5.1507E-09     4.6587E-09     1.1642E-10

Reusing previously generated solute cavity.
MG BCs: +ve charge blocks (gridpoints):     29475 (   19443900).
MG BCs: -ve charge blocks (gridpoints):      8467 (    1051537).
MG BCs:     Elided blocks (gridpoints):    185757 (  190208108).
MG BCs: Computational effort saved:  99.9820%.
MG BCs: Charge after coarse-graining:           -9.0010003.
MG DL_MG: Calling solver with defect correction order = 8
MG DL_MG: Solver finished
MG Hartree energy from (\int phi*rho dr):              1229.262566
MG Hartree energy from (\int eps (grad phi)^2 dr):     1229.084017
MG Discrepancy due to finite box and discretization:     -0.178549 (  -0.01452%)
MG Correction to account for finite box:                  0.006294
MG Remaining discrepancy, due to discretization:         -0.172255 (  -0.01401%)
      ideal mu1:      -0.513432357461
             Q0:  -11648.268516123760
             G0:      -0.000000002450
   RMS gradient:       0.000000004653

Reusing previously generated solute cavity.
MG BCs: +ve charge blocks (gridpoints):     29475 (   19443900).
MG BCs: -ve charge blocks (gridpoints):      8467 (    1051537).
MG BCs:     Elided blocks (gridpoints):    185757 (  190208108).
MG BCs: Computational effort saved:  99.9820%.
MG BCs: Charge after coarse-graining:           -9.0010003.
MG DL_MG: Calling solver with defect correction order = 8
MG DL_MG: Solver finished
MG Hartree energy from (\int phi*rho dr):              1229.262568
MG Hartree energy from (\int eps (grad phi)^2 dr):     1229.084019
MG Discrepancy due to finite box and discretization:     -0.178549 (  -0.01452%)
MG Correction to account for finite box:                  0.006294
MG Remaining discrepancy, due to discretization:         -0.172255 (  -0.01401%)
     Trial step:       0.085785796219
             Q1:  -11648.268516123411
 Quadratic coef:       0.000000000560
 Linear coef   :      -0.000000000210
           Qmin:  -11648.268516123781
Quadratic minimum step length (  0.016093808305) accepted
    Initial Ne1:    7192.00000000
      Final Ne1:    7192.00000000

=================== Penalty functional idempotency correction ==================
 RMS occupancy error at iteration   1:  0.000000 (step -0.5000 Ne1=   7192.0000)
            Final RMS occupancy error   :  0.000000 (Ne1=   7192.0000)
               Final occupancy bounds   : [ -0.0000,  1.0000]
================================================================================

    9        -1.164826851612E+04     4.6530E-09     4.2086E-09     0.0000E+00

Reusing previously generated solute cavity.
MG BCs: +ve charge blocks (gridpoints):     29475 (   19443900).
MG BCs: -ve charge blocks (gridpoints):      8467 (    1051537).
MG BCs:     Elided blocks (gridpoints):    185757 (  190208108).
MG BCs: Computational effort saved:  99.9820%.
MG BCs: Charge after coarse-graining:           -9.0010003.
MG DL_MG: Calling solver with defect correction order = 8
MG DL_MG: Solver finished
MG Hartree energy from (\int phi*rho dr):              1229.262566
MG Hartree energy from (\int eps (grad phi)^2 dr):     1229.084017
MG Discrepancy due to finite box and discretization:     -0.178549 (  -0.01452%)
MG Correction to account for finite box:                  0.006294
MG Remaining discrepancy, due to discretization:         -0.172255 (  -0.01401%)
      ideal mu1:      -0.513432357056
   10        -1.164826851612E+04     4.4279E-09     4.0050E-09     0.0000E+00
Finished density kernel iterations (  10)

Writing density kernel to file "host_21761.dkn" ... done


>>> Density kernel optimised for the current NGWF basis:
     ~~~~~~~~~~~~~~~~~~~~~~~~~~~~~~~~~~~~~~~~~~~~~~~~~~~~~~~~~~~
     Total energy                =  -1.16482685161238E+04  Eh
     Estimated bandgap           =   1.2467E-01  Eh
     RMS occupancy error         =   3.8464E-16
     [H,K] commutator            =   4.0050E-09
     Occupancy bounds            = [ -0.000:  1.000]
     ~~~~~~~~~~~~~~~~~~~~~~~~~~~~~~~~~~~~~~~~~~~~~~~~~~~~~~~~~~~




################################################################################
########################### NGWF CG iteration  005 #############################
################################################################################
****** Reciprocal space K.E. preconditioning with k_zero =  3.5000 a0^-1 *******

>>> Checking for convergence of NGWFs: 
           ........................................................
           |         *** NGWF optimisation converged ***          |
           | RMS NGWF gradient =    0.00000105984921              |
           | Criteria satisfied:                                  |
           | -> RMS NGWF gradient lower than set threshold.       |
           ========================================================

Reusing previously generated solute cavity.
MG BCs: +ve charge blocks (gridpoints):     29475 (   19443900).
MG BCs: -ve charge blocks (gridpoints):      8467 (    1051537).
MG BCs:     Elided blocks (gridpoints):    185757 (  190208108).
MG BCs: Computational effort saved:  99.9820%.
MG BCs: Charge after coarse-graining:           -9.0010003.
MG DL_MG: Calling solver with defect correction order = 8
MG DL_MG: Solver finished
MG Hartree energy from (\int phi*rho dr):              1229.262566
MG Hartree energy from (\int eps (grad phi)^2 dr):     1229.084017
MG Discrepancy due to finite box and discretization:     -0.178549 (  -0.01452%)
MG Correction to account for finite box:                  0.006294
MG Remaining discrepancy, due to discretization:         -0.172255 (  -0.01401%)

================================================================================
           ---------------- ENERGY COMPONENTS (Eh) ----------------
           | Kinetic                    :     8408.49481741538330 |
           | Pseudo. (local,OBC,corr'd) :    -4989.97913550111844 |
           | Pseudopotential (non-local):     1446.33878879984468 |
           | Hartree (molecular)        :     1229.26256608562858 |
           | Exchange-correlation       :    -3333.78842750777949 |
           | Ion-ion (open BC)          :   825133.24562082369812 |
           | Smeared ion non-self corr. :  -825085.32511382782832 |
           | Smeared ion self corr.     :   -14457.16956389741972 |
           | Solvent cavitation energy  :        2.31942181229095 |
           | Solute-solvent dis-rep en. :       -1.66749032640127 |
           | Total                      :   -11648.26851612361315 |
           --------------------------------------------------------
           ------ LOCAL ENERGY COMPONENTS FROM MATRIX TRACES ------
           | Pseudopotential (local)    :    -4989.97913550113844 |
           | Hartree                    :    -1982.76865076266881 |
           --------------------------------------------------------
           Integrated density           :     7191.99999999780357
           Integrated density tr(KS)    :     7192.00000000000000
================================================================================


                        <<<<< CALCULATION SUMMARY >>>>>                         
|ITER|    RMS GRADIENT   |     TOTAL ENERGY    |   step   |     Epredicted              
   0     0.00003768699576 -11648.21951658069156   0.538629 -11648.26177615046618        
   1     0.00001242127736 -11648.26733770675492   0.116410 -11648.26832985133115        
   2     0.00000545061322 -11648.26847584196366   0.020771 -11648.26850992999789        
   3     0.00000241789569 -11648.26851455087308   0.004153 -11648.26851589215767        
   4     0.00000105984921 -11648.26851612376049  <-- CG                                 

=================== Finished the calculation in solvent ========================
= Adjusting the following parameters: 
= read_denskern: F
= read_tightbox_ngwfs: F
= maxit_pen: 0 (restored to user-specified value)
= restart read filename prefix: ""
= restart write filename prefix: ""
================================================================================

================================================================================
IS: Calculation in solvent completed (NGWFs converged).      

Individual components of total energy in solvent:     hartree           kcal/mol
- Usual non-electrostatic DFT terms:    -12878.18301369527944    -8081181.674490
- Electrostatic fixed charge energy:      1229.26256608562858      771373.889595
- Apolar cavitation energy:                  2.31942181229095        1455.459130
- Apolar dispersion-repulsion energy:       -1.66749032640127       -1046.365955
 -------------------------------------------------------------------------------
- Total energy in solvent:              -11648.26851612376049    -7309398.691720

Components of total energy in solvent:                hartree           kcal/mol
- Usual non-electrostatic DFT terms:    -12878.18301369527944    -8081181.674490
- Electrostatic energy:                   1229.26256608562858      771373.889595
- Apolar energy terms:                       0.65193148588968         409.093175
 -------------------------------------------------------------------------------
- Total energy in solvent:              -11648.26851612376049    -7309398.691720

Calculation of free energy of solvation:              hartree           kcal/mol
- Total energy in solvent:         (+)  -11648.26851612376049    -7309398.691720
- Total energy in vacuum:          (-)  -11644.30146099219564    -7306909.327095
 -------------------------------------------------------------------------------
- Total free energy of solvation:           -3.96705513156485       -2489.364625

Components of polar term in f.e. of solvation:        hartree           kcal/mol
- Electrostatic:                            -4.91311828020048       -3083.028201
- Change in nonelectrostatic DFT terms:      0.29413166274571         184.570401
 -------------------------------------------------------------------------------
- Polar term in f.e. of solvation:          -4.61898661745477       -2898.457800

Components of free energy of solvation:               hartree           kcal/mol
- Polar term in f.e. of solvation: (+)      -4.61898661745477       -2898.457800
- Apolar (cavitation, dis., rep.): (+)       0.65193148588968         409.093175
 -------------------------------------------------------------------------------
- Total free energy of solvation:           -3.96705513156509       -2489.364625
================================================================================


------------------------------ TIMING INFORMATION ------------------------------
AVERAGE TIME:   93688.377s on     40 node(s)                                    
TOTAL TIME:     93688.378s on     40 node(s)                                    
================= AVERAGE TIMINGS FROM ALL NODES (CUMULATIVE) ==================
|| TAG                                    #calls    cpu time   %total  Gflops ||
|| work_imbalance                       :     1        0.00s   0.000%  ------ ||
|| parallel_prepare_fd_halos_request    :  2547        0.02s   0.000%  ------ ||
|| sparse_set_to_garbage                :   274        0.06s   0.000%  ------ ||
|| parallel_prepare_fd_halos_satisfy    :  2547        0.08s   0.000%  ------ ||
|| parallel_prepare_fd_halos_alloc      :  2547        0.10s   0.000%  ------ ||
|| ngwfs_initialise_from_radial         :     1        0.17s   0.000%  ------ ||
|| basis_extract_function_from_box      :  6992        0.24s   0.000%  ------ ||
|| restart_ngwfs_tightbox_input         :     1        0.87s   0.001%  ------ ||
|| density_init_guess_real              :     1        2.58s   0.003%  ------ ||
|| restart_kernel_read                  :     1        3.92s   0.004%  ------ ||
|| parallel_prepare_fd_halos_comms_imbal:  2547        4.03s   0.004%  ------ ||
|| openbc_locps_radial                  :     1        4.52s   0.005%  ------ ||
|| pseudopotentials_nonlocal_mat        :    40        5.07s   0.005%  ------ ||
|| parallel_prepare_fd_halos_clear      :  2547       19.59s   0.021%  ------ ||
|| restart_kernel_write                 :    22       20.71s   0.022%  ------ ||
|| sparse_init                          :     2       22.24s   0.024%  ------ ||
|| projectors_func_ovlp_box             :    40       33.42s   0.036%  ------ ||
|| parallel_prepare_fd_halos_comms_wait :  2547       34.63s   0.037%  ------ ||
|| function_ops_brappd_ketppd           :    40       35.19s   0.038%  ------ ||
|| palser_mano_kernel_optimise          :     1       37.87s   0.040%  ------ ||
|| projectors_init_fftbox_recip         :   271       40.05s   0.043%  ------ ||
|| parallel_prepare_fd_halos            :  2547       58.46s   0.062%  ------ ||
|| pseudo_make_structure_factor         :     2       62.76s   0.067%  ------ ||
|| ngwf_gradient_coeffs                 :    21       85.56s   0.091%  ------ ||
|| restart_ngwfs_tightbox_output        :    19      109.57s   0.117%  ------ ||
|| sparse_embed_hotelling_invert_embed  :    40      120.12s   0.128%  ------ ||
|| finite_difference_derivative         :  2547      158.96s   0.170%  ------ ||
|| basis_copy_function_to_box           : 217.3k     159.85s   0.171%  ------ ||
|| openbc_locps_on_grid                 :     2      221.71s   0.237%  ------ ||
|| integrals_kinetic                    :    40      230.62s   0.246%  ------ ||
|| projectors_gradient_batch            :   231      307.27s   0.328%  ------ ||
|| sparse_trace                         :  6305      363.45s   0.388%  ------ ||
|| fourier_apply_box_pair               : 61387      451.57s   0.482% 595.227 ||
|| kernel_purify                        :   649      467.43s   0.499%  ------ ||
|| basis_dot_function_with_box          : 24.69M     470.28s   0.502%  ------ ||
|| kernel_fix                           :   210      704.81s   0.752%  ------ ||
|| lnv_gradient_norm                    :   210      757.64s   0.809%  ------ ||
|| hamiltonian_energy_components        :     5      981.91s   1.048%  ------ ||
|| integrals_locpot_mat_els_batch       :  2431     1167.51s   1.246%  ------ ||
|| basis_add_function_to_box            : 65.91M    1171.85s   1.251%  ------ ||
|| ke_density_batch_grad_apply          :  4653     1494.85s   1.596%  ------ ||
|| ke_density_batch_row_sums            :  4653     1520.71s   1.623%  ------ ||
|| density_batch_row_sums               :  4653     1520.84s   1.623%  ------ ||
|| density_fftbox_deposit_to_cell       : 68949     2163.03s   2.309%  ------ ||
|| ke_density_fftbox_deposit_to_cell    : 68949     2322.56s   2.479%  ------ ||
|| fourier_apply_cell_backward          : 11428     2411.09s   2.574%  70.771 ||
|| fourier_apply_cell_forward           : 11426     2520.27s   2.690%  67.693 ||
|| cell_grid_deposit_box_real           : 140.5k    2608.39s   2.784%  ------ ||
|| sparse_product                       :  8302     2778.20s   2.965%  ------ ||
|| cell_grid_extract_box_real           : 173.5k    2950.56s   3.149%  ------ ||
|| multigrid_prepare_bound_cond         :   424     3453.12s   3.686%  ------ ||
|| ngwf_gradient_build_batch            :   231     3523.16s   3.761%  ------ ||
|| ngwf_gradient_batch                  :   231     3906.88s   4.170%  ------ ||
|| ngwf_gradient_lnv                    :    21     4140.58s   4.420%  ------ ||
|| potential_apply_to_ngwf_batch        :  2431     4781.72s   5.104%  ------ ||
|| density_fftbox_interpolate_multiply  : 68949     5504.78s   5.876%  ------ ||
|| integrals_locpot_dbl_grid            :   221     5966.08s   6.368%  ------ ||
|| xc_energy_potential                  :   424     6483.18s   6.920%  ------ ||
|| density_batch_interp_deposit         :  4653     8779.65s   9.371%  ------ ||
|| dl_mg_solver_calls                   :   424     9392.89s  10.026%  ------ ||
|| nlxc_vdw_energy                      :   846    10902.56s  11.637%  ------ ||
|| density_on_dbl_grid                  :   423    10906.54s  11.641%  ------ ||
|| potential_apply_to_fftbox_batch      :  6930    12908.16s  13.778%  ------ ||
|| multigrid_calculate_hartree          :   424    13062.28s  13.942%  ------ ||
|| integrals_div_locpot_grad_functions  :   210    19132.44s  20.421%  ------ ||
|| ke_density_fftbox_interpolate_multipl: 68949    21594.64s  23.049%  ------ ||
|| ke_density_batch_interp_deposit      :  4653    25122.12s  26.815%  ------ ||
|| fourier_apply_box                    : 1.567M   27917.36s  29.798% 813.254 ||
|| ke_density_on_dbl_grid               :   423    28739.34s  30.675%  ------ ||
|| hamiltonian_lhxc_calculate           :   418    59145.21s  63.130%  ------ ||
|| lnv_denskernel_optimise_cg           :    21    84276.01s  89.954%  ------ ||
|| ngwf_cg_optimise                     :     2    92823.37s  99.077%  ------ ||
|| total_time                           :     1    93688.38s 100.000%  ------ ||
================================================================================
Overhead of generating timer report: 
- 0 ms averaging over threads,
- 7 ms ensuring consistency across MPI ranks,
- 2 ms printing in order.

Job completed: 21-02-2020 07:51 (-0000)

