      -----------------------------------------------------------      
     |                   =====================                   |     
     |                           x T B                           |     
     |                   =====================                   |     
     |                         S. Grimme                         |     
     |          Mulliken Center for Theoretical Chemistry        |     
     |                    University of Bonn                     |     
      -----------------------------------------------------------      

   * xtb version 6.2.3 (d7bf61a) compiled by 'conda@06d140edd85e' on 2020-05-12

   xtb is free software: you can redistribute it and/or modify it under
   the terms of the GNU Lesser General Public License as published by
   the Free Software Foundation, either version 3 of the License, or
   (at your option) any later version.
   
   xtb is distributed in the hope that it will be useful,
   but WITHOUT ANY WARRANTY; without even the implied warranty of
   MERCHANTABILITY or FITNESS FOR A PARTICULAR PURPOSE.  See the
   GNU Lesser General Public License for more details.
   
   Cite this work as:
   * S. Grimme, C. Bannwarth, P. Shushkov, J. Chem. Theory Comput., 2017,
     13, 1989-2009. DOI: 10.1021/acs.jctc.7b00118
   * C. Bannwarth, S. Ehlert and S. Grimme., J. Chem. Theory Comput., 2019,
     15, 1652-1671. DOI: 10.1021/acs.jctc.8b01176
   * P. Pracht, E. Caldeweyher, S. Ehlert, S. Grimme, ChemRxiv, 2019, preprint.
     DOI: 10.26434/chemrxiv.8326202.v1
   
   for DFT-D4:
   * E. Caldeweyher, C. Bannwarth and S. Grimme, J. Chem. Phys., 2017,
     147, 034112. DOI: 10.1063/1.4993215
   * E. Caldeweyher, S. Ehlert, A. Hansen, H. Neugebauer, S. Spicher,
     C. Bannwarth and S. Grimme, J. Chem. Phys., 2019, 150, 154122.
     DOI: 10.1063/1.5090222
   
   for sTDA-xTB:
   * S. Grimme and C. Bannwarth, J. Chem. Phys., 2016, 145, 054103.
     DOI: 10.1063/1.4959605
   
   in the mass-spec context:
   * V. Asgeirsson, C. Bauer and S. Grimme, Chem. Sci., 2017, 8, 4879.
     DOI: 10.1039/c7sc00601b
   
   for metadynamics refer to:
   * S. Grimme, J. Chem. Theory Comput., 2019, 155, 2847-2862
     DOI: 10.1021/acs.jctc.9b00143
   
   with help from (in alphabetical order)
   C. Bannwarth, F. Bohle, G. Brandenburg, E. Caldeweyher, M. Checinski,
   S. Dohm, S. Ehlert, S. Ehrlich, F. März, H. Neugebauer, J. Pisarek,
   P. Pracht, P. Shushkov, and S. Spicher.
   
 * started run on 2020/07/25 at 05:28:17.269     

           -------------------------------------------------
          |                Calculation Setup                |
           -------------------------------------------------

          program call               : xtb complex_20621.xyz --chrg +9 --uhf 0 --gbsa water
          hostname                   : gold54.cluster.local
          coordinate file            : complex_20621.xyz
          omp threads                :                    64
          number of atoms            :                  2617
          number of electrons        :                  7228
          charge                     :                     9
          spin                       :                   0.0
          first test random number   :      0.08453204053575


molecular fragmentation (1/2 indicates fragments):
111111111111111111111111111111111111111111111111111111111111111111111111
111111111111111111111111111111111111111111111111111111111111111111111111
111111111111111111111111111111111111111111111111111111111111111111111111
111111111111111111111111111111111111111111111111111111111111111111111111
111111111111111111111111111111111111111111111111111111111111111111111111
111111111111111111111111111111111111111111111111111111111111111111111111
111111111111111111111111111111111111111111111111111111111111111111111111
111111111111111111111111111111111111111111111111111111111111111111111111
111111111111111111111111111111111111111111111111111111111111111111111111
111111111111111111111111111111111111111111111111111111111111111111111111
111111111111111111111111111111111111111111111111111111111111111111111111
111111111111111111111111111111111111111111111111111111111111111111111111
111111111111111111111111111111111111111111111111111111111111111111111111
111111111111111111111111111111111111111111111111111111111111111111111111
111111111111111111111111111111111111111111111111111111111111111111111111
111111111111111111111111111111111111111111111111111111111111111111111111
111111111111111111111111111111111111111111111111111111111111111111111111
111111111111111111111111111111111111111111111111111111111111111111111111
111111111111111111111111111111111111111111111111111111111111111111111111
111111111111111111111111111111111111111111111111111111111111111111111111
111111111111111111111111111111111111111111111111111111111111111111111111
111111111111111111111111111111111111111111111111111111111111111111111111
111111111111111111111111111111111111111111111111111111111111111111111111
111111111111111111111111111111111111111111111111111111111111111111111111
111111111111111111111111111111111111111111111111111111111111111111111111
111111111111111111111111111111111111111111111111111111111111111111111111
111111111111111111111111111111111111111111111111111111111111111111111111
111111111111111111111111111111111111111111111111111111111111111111111111
111111111111111111111111111111111111111111111111111111111111111111111111
111111111111111111111111111111111111111111111111111111111111111111111111
111111111111111111111111111111111111111111111111111111111111111111111111
111111111111111111111111111111111111111111111111111111111111111111111111
111111111111111111111111111111111111111111111111111111111111111111111111
111111111111111111111111111111111111111111111111111111111111111111111111
111111111111111111111111111111111111111111111111111111111111111111111111
111111111111111111111111111111111111111111111111111111111111111111111111
1111111111222222222222222
# atoms in fragment 1/2:  2602    15
 fragment masses (1/2) :    18371.93       92.14
CMA distance (Bohr)    :  20.048
constraining FC (au)   :  0.0500
########################################################################
[WARNING] Please study the warnings concerning your input carefully
-2- prog_main: XTBPATH is not set, using XTBHOME instead
-1- prog_main: XTBHOME is not set, using HOME instead
########################################################################
           ------------------------------------------------- 
          |                 G F N 2 - x T B                 |
          | Geometry, Frequencies, Noncovalent interactions |
          |            JCTC 2019 parametrisation            |
           ------------------------------------------------- 
             k(s)              :                1.8500
             k(p)              :                2.2300
             k(d)              :                2.2300
             k(f)              :                2.0000
             kEN (H0ij)        :               -2.0000
             D4 a1             :                0.5200
             D4 a2             :                5.0000
             D4 s6             :                1.0000
             D4 s8             :                2.7000
             D4 s9             :                5.0000
             alphaj            :                2.0000

  Z AO/shell   Hii/eV     exponent
  1     Wed Apr 25 08:07:45 CEST 2018   EN: 2.200 GM2: 0.406  GM3: 0.0800  RAES: 1.40
     1s    -10.707211    1.230000
  6     Wed Apr 25 08:07:45 CEST 2018   EN: 2.550 GM2: 0.538  GM3: 0.1500  RAES: 3.00
     2s    -13.970922    2.096432
     2p    -10.063292    1.800000
  7     Wed Apr 25 08:07:45 CEST 2018   EN: 3.040 GM2: 0.461  GM3:-0.0640  RAES: 1.90
     2s    -16.686243    2.339881
     2p    -12.523956    2.014332
  8     Wed Apr 25 08:07:45 CEST 2018   EN: 3.440 GM2: 0.452  GM3:-0.0517  RAES: 1.80
     2s    -20.229985    2.439742
     2p    -15.503117    2.137023
 16     Tue Apr 24 11:44:34 CEST 2018   EN: 2.580 GM2: 0.340  GM3:-0.0502  RAES: 3.10
     3s    -20.029654    1.981333
     3p    -11.377694    2.025643
     3d     -0.420282    1.702555

 Solvent             : water
 Using internal parameter file: .param_gbsa2_water
 Gsolv ref. state (COSMO-RS): gsolv [1 M gas/solution]
 temperature (mdtemp)       :    298.14999999999998     
 dielectric constant        :    80.200000000000003     
 rho                        :    1.0000000000000000     
 mass                       :    18.000000000000000     
 surface tension            :    15.568945408385856     
 probe radius               :   0.97531378999999996     
 Gshift (Eh)                :    1.8574431267947933E-003
 c1                         :    1.5524381700000001     
 soset                      :   0.13032636000000000     
 HB correction              :  T
           ------------------------------------------------- 
          |        Self-Consistent Charge Iterations        |
           ------------------------------------------------- 

          ...................................................
          :                      SETUP                      :
          :.................................................:
          :  # basis functions                6547          :
          :  # atomic orbitals                6541          :
          :  # shells                         3921          :
          :  # electrons                      7228          :
          :  max. iterations                   250          :
          :  Hamiltonian                  GFN2-xTB          :
          :  restarted?                      false          :
          :  GBSA solvation                   true          :
          :  PC potential                    false          :
          :  electronic temp.          300.0000000     K    :
          :  accuracy                    1.0000000          :
          :  -> integral cutoff          0.2500000E+02      :
          :  -> integral neglect         0.1000000E-07      :
          :  -> SCF convergence          0.1000000E-05 Eh   :
          :  -> wf. convergence          0.1000000E-03 e    :
          :  Broyden damping             0.4000000          :
          ...................................................

 iter      E             dE          RMSdq      gap      omega  full diag
   1  -4139.7984122 -0.413980E+04  0.428E+00    2.28       0.0  T
   2  -4152.1595790 -0.123612E+02  0.226E+00    2.32       1.0  T
   3  -4152.6386533 -0.479074E+00  0.120E+00    2.38       1.0  T
   4  -4152.7077036 -0.690503E-01  0.292E-01    1.94       1.0  T
   5  -4152.8151875 -0.107484E+00  0.144E-01    2.09       1.0  T
   6  -4152.8295944 -0.144069E-01  0.741E-02    2.05       1.0  T
   7  -4152.8319283 -0.233388E-02  0.381E-02    1.99       1.0  T
   8  -4152.8330203 -0.109203E-02  0.167E-02    1.96       1.0  T
   9  -4152.8331722 -0.151948E-03  0.101E-02    1.93       1.0  T
  10  -4152.8332523 -0.800526E-04  0.538E-03    1.91       1.0  T
  11  -4152.8332770 -0.247360E-04  0.270E-03    1.91       1.0  T
  12  -4152.8332837 -0.667065E-05  0.151E-03    1.90       1.3  T
  13  -4152.8332858 -0.207614E-05  0.824E-04    1.90       2.4  T
  14  -4152.8332864 -0.620991E-06  0.409E-04    1.90       4.8  T
  15  -4152.8332866 -0.163792E-06  0.207E-04    1.90       9.5  T

   *** convergence criteria satisfied after 15 iterations ***

         #    Occupation            Energy/Eh            Energy/eV
      -------------------------------------------------------------
         1        2.0000           -0.7674184             -20.8825
       ...           ...                  ...                  ...
      3608        2.0000           -0.3589822              -9.7684
      3609        2.0000           -0.3583417              -9.7510
      3610        2.0000           -0.3583047              -9.7500
      3611        2.0000           -0.3582131              -9.7475
      3612        2.0000           -0.3569642              -9.7135
      3613        2.0000           -0.3505159              -9.5380
      3614        2.0000           -0.3436074              -9.3500 (HOMO)
      3615                         -0.2737466              -7.4490 (LUMO)
      3616                         -0.2707993              -7.3688
      3617                         -0.2697922              -7.3414
      3618                         -0.2688123              -7.3148
      3619                         -0.2674180              -7.2768
       ...                                ...                  ...
      6541                          0.7755824              21.1047
      -------------------------------------------------------------
                  HL-Gap            0.0698608 Eh            1.9010 eV
             Fermi-level           -0.3086770 Eh           -8.3995 eV

 SCC (total)                   0 d,  0 h,  6 min, 41.372 sec
 SCC setup                      ...        0 min,  3.070 sec (  0.765%)
 Dispersion                     ...        0 min,  2.033 sec (  0.507%)
 integral evaluation            ...        0 min,  8.491 sec (  2.115%)
 zeroth order Hamiltonian       ...        0 min,  0.339 sec (  0.084%)
 iterations                     ...        6 min,  9.404 sec ( 92.035%)
 molecular gradient             ...        0 min, 17.333 sec (  4.318%)
 printout                       ...        0 min,  0.701 sec (  0.175%)

         :::::::::::::::::::::::::::::::::::::::::::::::::::::
         ::                     SUMMARY                     ::
         :::::::::::::::::::::::::::::::::::::::::::::::::::::
         :: total energy           -4104.279119567719 Eh    ::
         :: total w/o Gsasa/hb     -4103.875043748696 Eh    ::
         :: gradient norm              1.317104391970 Eh/a0 ::
         :: HOMO-LUMO gap              1.901010094933 eV    ::
         ::.................................................::
         :: SCC energy             -4152.899678139731 Eh    ::
         :: -> isotropic ES           14.378643251247 Eh    ::
         :: -> anisotropic ES         -0.744253473654 Eh    ::
         :: -> anisotropic XC          1.165663505342 Eh    ::
         :: -> dispersion             -3.894990913500 Eh    ::
         :: -> Gsolv                  -4.220124311496 Eh    ::
         ::    -> Gborn               -3.816048492472 Eh    ::
         ::    -> Gsasa               -0.068249027471 Eh    ::
         ::    -> Ghb                 -0.337684234680 Eh    ::
         ::    -> Gshift               0.001857443127 Eh    ::
         :: repulsion energy          48.087644201222 Eh    ::
         :: add. restraining           0.000000000000 Eh    ::
         :::::::::::::::::::::::::::::::::::::::::::::::::::::

           -------------------------------------------------
          |                Property Printout                |
           -------------------------------------------------

    * Orbital Energies and Occupations

         #    Occupation            Energy/Eh            Energy/eV
      -------------------------------------------------------------
         1        2.0000           -0.7674184             -20.8825
       ...           ...                  ...                  ...
      3602        2.0000           -0.3620327              -9.8514
      3603        2.0000           -0.3616383              -9.8407
      3604        2.0000           -0.3611865              -9.8284
      3605        2.0000           -0.3602869              -9.8039
      3606        2.0000           -0.3602373              -9.8026
      3607        2.0000           -0.3599973              -9.7960
      3608        2.0000           -0.3589822              -9.7684
      3609        2.0000           -0.3583417              -9.7510
      3610        2.0000           -0.3583047              -9.7500
      3611        2.0000           -0.3582131              -9.7475
      3612        2.0000           -0.3569642              -9.7135
      3613        2.0000           -0.3505159              -9.5380
      3614        2.0000           -0.3436074              -9.3500 (HOMO)
      3615                         -0.2737466              -7.4490 (LUMO)
      3616                         -0.2707993              -7.3688
      3617                         -0.2697922              -7.3414
      3618                         -0.2688123              -7.3148
      3619                         -0.2674180              -7.2768
      3620                         -0.2632135              -7.1624
      3621                         -0.2629873              -7.1562
      3622                         -0.2628597              -7.1528
      3623                         -0.2622584              -7.1364
      3624                         -0.2621190              -7.1326
      3625                         -0.2610478              -7.1035
       ...                                ...                  ...
      6541                          0.7755824              21.1047
      -------------------------------------------------------------
                  HL-Gap            0.0698608 Eh            1.9010 eV
             Fermi-level           -0.3086770 Eh           -8.3995 eV

     #   Z        covCN         q      C6AA      α(0)
     1   7 N      3.498    -0.149    24.214     7.309
     2   1 H      0.860     0.304     0.701     1.311
     3   1 H      0.860     0.306     0.695     1.306
     4   1 H      0.860     0.316     0.667     1.279
     5   6 C      3.793    -0.034    21.180     6.554
     6   1 H      0.925     0.117     1.642     2.004
     7   6 C      3.867    -0.104    22.429     6.734
     8   1 H      0.924     0.117     1.641     2.003
     9   1 H      0.924     0.106     1.730     2.057
    10   6 C      3.797    -0.008    20.716     6.481
    11   1 H      0.925     0.050     2.321     2.383
    12   1 H      0.925     0.046     2.376     2.410
    13  16 S      2.003    -0.179   148.644    20.520
    14   6 C      3.742    -0.048    21.517     6.618
    15   1 H      0.925     0.045     2.383     2.414
    16   1 H      0.925     0.031     2.576     2.510
    17   1 H      0.925     0.036     2.500     2.473
    18   6 C      2.758     0.266    22.512     7.770
    19   8 O      0.862    -0.421    22.112     6.305
    20   7 N      2.714    -0.176    24.812     7.398
    21   1 H      0.860     0.220     1.008     1.573
    22   6 C      3.791     0.020    20.253     6.409
    23   1 H      0.925     0.094     1.840     2.121
    24   6 C      3.839    -0.112    22.604     6.764
    25   1 H      0.925     0.080     1.983     2.202
    26   1 H      0.925     0.103     1.760     2.075
    27   6 C      2.748     0.289    22.102     7.698
    28   8 O      0.869    -0.492    23.599     6.513
    29   7 N      2.654    -0.276    27.140     7.737
    30   1 H      0.860     0.225     0.988     1.557
    31   1 H      0.860     0.219     1.012     1.576
    32   6 C      2.743     0.282    22.220     7.718
    33   8 O      0.861    -0.509    23.986     6.566
    34   7 N      2.685    -0.151    24.270     7.317
    35   1 H      0.860     0.234     0.949     1.526
    36   6 C      3.792    -0.005    20.678     6.476
    37   1 H      0.925     0.104     1.750     2.069
    38   6 C      3.849    -0.035    21.163     6.543
    39   1 H      0.925     0.079     1.990     2.206
    40   6 C      3.753    -0.135    23.158     6.862
    41   1 H      0.925     0.054     2.272     2.357
    42   1 H      0.925     0.065     2.144     2.290
    43   1 H      0.925     0.027     2.633     2.538
    44   6 C      3.806    -0.075    21.936     6.667
    45   1 H      0.925     0.039     2.457     2.451
    46   1 H      0.924     0.068     2.107     2.270
    47   6 C      3.747    -0.122    22.909     6.827
    48   1 H      0.925     0.035     2.520     2.482
    49   1 H      0.924     0.046     2.365     2.405
    50   1 H      0.925     0.059     2.214     2.327
    51   6 C      2.752     0.286    22.155     7.708
    52   8 O      0.861    -0.501    23.808     6.542
    53   7 N      2.693    -0.176    24.803     7.397
    54   1 H      0.860     0.234     0.950     1.527
    55   6 C      3.786     0.014    20.351     6.425
    56   1 H      0.925     0.089     1.889     2.149
    57   6 C      3.808    -0.080    22.015     6.679
    58   1 H      0.925     0.066     2.130     2.282
    59   1 H      0.925     0.051     2.307     2.375
    60   6 C      2.964     0.008    27.839     8.654
    61   6 C      2.918    -0.047    29.175     8.857
    62   1 H      0.926     0.067     2.122     2.278
    63   6 C      2.922    -0.035    28.875     8.812
    64   1 H      0.925     0.053     2.288     2.365
    65   6 C      2.902    -0.032    28.786     8.797
    66   1 H      0.926     0.035     2.518     2.481
    67   6 C      2.916    -0.029    28.718     8.788
    68   1 H      0.926     0.013     2.841     2.636
    69   6 C      2.920    -0.046    29.141     8.852
    70   1 H      0.926     0.037     2.487     2.466
    71   6 C      2.740     0.264    22.539     7.773
    72   8 O      0.865    -0.444    22.581     6.371
    73   7 N      2.704    -0.185    25.019     7.429
    74   1 H      0.860     0.190     1.156     1.685
    75   6 C      3.794     0.028    20.103     6.385
    76   1 H      0.924     0.073     2.049     2.238
    77   6 C      3.813    -0.058    21.606     6.616
    78   1 H      0.925     0.057     2.240     2.340
    79   1 H      0.925     0.046     2.374     2.409
    80   6 C      3.805    -0.086    22.140     6.698
    81   1 H      0.925     0.013     2.838     2.635
    82   1 H      0.925     0.012     2.859     2.644
    83   6 C      2.687     0.379    20.590     7.426
    84   8 O      0.858    -0.644    27.219     6.995
    85   8 O      0.857    -0.653    27.465     7.026
    86   6 C      2.751     0.275    22.340     7.740
    87   8 O      0.860    -0.484    23.431     6.490
    88   7 N      2.689    -0.204    25.444     7.492
    89   1 H      0.860     0.243     0.912     1.496
    90   6 C      3.786     0.028    20.111     6.387
    91   1 H      0.925     0.056     2.246     2.344
    92   6 C      3.815    -0.080    22.012     6.678
    93   1 H      0.925     0.077     2.012     2.218
    94   1 H      0.924     0.083     1.947     2.182
    95   6 C      3.797    -0.002    20.612     6.465
    96   1 H      0.928     0.025     2.652     2.546
    97   1 H      0.925     0.021     2.712     2.575
    98  16 S      1.959    -0.142   147.011    20.407
    99   6 C      3.744    -0.075    22.009     6.692
   100   1 H      0.924     0.050     2.324     2.384
   101   1 H      0.925     0.076     2.022     2.224
   102   1 H      0.925     0.045     2.378     2.411
   103   6 C      2.743     0.267    22.486     7.764
   104   8 O      0.875    -0.501    23.790     6.540
   105   7 N      2.698    -0.184    24.980     7.423
   106   1 H      0.860     0.217     1.025     1.586
   107   6 C      3.770     0.020    20.266     6.415
   108   1 H      0.925     0.088     1.894     2.152
   109   6 C      3.792    -0.079    22.012     6.681
   110   1 H      0.925     0.067     2.122     2.278
   111   1 H      0.924     0.088     1.900     2.156
   112   6 C      3.840    -0.019    20.883     6.501
   113   1 H      0.925     0.032     2.552     2.498
   114   6 C      3.744    -0.115    22.775     6.808
   115   1 H      0.925     0.058     2.218     2.329
   116   1 H      0.925     0.018     2.768     2.602
   117   1 H      0.925     0.049     2.335     2.390
   118   6 C      3.751    -0.120    22.861     6.819
   119   1 H      0.925     0.041     2.431     2.438
   120   1 H      0.924     0.062     2.174     2.306
   121   1 H      0.925     0.040     2.455     2.450
   122   6 C      2.739     0.264    22.539     7.773
   123   8 O      0.861    -0.512    24.049     6.575
   124   7 N      2.682    -0.146    24.160     7.300
   125   1 H      0.860     0.196     1.129     1.664
   126   6 C      3.783     0.012    20.394     6.433
   127   1 H      0.925     0.103     1.762     2.076
   128   6 C      3.810    -0.074    21.902     6.662
   129   1 H      0.924     0.079     1.994     2.208
   130   1 H      0.925     0.049     2.328     2.386
   131   6 C      3.806    -0.091    22.224     6.711
   132   1 H      0.925     0.097     1.817     2.108
   133   1 H      0.924     0.079     1.986     2.204
   134   6 C      3.740    -0.019    20.997     6.538
   135   1 H      0.925     0.083     1.953     2.186
   136   1 H      0.925     0.079     1.988     2.205
   137   7 N      2.703    -0.153    24.302     7.322
   138   1 H      0.860     0.210     1.058     1.611
   139   6 C      2.733     0.232    23.138     7.875
   140   7 N      2.679    -0.248    26.457     7.639
   141   1 H      0.860     0.263     0.834     1.430
   142   1 H      0.860     0.262     0.838     1.434
   143   7 N      2.693    -0.227    25.963     7.568
   144   1 H      0.860     0.256     0.861     1.454
   145   1 H      0.860     0.216     1.028     1.588
   146   6 C      2.752     0.262    22.587     7.782
   147   8 O      0.858    -0.483    23.404     6.486
   148   7 N      2.683    -0.194    25.200     7.456
   149   1 H      0.860     0.205     1.081     1.629
   150   6 C      3.787     0.015    20.345     6.424
   151   1 H      0.924     0.090     1.875     2.141
   152   6 C      3.846    -0.009    20.714     6.474
   153   1 H      0.925     0.045     2.388     2.417
   154   6 C      3.749    -0.111    22.683     6.793
   155   1 H      0.925     0.042     2.425     2.435
   156   1 H      0.924     0.049     2.330     2.387
   157   1 H      0.925     0.044     2.396     2.421
   158   6 C      3.801    -0.061    21.665     6.627
   159   1 H      0.924     0.045     2.385     2.415
   160   1 H      0.924     0.038     2.471     2.458
   161   6 C      3.748    -0.093    22.339     6.741
   162   1 H      0.925     0.028     2.618     2.530
   163   1 H      0.924     0.027     2.631     2.536
   164   1 H      0.925     0.029     2.602     2.522
   165   6 C      2.749     0.277    22.312     7.735
   166   8 O      0.859    -0.507    23.935     6.559
   167   7 N      2.688    -0.200    25.339     7.476
   168   1 H      0.860     0.223     0.995     1.563
   169   6 C      3.779     0.025    20.184     6.400
   170   1 H      0.925     0.082     1.962     2.191
   171   6 C      3.800    -0.096    22.336     6.729
   172   1 H      0.925     0.039     2.464     2.455
   173   1 H      0.925     0.062     2.179     2.309
   174   6 C      2.689     0.362    20.866     7.476
   175   8 O      0.857    -0.564    25.261     6.739
   176   8 O      0.857    -0.612    26.419     6.891
   177   6 C      2.747     0.278    22.288     7.730
   178   8 O      0.861    -0.483    23.415     6.488
   179   7 N      2.681    -0.191    25.140     7.447
   180   1 H      0.860     0.207     1.069     1.619
   181   6 C      3.777     0.022    20.233     6.409
   182   1 H      0.925     0.075     2.029     2.228
   183   6 C      3.812    -0.053    21.525     6.604
   184   1 H      0.925     0.045     2.387     2.416
   185   1 H      0.925     0.051     2.307     2.375
   186   6 C      3.803    -0.087    22.148     6.700
   187   1 H      0.925     0.023     2.691     2.565
   188   1 H      0.925     0.018     2.769     2.602
   189   6 C      2.686     0.363    20.843     7.471
   190   8 O      0.858    -0.627    26.798     6.941
   191   8 O      0.857    -0.668    27.838     7.074
   192   6 C      2.753     0.272    22.401     7.750
   193   8 O      0.859    -0.474    23.216     6.460
   194   7 N      2.685    -0.155    24.362     7.331
   195   1 H      0.860     0.209     1.059     1.612
   196   6 C      3.742    -0.032    21.218     6.572
   197   1 H      0.925     0.104     1.749     2.068
   198   1 H      0.924     0.081     1.968     2.194
   199   6 C      2.747     0.263    22.562     7.778
   200   8 O      0.859    -0.498    23.743     6.533
   201   7 N      2.680    -0.166    24.590     7.365
   202   1 H      0.860     0.223     0.995     1.562
   203   6 C      3.778     0.008    20.473     6.446
   204   1 H      0.925     0.070     2.083     2.257
   205   6 C      3.799    -0.094    22.288     6.722
   206   1 H      0.925     0.079     1.992     2.207
   207   1 H      0.924     0.071     2.078     2.255
   208   6 C      3.842    -0.013    20.782     6.485
   209   1 H      0.925     0.039     2.459     2.452
   210   6 C      3.753    -0.123    22.908     6.825
   211   1 H      0.925     0.034     2.534     2.489
   212   1 H      0.925     0.036     2.505     2.475
   213   1 H      0.925     0.044     2.401     2.423
   214   6 C      3.755    -0.122    22.897     6.823
   215   1 H      0.925     0.040     2.443     2.444
   216   1 H      0.924     0.055     2.261     2.352
   217   1 H      0.925     0.043     2.415     2.430
   218   6 C      2.745     0.276    22.336     7.738
   219   8 O      0.867    -0.459    22.883     6.414
   220   7 N      2.689    -0.173    24.745     7.388
   221   1 H      0.860     0.205     1.078     1.627
   222   6 C      3.793     0.004    20.517     6.450
   223   1 H      0.925     0.098     1.808     2.103
   224   6 C      3.807    -0.086    22.131     6.697
   225   1 H      0.925     0.089     1.886     2.148
   226   1 H      0.924     0.068     2.107     2.270
   227   6 C      3.807    -0.091    22.228     6.711
   228   1 H      0.924     0.055     2.262     2.352
   229   1 H      0.924     0.090     1.883     2.146
   230   6 C      3.730    -0.034    21.275     6.584
   231   1 H      0.925     0.112     1.676     2.025
   232   1 H      0.924     0.063     2.168     2.302
   233   7 N      2.738    -0.173    24.745     7.388
   234   1 H      0.860     0.252     0.876     1.466
   235   6 C      2.733     0.244    22.904     7.835
   236   7 N      2.687    -0.244    26.371     7.627
   237   1 H      0.860     0.251     0.880     1.470
   238   1 H      0.860     0.228     0.975     1.546
   239   7 N      2.744    -0.273    27.050     7.725
   240   1 H      0.860     0.246     0.900     1.486
   241   1 H      0.860     0.258     0.853     1.446
   242   6 C      2.749     0.263    22.559     7.777
   243   8 O      0.860    -0.514    24.085     6.580
   244   7 N      2.692    -0.154    24.334     7.326
   245   1 H      0.860     0.207     1.071     1.621
   246   6 C      3.790     0.006    20.487     6.446
   247   1 H      0.924     0.088     1.895     2.153
   248   6 C      3.803    -0.089    22.199     6.708
   249   1 H      0.925     0.085     1.927     2.171
   250   1 H      0.925     0.069     2.098     2.265
   251   6 C      3.854    -0.030    21.063     6.527
   252   1 H      0.925     0.047     2.360     2.403
   253   6 C      3.747    -0.132    23.111     6.857
   254   1 H      0.924     0.049     2.333     2.388
   255   1 H      0.925     0.051     2.312     2.378
   256   1 H      0.925     0.053     2.287     2.365
   257   6 C      3.749    -0.119    22.837     6.816
   258   1 H      0.925     0.037     2.494     2.469
   259   1 H      0.924     0.035     2.512     2.479
   260   1 H      0.924     0.046     2.366     2.405
   261   6 C      2.743     0.257    22.678     7.797
   262   8 O      0.857    -0.489    23.554     6.507
   263   7 N      2.684    -0.148    24.201     7.306
   264   1 H      0.860     0.213     1.042     1.599
   265   6 C      3.785     0.007    20.479     6.446
   266   1 H      0.924     0.081     1.974     2.197
   267   6 C      3.796    -0.085    22.128     6.698
   268   1 H      0.925     0.073     2.054     2.241
   269   1 H      0.925     0.077     2.014     2.219
   270   6 C      3.790    -0.081    22.066     6.690
   271   1 H      0.925     0.057     2.233     2.337
   272   1 H      0.925     0.055     2.254     2.348
   273   6 C      3.793    -0.099    22.404     6.741
   274   1 H      0.924     0.083     1.947     2.182
   275   1 H      0.925     0.086     1.918     2.166
   276   6 C      3.722    -0.065    21.858     6.677
   277   1 H      0.924     0.133     1.515     1.925
   278   1 H      0.924     0.112     1.681     2.028
   279   7 N      3.484    -0.152    24.280     7.318
   280   1 H      0.860     0.300     0.713     1.323
   281   1 H      0.860     0.296     0.726     1.334
   282   1 H      0.860     0.300     0.713     1.323
   283   6 C      2.736     0.260    22.627     7.788
   284   8 O      0.857    -0.481    23.358     6.480
   285   7 N      2.678    -0.195    25.241     7.462
   286   1 H      0.860     0.231     0.960     1.535
   287   6 C      3.775    -0.002    20.639     6.473
   288   1 H      0.925     0.073     2.056     2.242
   289   6 C      3.836    -0.024    20.970     6.515
   290   1 H      0.924     0.083     1.947     2.182
   291   6 C      3.755    -0.120    22.860     6.817
   292   1 H      0.924     0.066     2.131     2.283
   293   1 H      0.925     0.039     2.467     2.456
   294   1 H      0.925     0.042     2.423     2.434
   295   6 C      3.793    -0.081    22.048     6.687
   296   1 H      0.925     0.055     2.259     2.350
   297   1 H      0.924     0.036     2.502     2.473
   298   6 C      3.748    -0.129    23.050     6.848
   299   1 H      0.925     0.023     2.686     2.563
   300   1 H      0.925     0.055     2.254     2.348
   301   1 H      0.924     0.056     2.249     2.345
   302   6 C      2.748     0.285    22.168     7.709
   303   8 O      0.862    -0.456    22.824     6.405
   304   7 N      2.689    -0.154    24.337     7.327
   305   1 H      0.860     0.196     1.125     1.661
   306   6 C      3.784     0.008    20.452     6.442
   307   1 H      0.925     0.113     1.672     2.022
   308   6 C      3.806    -0.103    22.463     6.747
   309   1 H      0.925     0.106     1.727     2.055
   310   1 H      0.925     0.086     1.921     2.168
   311   6 C      2.957    -0.006    28.170     8.705
   312   6 C      2.921    -0.045    29.113     8.848
   313   1 H      0.926     0.059     2.210     2.325
   314   6 C      2.910    -0.071    29.765     8.946
   315   1 H      0.926     0.021     2.723     2.580
   316   6 C      2.824     0.143    24.881     8.173
   317   8 O      1.659    -0.431    21.450     6.252
   318   1 H      0.805     0.308     0.698     1.312
   319   6 C      2.903    -0.065    29.606     8.922
   320   1 H      0.926     0.035     2.514     2.480
   321   6 C      2.913    -0.058    29.432     8.896
   322   1 H      0.926     0.088     1.901     2.156
   323   6 C      2.751     0.262    22.585     7.782
   324   8 O      0.867    -0.492    23.597     6.513
   325   7 N      2.709    -0.147    24.186     7.304
   326   1 H      0.860     0.219     1.013     1.576
   327   6 C      3.810     0.025    20.148     6.389
   328   1 H      0.925     0.080     1.978     2.200
   329   6 C      3.825    -0.076    21.930     6.664
   330   1 H      0.924     0.035     2.516     2.481
   331   1 H      0.924     0.069     2.097     2.265
   332   6 C      3.804    -0.070    21.845     6.654
   333   1 H      0.924     0.071     2.077     2.254
   334   1 H      0.925     0.046     2.374     2.409
   335   6 C      3.805    -0.096    22.328     6.727
   336   1 H      0.925     0.069     2.093     2.263
   337   1 H      0.924     0.089     1.893     2.152
   338   6 C      3.726    -0.051    21.598     6.635
   339   1 H      0.924     0.135     1.495     1.912
   340   1 H      0.925     0.125     1.570     1.959
   341   7 N      3.484    -0.149    24.219     7.309
   342   1 H      0.860     0.281     0.774     1.378
   343   1 H      0.860     0.303     0.705     1.316
   344   1 H      0.860     0.297     0.722     1.331
   345   6 C      2.759     0.271    22.426     7.755
   346   8 O      0.858    -0.506    23.916     6.557
   347   7 N      2.694    -0.171    24.701     7.381
   348   1 H      0.860     0.216     1.027     1.587
   349   6 C      3.787     0.035    20.005     6.370
   350   1 H      0.925     0.079     1.986     2.204
   351   6 C      3.801    -0.106    22.525     6.757
   352   1 H      0.925     0.040     2.451     2.448
   353   1 H      0.924     0.055     2.263     2.352
   354   6 C      2.679     0.345    21.145     7.525
   355   8 O      0.856    -0.626    26.775     6.938
   356   8 O      0.856    -0.622    26.657     6.922
   357   6 C      2.752     0.266    22.505     7.768
   358   8 O      0.861    -0.490    23.566     6.509
   359   7 N      2.685    -0.207    25.505     7.501
   360   1 H      0.860     0.219     1.016     1.579
   361   6 C      3.795     0.009    20.435     6.437
   362   1 H      0.924     0.083     1.945     2.181
   363   6 C      3.732     0.122    18.670     6.168
   364   1 H      0.925     0.072     2.063     2.246
   365   6 C      3.753    -0.142    23.300     6.883
   366   1 H      0.925     0.056     2.243     2.342
   367   1 H      0.925     0.079     1.988     2.205
   368   1 H      0.925     0.039     2.467     2.456
   369   8 O      1.660    -0.455    21.948     6.324
   370   1 H      0.805     0.322     0.657     1.273
   371   6 C      2.751     0.274    22.365     7.744
   372   8 O      0.859    -0.493    23.631     6.518
   373   7 N      2.695    -0.186    25.025     7.430
   374   1 H      0.860     0.192     1.147     1.678
   375   6 C      3.794     0.043    19.861     6.346
   376   1 H      0.924     0.080     1.977     2.199
   377   6 C      3.819    -0.054    21.537     6.605
   378   1 H      0.925     0.042     2.417     2.431
   379   1 H      0.924     0.059     2.208     2.324
   380   6 C      3.801    -0.089    22.197     6.708
   381   1 H      0.924     0.031     2.567     2.506
   382   1 H      0.925     0.048     2.345     2.395
   383   6 C      2.694     0.372    20.702     7.447
   384   8 O      0.858    -0.636    27.020     6.969
   385   8 O      0.858    -0.668    27.840     7.074
   386   6 C      2.752     0.264    22.547     7.776
   387   8 O      0.862    -0.462    22.958     6.424
   388   7 N      2.679    -0.206    25.478     7.497
   389   1 H      0.860     0.188     1.171     1.695
   390   6 C      3.729    -0.036    21.318     6.591
   391   1 H      0.924     0.114     1.661     2.015
   392   1 H      0.924     0.112     1.679     2.026
   393   6 C      2.752     0.267    22.501     7.767
   394   8 O      0.858    -0.462    22.951     6.423
   395   7 N      2.685    -0.140    24.030     7.280
   396   1 H      0.860     0.180     1.217     1.728
   397   6 C      3.794     0.017    20.299     6.416
   398   1 H      0.925     0.079     1.992     2.207
   399   6 C      3.817    -0.079    21.993     6.674
   400   1 H      0.924     0.076     2.024     2.225
   401   1 H      0.925     0.046     2.373     2.409
   402   6 C      2.960    -0.015    28.382     8.738
   403   6 C      2.909    -0.050    29.250     8.868
   404   1 H      0.926     0.041     2.430     2.438
   405   6 C      2.901    -0.062    29.529     8.910
   406   1 H      0.926     0.060     2.198     2.319
   407   6 C      2.842     0.143    24.878     8.174
   408   8 O      1.660    -0.427    21.377     6.242
   409   1 H      0.805     0.348     0.594     1.210
   410   6 C      2.906    -0.071    29.757     8.945
   411   1 H      0.926     0.054     2.276     2.359
   412   6 C      2.904    -0.038    28.938     8.820
   413   1 H      0.926     0.052     2.292     2.367
   414   6 C      2.751     0.258    22.661     7.795
   415   8 O      0.858    -0.517    24.154     6.589
   416   7 N      2.686    -0.150    24.238     7.312
   417   1 H      0.860     0.222     1.000     1.567
   418   6 C      3.782     0.017    20.306     6.419
   419   1 H      0.925     0.095     1.829     2.115
   420   6 C      3.811    -0.082    22.056     6.685
   421   1 H      0.925     0.062     2.172     2.305
   422   1 H      0.924     0.065     2.144     2.290
   423   6 C      2.947    -0.016    28.420     8.744
   424   6 C      2.899    -0.043    29.056     8.838
   425   1 H      0.926     0.046     2.372     2.408
   426   6 C      2.907    -0.068    29.686     8.934
   427   1 H      0.926     0.039     2.465     2.455
   428   6 C      2.828     0.137    24.993     8.192
   429   8 O      1.658    -0.419    21.218     6.218
   430   1 H      0.805     0.332     0.631     1.248
   431   6 C      2.906    -0.061    29.512     8.908
   432   1 H      0.926     0.083     1.945     2.181
   433   6 C      2.901    -0.051    29.261     8.869
   434   1 H      0.926     0.062     2.178     2.308
   435   6 C      2.745     0.261    22.592     7.783
   436   8 O      0.857    -0.512    24.060     6.576
   437   7 N      2.677    -0.160    24.455     7.345
   438   1 H      0.860     0.248     0.892     1.479
   439   6 C      3.772    -0.003    20.671     6.479
   440   1 H      0.925     0.091     1.874     2.141
   441   6 C      3.726     0.111    18.860     6.201
   442   1 H      0.925     0.056     2.241     2.341
   443   6 C      3.748    -0.136    23.180     6.867
   444   1 H      0.925     0.052     2.298     2.370
   445   1 H      0.925     0.064     2.148     2.292
   446   1 H      0.925     0.044     2.391     2.418
   447   8 O      1.656    -0.468    22.210     6.362
   448   1 H      0.806     0.311     0.690     1.305
   449   6 C      2.748     0.253    22.740     7.808
   450   8 O      0.865    -0.480    23.342     6.478
   451   7 N      2.689    -0.145    24.143     7.298
   452   1 H      0.860     0.203     1.090     1.635
   453   6 C      3.775     0.012    20.394     6.434
   454   1 H      0.924     0.094     1.837     2.119
   455   6 C      3.837    -0.033    21.140     6.541
   456   1 H      0.924     0.083     1.946     2.181
   457   6 C      3.749    -0.126    22.985     6.838
   458   1 H      0.924     0.042     2.426     2.436
   459   1 H      0.925     0.064     2.155     2.296
   460   1 H      0.925     0.045     2.384     2.415
   461   6 C      3.799    -0.080    22.021     6.682
   462   1 H      0.924     0.037     2.493     2.469
   463   1 H      0.925     0.063     2.161     2.299
   464   6 C      3.753    -0.111    22.674     6.790
   465   1 H      0.925     0.051     2.305     2.374
   466   1 H      0.925     0.044     2.391     2.418
   467   1 H      0.925     0.045     2.389     2.417
   468   6 C      2.736     0.258    22.654     7.793
   469   8 O      0.858    -0.488    23.529     6.504
   470   7 N      2.685    -0.155    24.347     7.328
   471   1 H      0.860     0.232     0.958     1.533
   472   6 C      3.745    -0.023    21.048     6.545
   473   1 H      0.925     0.060     2.201     2.320
   474   1 H      0.925     0.106     1.733     2.059
   475   6 C      2.750     0.266    22.517     7.770
   476   8 O      0.858    -0.477    23.272     6.468
   477   7 N      2.689    -0.165    24.561     7.360
   478   1 H      0.860     0.195     1.130     1.665
   479   6 C      3.789     0.022    20.223     6.405
   480   1 H      0.924     0.067     2.116     2.275
   481   6 C      3.841    -0.021    20.920     6.507
   482   1 H      0.925     0.049     2.332     2.388
   483   6 C      3.745    -0.114    22.762     6.806
   484   1 H      0.925     0.032     2.559     2.502
   485   1 H      0.925     0.058     2.228     2.334
   486   1 H      0.925     0.035     2.514     2.479
   487   6 C      3.787    -0.066    21.773     6.646
   488   1 H      0.924     0.036     2.497     2.471
   489   1 H      0.924     0.056     2.251     2.346
   490   6 C      3.741    -0.108    22.649     6.790
   491   1 H      0.925     0.038     2.475     2.460
   492   1 H      0.924     0.047     2.354     2.400
   493   1 H      0.925     0.038     2.477     2.461
   494   6 C      2.749     0.272    22.407     7.751
   495   8 O      0.864    -0.469    23.113     6.446
   496   7 N      2.686    -0.173    24.751     7.389
   497   1 H      0.860     0.208     1.067     1.618
   498   6 C      3.736    -0.025    21.104     6.556
   499   1 H      0.925     0.081     1.969     2.194
   500   1 H      0.925     0.082     1.961     2.190
   501   6 C      2.742     0.284    22.191     7.713
   502   8 O      0.858    -0.475    23.234     6.463
   503   7 N      2.684    -0.179    24.874     7.407
   504   1 H      0.860     0.225     0.989     1.557
   505   6 C      3.786     0.018    20.289     6.416
   506   1 H      0.925     0.069     2.098     2.265
   507   6 C      3.806    -0.085    22.120     6.695
   508   1 H      0.924     0.108     1.711     2.045
   509   1 H      0.924     0.088     1.900     2.155
   510   6 C      3.161     0.039    26.815     8.465
   511   7 N      2.882    -0.018    21.589     6.901
   512   1 H      0.860     0.261     0.841     1.437
   513   6 C      3.071     0.077    26.206     8.394
   514   1 H      0.926     0.149     1.401     1.851
   515   7 N      2.899    -0.030    21.824     6.938
   516   1 H      0.860     0.268     0.816     1.415
   517   6 C      3.064    -0.007    28.138     8.698
   518   1 H      0.926     0.118     1.632     1.998
   519   6 C      2.752     0.264    22.554     7.777
   520   8 O      0.864    -0.486    23.482     6.497
   521   7 N      2.698    -0.152    24.284     7.319
   522   1 H      0.860     0.209     1.061     1.613
   523   6 C      3.794     0.022    20.213     6.402
   524   1 H      0.925     0.075     2.036     2.232
   525   6 C      3.805    -0.086    22.129     6.697
   526   1 H      0.924     0.063     2.169     2.303
   527   1 H      0.924     0.067     2.113     2.273
   528   6 C      3.849    -0.014    20.798     6.487
   529   1 H      0.925     0.024     2.678     2.559
   530   6 C      3.755    -0.122    22.904     6.824
   531   1 H      0.925     0.024     2.667     2.554
   532   1 H      0.925     0.064     2.153     2.294
   533   1 H      0.924     0.047     2.355     2.400
   534   6 C      3.755    -0.136    23.175     6.864
   535   1 H      0.925     0.060     2.200     2.320
   536   1 H      0.924     0.070     2.081     2.256
   537   1 H      0.925     0.045     2.381     2.413
   538   6 C      2.750     0.271    22.415     7.753
   539   8 O      0.858    -0.504    23.868     6.550
   540   7 N      2.683    -0.178    24.848     7.403
   541   1 H      0.860     0.224     0.991     1.559
   542   6 C      3.770     0.014    20.377     6.433
   543   1 H      0.925     0.076     2.017     2.221
   544   6 C      3.790    -0.084    22.120     6.698
   545   1 H      0.925     0.046     2.366     2.406
   546   1 H      0.924     0.062     2.174     2.306
   547   6 C      3.835    -0.019    20.891     6.503
   548   1 H      0.925     0.034     2.524     2.485
   549   6 C      3.748    -0.123    22.930     6.830
   550   1 H      0.925     0.047     2.360     2.402
   551   1 H      0.925     0.050     2.323     2.383
   552   1 H      0.924     0.054     2.265     2.353
   553   6 C      3.754    -0.123    22.924     6.827
   554   1 H      0.925     0.035     2.516     2.480
   555   1 H      0.924     0.039     2.465     2.455
   556   1 H      0.925     0.065     2.144     2.290
   557   6 C      2.740     0.262    22.579     7.780
   558   8 O      0.859    -0.505    23.887     6.553
   559   7 N      2.687    -0.155    24.358     7.330
   560   1 H      0.860     0.224     0.992     1.560
   561   6 C      3.788     0.008    20.459     6.442
   562   1 H      0.925     0.071     2.075     2.253
   563   6 C      3.729     0.120    18.716     6.176
   564   1 H      0.925     0.014     2.824     2.628
   565   6 C      3.751    -0.122    22.900     6.824
   566   1 H      0.924     0.046     2.366     2.406
   567   1 H      0.925     0.082     1.959     2.189
   568   1 H      0.925     0.048     2.349     2.397
   569   8 O      1.661    -0.471    22.280     6.372
   570   1 H      0.805     0.353     0.582     1.198
   571   6 C      2.762     0.260    22.613     7.787
   572   8 O      0.860    -0.471    23.145     6.450
   573   7 N      2.689    -0.159    24.433     7.341
   574   1 H      0.860     0.211     1.052     1.606
   575   6 C      3.782     0.009    20.449     6.442
   576   1 H      0.925     0.099     1.790     2.092
   577   6 C      3.795    -0.082    22.075     6.690
   578   1 H      0.924     0.072     2.061     2.245
   579   1 H      0.924     0.057     2.237     2.339
   580   6 C      3.806    -0.078    21.987     6.675
   581   1 H      0.925     0.054     2.275     2.359
   582   1 H      0.924     0.064     2.157     2.297
   583   6 C      3.806    -0.091    22.230     6.712
   584   1 H      0.924     0.080     1.982     2.202
   585   1 H      0.925     0.085     1.929     2.172
   586   6 C      3.735    -0.050    21.561     6.627
   587   1 H      0.925     0.109     1.708     2.044
   588   1 H      0.924     0.105     1.741     2.063
   589   7 N      3.487    -0.146    24.144     7.298
   590   1 H      0.860     0.305     0.699     1.310
   591   1 H      0.860     0.302     0.708     1.318
   592   1 H      0.860     0.295     0.728     1.336
   593   6 C      2.757     0.275    22.347     7.741
   594   8 O      0.858    -0.468    23.084     6.442
   595   7 N      2.689    -0.183    24.971     7.422
   596   1 H      0.860     0.214     1.039     1.596
   597   6 C      3.791     0.018    20.285     6.414
   598   1 H      0.925     0.077     2.011     2.217
   599   6 C      3.680     0.066    19.680     6.354
   600   1 H      0.925     0.053     2.278     2.360
   601   1 H      0.924     0.048     2.345     2.395
   602   8 O      1.654    -0.486    22.588     6.416
   603   1 H      0.805     0.341     0.609     1.225
   604   6 C      2.745     0.257    22.668     7.796
   605   8 O      0.857    -0.481    23.373     6.482
   606   7 N      2.749    -0.103    23.265     7.164
   607   6 C      3.760    -0.011    20.812     6.504
   608   1 H      0.925     0.068     2.111     2.272
   609   1 H      0.925     0.054     2.269     2.355
   610   6 C      3.836    -0.079    21.981     6.670
   611   1 H      0.924     0.072     2.064     2.247
   612   1 H      0.925     0.066     2.127     2.281
   613   6 C      3.824    -0.072    21.854     6.652
   614   1 H      0.925     0.073     2.049     2.238
   615   1 H      0.925     0.083     1.945     2.181
   616   6 C      3.826     0.023    20.168     6.390
   617   1 H      0.925     0.097     1.812     2.105
   618   6 C      2.747     0.272    22.401     7.750
   619   8 O      0.858    -0.483    23.418     6.488
   620   7 N      2.677    -0.180    24.910     7.413
   621   1 H      0.860     0.203     1.089     1.635
   622   6 C      3.773     0.002    20.583     6.465
   623   1 H      0.924     0.073     2.052     2.240
   624   6 C      3.672     0.060    19.799     6.377
   625   1 H      0.924     0.072     2.067     2.248
   626   1 H      0.925     0.071     2.076     2.253
   627   8 O      1.653    -0.481    22.487     6.401
   628   1 H      0.805     0.347     0.594     1.211
   629   6 C      2.746     0.257    22.669     7.796
   630   8 O      0.860    -0.493    23.633     6.518
   631   7 N      2.682    -0.176    24.819     7.399
   632   1 H      0.860     0.220     1.008     1.573
   633   6 C      3.789     0.004    20.521     6.452
   634   1 H      0.925     0.108     1.717     2.049
   635   6 C      3.798    -0.085    22.117     6.696
   636   1 H      0.924     0.058     2.217     2.329
   637   1 H      0.925     0.075     2.031     2.228
   638   6 C      3.844    -0.028    21.036     6.524
   639   1 H      0.925     0.057     2.232     2.336
   640   6 C      3.760    -0.141    23.265     6.876
   641   1 H      0.925     0.069     2.095     2.264
   642   1 H      0.925     0.061     2.184     2.311
   643   1 H      0.925     0.042     2.422     2.434
   644   6 C      3.767    -0.140    23.239     6.871
   645   1 H      0.924     0.043     2.410     2.428
   646   1 H      0.924     0.052     2.291     2.367
   647   1 H      0.924     0.072     2.060     2.245
   648   6 C      2.753     0.262    22.585     7.782
   649   8 O      0.857    -0.481    23.360     6.480
   650   7 N      2.687    -0.151    24.273     7.317
   651   1 H      0.860     0.218     1.018     1.580
   652   6 C      3.788     0.017    20.307     6.418
   653   1 H      0.924     0.108     1.716     2.049
   654   6 C      3.802    -0.122    22.843     6.805
   655   1 H      0.925     0.115     1.657     2.013
   656   1 H      0.924     0.084     1.939     2.178
   657   6 C      2.740     0.277    22.315     7.735
   658   8 O      0.860    -0.507    23.950     6.561
   659   7 N      2.637    -0.272    27.037     7.723
   660   1 H      0.860     0.248     0.893     1.480
   661   1 H      0.860     0.239     0.928     1.509
   662   6 C      2.752     0.262    22.575     7.780
   663   8 O      0.858    -0.500    23.795     6.540
   664   7 N      2.691    -0.193    25.182     7.453
   665   1 H      0.860     0.230     0.964     1.538
   666   6 C      3.797     0.028    20.113     6.386
   667   1 H      0.925     0.058     2.227     2.334
   668   6 C      3.755    -0.132    23.094     6.852
   669   1 H      0.925     0.059     2.212     2.326
   670   1 H      0.925     0.086     1.921     2.167
   671   1 H      0.924     0.077     2.007     2.215
   672   6 C      2.751     0.271    22.416     7.753
   673   8 O      0.862    -0.539    24.670     6.659
   674   7 N      2.690    -0.163    24.532     7.356
   675   1 H      0.860     0.229     0.967     1.541
   676   6 C      3.786     0.019    20.274     6.413
   677   1 H      0.925     0.068     2.106     2.269
   678   6 C      3.751    -0.139    23.248     6.876
   679   1 H      0.925     0.071     2.072     2.251
   680   1 H      0.925     0.091     1.868     2.137
   681   1 H      0.924     0.090     1.877     2.143
   682   6 C      2.748     0.259    22.632     7.790
   683   8 O      0.859    -0.505    23.905     6.555
   684   7 N      2.686    -0.169    24.662     7.376
   685   1 H      0.860     0.247     0.897     1.483
   686   6 C      3.779     0.011    20.418     6.437
   687   1 H      0.924     0.086     1.922     2.168
   688   6 C      3.795    -0.081    22.055     6.687
   689   1 H      0.925     0.055     2.254     2.348
   690   1 H      0.925     0.066     2.126     2.280
   691   6 C      3.786    -0.092    22.274     6.722
   692   1 H      0.925     0.091     1.865     2.135
   693   1 H      0.925     0.066     2.133     2.284
   694   6 C      3.781    -0.099    22.408     6.744
   695   1 H      0.925     0.077     2.006     2.215
   696   1 H      0.925     0.086     1.921     2.167
   697   6 C      3.718    -0.057    21.723     6.658
   698   1 H      0.925     0.132     1.521     1.929
   699   1 H      0.925     0.111     1.686     2.030
   700   7 N      3.486    -0.144    24.106     7.292
   701   1 H      0.860     0.293     0.733     1.341
   702   1 H      0.860     0.291     0.741     1.348
   703   1 H      0.860     0.299     0.715     1.325
   704   6 C      2.736     0.283    22.211     7.716
   705   8 O      0.863    -0.456    22.822     6.405
   706   7 N      2.688    -0.203    25.416     7.488
   707   1 H      0.860     0.208     1.068     1.619
   708   6 C      3.783     0.031    20.066     6.381
   709   1 H      0.925     0.085     1.931     2.173
   710   6 C      3.677     0.090    19.301     6.294
   711   1 H      0.925     0.018     2.759     2.597
   712   1 H      0.925     0.055     2.263     2.352
   713   8 O      1.657    -0.487    22.611     6.419
   714   1 H      0.805     0.367     0.550     1.165
   715   6 C      2.757     0.249    22.818     7.822
   716   8 O      0.857    -0.543    24.766     6.672
   717   7 N      2.685    -0.156    24.369     7.332
   718   1 H      0.860     0.230     0.965     1.539
   719   6 C      3.794     0.033    20.031     6.373
   720   1 H      0.925     0.073     2.048     2.238
   721   6 C      3.796    -0.049    21.452     6.595
   722   1 H      0.925     0.041     2.440     2.443
   723   1 H      0.924     0.048     2.347     2.396
   724   6 C      3.799    -0.086    22.141     6.700
   725   1 H      0.925     0.025     2.652     2.547
   726   1 H      0.925     0.016     2.798     2.616
   727   6 C      2.690     0.380    20.558     7.420
   728   8 O      0.861    -0.630    26.859     6.949
   729   8 O      0.857    -0.673    27.981     7.092
   730   6 C      2.743     0.267    22.499     7.766
   731   8 O      0.863    -0.474    23.224     6.461
   732   7 N      2.698    -0.190    25.122     7.444
   733   1 H      0.860     0.209     1.061     1.614
   734   6 C      3.789     0.028    20.108     6.387
   735   1 H      0.925     0.088     1.899     2.155
   736   6 C      3.818    -0.087    22.138     6.696
   737   1 H      0.925     0.052     2.299     2.371
   738   1 H      0.924     0.087     1.907     2.159
   739   6 C      3.837    -0.023    20.958     6.513
   740   1 H      0.924     0.028     2.622     2.532
   741   6 C      3.741    -0.126    22.994     6.841
   742   1 H      0.924     0.038     2.479     2.462
   743   1 H      0.925     0.054     2.265     2.354
   744   1 H      0.924     0.063     2.169     2.303
   745   6 C      3.757    -0.133    23.117     6.855
   746   1 H      0.925     0.075     2.031     2.228
   747   1 H      0.924     0.055     2.253     2.347
   748   1 H      0.925     0.044     2.396     2.421
   749   6 C      2.748     0.265    22.533     7.773
   750   8 O      0.858    -0.506    23.919     6.557
   751   7 N      2.700    -0.177    24.822     7.399
   752   1 H      0.860     0.211     1.052     1.607
   753   6 C      3.785     0.052    19.726     6.326
   754   1 H      0.925     0.066     2.134     2.285
   755   6 C      3.812    -0.089    22.183     6.704
   756   1 H      0.924     0.036     2.508     2.477
   757   1 H      0.924     0.055     2.259     2.351
   758   6 C      2.687     0.369    20.745     7.454
   759   8 O      0.856    -0.610    26.366     6.884
   760   8 O      0.856    -0.690    28.431     7.149
   761   6 C      2.744     0.272    22.404     7.750
   762   8 O      0.859    -0.522    24.271     6.605
   763   7 N      2.687    -0.177    24.835     7.401
   764   1 H      0.860     0.197     1.121     1.658
   765   6 C      3.782     0.038    19.960     6.364
   766   1 H      0.925     0.081     1.966     2.193
   767   6 C      3.809    -0.066    21.754     6.639
   768   1 H      0.925     0.040     2.443     2.444
   769   1 H      0.925     0.056     2.247     2.344
   770   6 C      3.807    -0.076    21.946     6.669
   771   1 H      0.925     0.060     2.201     2.320
   772   1 H      0.925     0.069     2.096     2.264
   773   6 C      3.806    -0.088    22.177     6.704
   774   1 H      0.925     0.077     2.011     2.218
   775   1 H      0.925     0.074     2.042     2.235
   776   6 C      3.736    -0.057    21.680     6.645
   777   1 H      0.924     0.120     1.613     1.986
   778   1 H      0.924     0.125     1.574     1.962
   779   7 N      3.487    -0.152    24.272     7.317
   780   1 H      0.860     0.318     0.661     1.274
   781   1 H      0.860     0.296     0.726     1.335
   782   1 H      0.860     0.291     0.741     1.349
   783   6 C      2.747     0.262    22.583     7.781
   784   8 O      0.863    -0.509    23.979     6.566
   785   7 N      2.691    -0.162    24.500     7.351
   786   1 H      0.860     0.200     1.105     1.647
   787   6 C      3.785     0.029    20.109     6.387
   788   1 H      0.925     0.099     1.794     2.095
   789   6 C      3.749    -0.134    23.143     6.861
   790   1 H      0.925     0.078     2.002     2.213
   791   1 H      0.925     0.056     2.246     2.344
   792   1 H      0.924     0.083     1.950     2.184
   793   6 C      2.745     0.268    22.469     7.762
   794   8 O      0.857    -0.493    23.638     6.518
   795   7 N      2.681    -0.202    25.399     7.485
   796   1 H      0.860     0.220     1.009     1.574
   797   6 C      3.790     0.015    20.328     6.421
   798   1 H      0.925     0.087     1.912     2.162
   799   6 C      3.842    -0.033    21.126     6.538
   800   1 H      0.924     0.062     2.176     2.307
   801   6 C      3.743    -0.111    22.696     6.797
   802   1 H      0.925     0.024     2.667     2.554
   803   1 H      0.925     0.056     2.246     2.344
   804   1 H      0.925     0.034     2.535     2.490
   805   6 C      3.796    -0.065    21.756     6.642
   806   1 H      0.925     0.048     2.342     2.393
   807   1 H      0.924     0.062     2.174     2.306
   808   6 C      3.751    -0.108    22.633     6.785
   809   1 H      0.925     0.036     2.499     2.472
   810   1 H      0.924     0.041     2.434     2.440
   811   1 H      0.924     0.045     2.380     2.413
   812   6 C      2.746     0.281    22.237     7.721
   813   8 O      0.860    -0.463    22.990     6.429
   814   7 N      2.679    -0.193    25.193     7.455
   815   1 H      0.860     0.201     1.100     1.643
   816   6 C      3.737    -0.037    21.317     6.589
   817   1 H      0.924     0.102     1.771     2.081
   818   1 H      0.925     0.088     1.900     2.155
   819   6 C      2.747     0.289    22.100     7.698
   820   8 O      0.864    -0.490    23.557     6.507
   821   7 N      2.695    -0.168    24.627     7.370
   822   1 H      0.860     0.195     1.132     1.667
   823   6 C      3.800     0.021    20.223     6.403
   824   1 H      0.925     0.074     2.047     2.237
   825   6 C      3.809    -0.081    22.035     6.682
   826   1 H      0.925     0.070     2.085     2.258
   827   1 H      0.924     0.072     2.059     2.244
   828   6 C      3.803    -0.068    21.809     6.649
   829   1 H      0.925     0.048     2.342     2.393
   830   1 H      0.924     0.050     2.319     2.381
   831   6 C      3.732    -0.022    21.053     6.549
   832   1 H      0.924     0.087     1.911     2.162
   833   1 H      0.925     0.077     2.014     2.219
   834   7 N      2.713    -0.179    24.871     7.407
   835   1 H      0.860     0.244     0.909     1.493
   836   6 C      2.734     0.249    22.811     7.819
   837   7 N      2.700    -0.255    26.627     7.664
   838   1 H      0.860     0.240     0.922     1.504
   839   1 H      0.860     0.232     0.959     1.534
   840   7 N      2.732    -0.270    26.987     7.715
   841   1 H      0.861     0.239     0.929     1.509
   842   1 H      0.860     0.252     0.874     1.465
   843   6 C      2.759     0.274    22.362     7.744
   844   8 O      0.861    -0.497    23.710     6.528
   845   7 N      2.691    -0.167    24.623     7.370
   846   1 H      0.860     0.221     1.004     1.570
   847   6 C      3.786     0.033    20.036     6.376
   848   1 H      0.924     0.064     2.154     2.295
   849   6 C      3.805    -0.120    22.801     6.798
   850   1 H      0.925     0.103     1.762     2.076
   851   1 H      0.925     0.079     1.987     2.204
   852   6 C      2.741     0.295    21.987     7.677
   853   8 O      0.859    -0.478    23.307     6.473
   854   7 N      2.641    -0.289    27.460     7.783
   855   1 H      0.860     0.241     0.917     1.500
   856   1 H      0.860     0.236     0.942     1.520
   857   6 C      2.746     0.268    22.482     7.764
   858   8 O      0.857    -0.476    23.251     6.465
   859   7 N      2.685    -0.160    24.452     7.344
   860   1 H      0.860     0.187     1.175     1.698
   861   6 C      3.813     0.009    20.420     6.432
   862   1 H      0.925     0.116     1.642     2.004
   863   6 C      3.799    -0.019    20.925     6.513
   864   1 H      0.925     0.059     2.206     2.322
   865   1 H      0.925     0.099     1.796     2.095
   866  16 S      1.921    -0.234   151.088    20.688
   867   1 H      0.923     0.134     1.509     1.921
   868   6 C      2.750     0.262    22.583     7.781
   869   8 O      0.860    -0.461    22.943     6.422
   870   7 N      2.697    -0.151    24.264     7.316
   871   1 H      0.860     0.189     1.166     1.691
   872   6 C      3.794     0.028    20.107     6.385
   873   1 H      0.925     0.090     1.881     2.145
   874   6 C      3.800    -0.108    22.569     6.764
   875   1 H      0.925     0.083     1.946     2.182
   876   1 H      0.925     0.079     1.992     2.207
   877   6 C      2.732     0.280    22.262     7.725
   878   8 O      0.858    -0.445    22.600     6.374
   879   7 N      2.635    -0.295    27.618     7.805
   880   1 H      0.860     0.250     0.885     1.474
   881   1 H      0.860     0.219     1.014     1.577
   882   6 C      2.747     0.265    22.524     7.771
   883   8 O      0.860    -0.447    22.633     6.379
   884   7 N      2.685    -0.175    24.784     7.394
   885   1 H      0.860     0.184     1.193     1.711
   886   6 C      3.736    -0.045    21.469     6.612
   887   1 H      0.925     0.129     1.542     1.942
   888   1 H      0.925     0.109     1.708     2.044
   889   6 C      2.751     0.259    22.645     7.792
   890   8 O      0.856    -0.495    23.672     6.523
   891   7 N      2.690    -0.123    23.670     7.226
   892   1 H      0.860     0.206     1.075     1.624
   893   6 C      3.798     0.016    20.302     6.416
   894   1 H      0.924     0.092     1.864     2.135
   895   6 C      3.855    -0.019    20.874     6.498
   896   1 H      0.924     0.043     2.405     2.425
   897   6 C      3.748    -0.123    22.917     6.828
   898   1 H      0.925     0.052     2.301     2.372
   899   1 H      0.925     0.056     2.247     2.344
   900   1 H      0.924     0.028     2.618     2.530
   901   6 C      3.751    -0.126    22.976     6.836
   902   1 H      0.925     0.066     2.131     2.283
   903   1 H      0.925     0.058     2.221     2.331
   904   1 H      0.924     0.053     2.283     2.363
   905   6 C      2.754     0.257    22.678     7.798
   906   8 O      0.859    -0.516    24.130     6.586
   907   7 N      2.682    -0.155    24.356     7.330
   908   1 H      0.860     0.233     0.952     1.528
   909   6 C      3.783     0.014    20.351     6.426
   910   1 H      0.924     0.069     2.093     2.262
   911   6 C      3.845    -0.030    21.069     6.529
   912   1 H      0.925     0.042     2.425     2.435
   913   6 C      3.748    -0.116    22.788     6.809
   914   1 H      0.924     0.041     2.439     2.442
   915   1 H      0.924     0.055     2.262     2.352
   916   1 H      0.925     0.042     2.421     2.433
   917   6 C      3.801    -0.063    21.710     6.634
   918   1 H      0.924     0.029     2.595     2.519
   919   1 H      0.925     0.051     2.305     2.374
   920   6 C      3.751    -0.114    22.740     6.801
   921   1 H      0.924     0.021     2.721     2.580
   922   1 H      0.924     0.054     2.274     2.358
   923   1 H      0.925     0.049     2.333     2.389
   924   6 C      2.750     0.261    22.595     7.784
   925   8 O      0.863    -0.499    23.757     6.535
   926   7 N      2.687    -0.151    24.271     7.317
   927   1 H      0.860     0.215     1.033     1.592
   928   6 C      3.790     0.000    20.585     6.461
   929   1 H      0.924     0.093     1.849     2.126
   930   6 C      3.728     0.116    18.784     6.188
   931   1 H      0.925     0.050     2.322     2.383
   932   6 C      3.754    -0.143    23.308     6.884
   933   1 H      0.924     0.064     2.149     2.293
   934   1 H      0.924     0.068     2.106     2.269
   935   1 H      0.924     0.053     2.278     2.360
   936   8 O      1.661    -0.501    22.911     6.462
   937   1 H      0.806     0.330     0.637     1.254
   938   6 C      2.755     0.273    22.378     7.746
   939   8 O      0.859    -0.491    23.575     6.510
   940   7 N      2.685    -0.187    25.061     7.435
   941   1 H      0.860     0.227     0.980     1.551
   942   6 C      3.797     0.016    20.304     6.416
   943   1 H      0.925     0.100     1.784     2.089
   944   6 C      3.792    -0.092    22.261     6.719
   945   1 H      0.925     0.100     1.783     2.088
   946   1 H      0.925     0.086     1.923     2.168
   947   6 C      3.787    -0.085    22.134     6.701
   948   1 H      0.924     0.048     2.348     2.397
   949   1 H      0.924     0.065     2.137     2.286
   950   6 C      3.804    -0.105    22.495     6.752
   951   1 H      0.925     0.111     1.689     2.032
   952   1 H      0.925     0.085     1.926     2.170
   953   6 C      3.730    -0.058    21.721     6.653
   954   1 H      0.925     0.116     1.649     2.008
   955   1 H      0.924     0.132     1.523     1.930
   956   7 N      3.489    -0.148    24.198     7.306
   957   1 H      0.860     0.295     0.729     1.338
   958   1 H      0.860     0.297     0.723     1.332
   959   1 H      0.860     0.282     0.769     1.373
   960   6 C      2.747     0.268    22.479     7.763
   961   8 O      0.860    -0.522    24.287     6.607
   962   7 N      2.688    -0.194    25.207     7.457
   963   1 H      0.860     0.207     1.069     1.619
   964   6 C      3.787     0.039    19.940     6.360
   965   1 H      0.925     0.065     2.136     2.286
   966   6 C      3.804    -0.101    22.422     6.741
   967   1 H      0.925     0.045     2.385     2.415
   968   1 H      0.925     0.052     2.292     2.367
   969   6 C      2.686     0.373    20.673     7.441
   970   8 O      0.857    -0.633    26.954     6.961
   971   8 O      0.856    -0.659    27.626     7.047
   972   6 C      2.757     0.273    22.377     7.746
   973   8 O      0.858    -0.543    24.757     6.671
   974   7 N      2.691    -0.154    24.330     7.326
   975   1 H      0.860     0.226     0.981     1.552
   976   6 C      3.798     0.022    20.202     6.400
   977   1 H      0.925     0.074     2.047     2.237
   978   6 C      3.814    -0.074    21.909     6.662
   979   1 H      0.925     0.061     2.185     2.312
   980   1 H      0.924     0.077     2.013     2.219
   981   6 C      3.802    -0.095    22.320     6.726
   982   1 H      0.924     0.043     2.405     2.425
   983   1 H      0.924     0.041     2.433     2.439
   984   6 C      2.689     0.360    20.895     7.481
   985   8 O      0.856    -0.610    26.369     6.885
   986   8 O      0.856    -0.580    25.632     6.788
   987   6 C      2.758     0.257    22.669     7.797
   988   8 O      0.858    -0.502    23.821     6.544
   989   7 N      2.693    -0.166    24.601     7.366
   990   1 H      0.860     0.229     0.971     1.543
   991   6 C      3.797     0.021    20.232     6.405
   992   1 H      0.925     0.104     1.753     2.070
   993   6 C      3.758    -0.134    23.135     6.857
   994   1 H      0.925     0.068     2.103     2.268
   995   1 H      0.925     0.093     1.850     2.127
   996   1 H      0.924     0.086     1.917     2.165
   997   6 C      2.746     0.261    22.600     7.784
   998   8 O      0.856    -0.475    23.249     6.465
   999   7 N      2.687    -0.170    24.673     7.377
  1000   1 H      0.860     0.198     1.117     1.655
  1001   6 C      3.791     0.028    20.110     6.386
  1002   1 H      0.925     0.082     1.964     2.191
  1003   6 C      3.809    -0.056    21.579     6.612
  1004   1 H      0.925     0.036     2.504     2.474
  1005   1 H      0.925     0.078     2.001     2.212
  1006   6 C      3.803    -0.085    22.126     6.697
  1007   1 H      0.925     0.035     2.512     2.479
  1008   1 H      0.925    -0.001     3.080     2.744
  1009   6 C      2.690     0.378    20.596     7.427
  1010   8 O      0.858    -0.675    28.033     7.099
  1011   8 O      0.859    -0.612    26.412     6.890
  1012   6 C      2.755     0.271    22.424     7.754
  1013   8 O      0.858    -0.492    23.608     6.514
  1014   7 N      2.679    -0.200    25.352     7.478
  1015   1 H      0.860     0.207     1.072     1.622
  1016   6 C      3.786     0.016    20.329     6.422
  1017   1 H      0.925     0.075     2.035     2.231
  1018   6 C      3.802    -0.079    22.003     6.678
  1019   1 H      0.925     0.053     2.278     2.360
  1020   1 H      0.924     0.049     2.330     2.387
  1021   6 C      3.801    -0.072    21.886     6.661
  1022   1 H      0.925     0.067     2.118     2.276
  1023   1 H      0.924     0.063     2.167     2.302
  1024   6 C      3.793    -0.093    22.276     6.721
  1025   1 H      0.924     0.081     1.971     2.195
  1026   1 H      0.924     0.070     2.082     2.256
  1027   6 C      3.719    -0.062    21.814     6.671
  1028   1 H      0.925     0.128     1.552     1.948
  1029   1 H      0.924     0.132     1.517     1.926
  1030   7 N      3.490    -0.138    23.976     7.272
  1031   1 H      0.860     0.290     0.743     1.350
  1032   1 H      0.860     0.306     0.696     1.307
  1033   1 H      0.860     0.295     0.728     1.336
  1034   6 C      2.756     0.274    22.366     7.744
  1035   8 O      0.859    -0.499    23.756     6.535
  1036   7 N      2.699    -0.186    25.040     7.432
  1037   1 H      0.860     0.231     0.959     1.534
  1038   6 C      3.795     0.031    20.056     6.377
  1039   1 H      0.925     0.083     1.945     2.181
  1040   6 C      3.814    -0.087    22.146     6.698
  1041   1 H      0.924     0.061     2.186     2.312
  1042   1 H      0.925     0.071     2.074     2.252
  1043   6 C      3.852    -0.016    20.816     6.489
  1044   1 H      0.925     0.025     2.661     2.551
  1045   6 C      3.776    -0.131    23.039     6.839
  1046   1 H      0.924     0.042     2.419     2.432
  1047   1 H      0.924     0.053     2.280     2.361
  1048   1 H      0.925     0.064     2.153     2.294
  1049   6 C      3.771    -0.120    22.826     6.808
  1050   1 H      0.925     0.025     2.654     2.548
  1051   1 H      0.925     0.057     2.233     2.337
  1052   1 H      0.924     0.047     2.360     2.402
  1053   6 C      2.748     0.280    22.263     7.726
  1054   8 O      0.859    -0.499    23.765     6.536
  1055   7 N      2.680    -0.207    25.494     7.499
  1056   1 H      0.860     0.216     1.029     1.589
  1057   6 C      3.780     0.030    20.099     6.387
  1058   1 H      0.925     0.066     2.136     2.285
  1059   6 C      3.808    -0.073    21.880     6.659
  1060   1 H      0.924     0.059     2.208     2.324
  1061   1 H      0.925     0.080     1.980     2.200
  1062   6 C      2.951     0.008    27.837     8.654
  1063   6 C      2.905    -0.034    28.845     8.806
  1064   1 H      0.926     0.021     2.723     2.580
  1065   6 C      2.896    -0.038    28.952     8.822
  1066   1 H      0.926     0.048     2.342     2.393
  1067   6 C      2.895    -0.047    29.168     8.855
  1068   1 H      0.926     0.051     2.306     2.375
  1069   6 C      2.899    -0.044    29.104     8.845
  1070   1 H      0.926     0.062     2.177     2.307
  1071   6 C      2.904    -0.045    29.128     8.849
  1072   1 H      0.926     0.044     2.402     2.424
  1073   6 C      2.743     0.266    22.502     7.767
  1074   8 O      0.857    -0.505    23.892     6.553
  1075   7 N      2.699    -0.192    25.162     7.450
  1076   1 H      0.860     0.231     0.961     1.535
  1077   6 C      3.800     0.044    19.842     6.342
  1078   1 H      0.925     0.089     1.891     2.150
  1079   6 C      3.833    -0.102    22.421     6.737
  1080   1 H      0.925     0.058     2.221     2.331
  1081   1 H      0.925     0.088     1.898     2.154
  1082   6 C      2.752     0.287    22.129     7.703
  1083   8 O      0.862    -0.531    24.486     6.634
  1084   7 N      2.648    -0.262    26.789     7.687
  1085   1 H      0.860     0.256     0.861     1.453
  1086   1 H      0.860     0.237     0.937     1.517
  1087   6 C      2.747     0.264    22.551     7.776
  1088   8 O      0.857    -0.488    23.518     6.502
  1089   7 N      2.688    -0.180    24.888     7.409
  1090   1 H      0.860     0.207     1.069     1.620
  1091   6 C      3.791     0.026    20.152     6.393
  1092   1 H      0.925     0.091     1.868     2.137
  1093   6 C      3.807    -0.064    21.716     6.634
  1094   1 H      0.925     0.072     2.063     2.246
  1095   1 H      0.925     0.061     2.192     2.316
  1096   6 C      3.811    -0.104    22.474     6.748
  1097   1 H      0.925     0.064     2.155     2.296
  1098   1 H      0.925     0.089     1.890     2.150
  1099   6 C      2.747     0.297    21.964     7.674
  1100   8 O      0.863    -0.522    24.272     6.605
  1101   7 N      2.645    -0.272    27.028     7.721
  1102   1 H      0.860     0.239     0.927     1.508
  1103   1 H      0.860     0.227     0.977     1.548
  1104   6 C      2.755     0.265    22.531     7.773
  1105   8 O      0.858    -0.491    23.589     6.512
  1106   7 N      2.679    -0.170    24.686     7.379
  1107   1 H      0.860     0.195     1.131     1.666
  1108   6 C      3.794     0.029    20.096     6.384
  1109   1 H      0.924     0.091     1.868     2.137
  1110   6 C      3.803    -0.086    22.131     6.697
  1111   1 H      0.924     0.052     2.290     2.367
  1112   1 H      0.924     0.029     2.604     2.523
  1113   6 C      2.688     0.366    20.795     7.463
  1114   8 O      0.857    -0.618    26.558     6.909
  1115   8 O      0.857    -0.604    26.211     6.864
  1116   6 C      2.748     0.263    22.564     7.778
  1117   8 O      0.857    -0.506    23.924     6.558
  1118   7 N      2.684    -0.170    24.673     7.377
  1119   1 H      0.860     0.210     1.057     1.610
  1120   6 C      3.803     0.022    20.205     6.399
  1121   1 H      0.925     0.097     1.813     2.105
  1122   6 C      3.858    -0.017    20.839     6.492
  1123   1 H      0.925     0.039     2.467     2.456
  1124   6 C      3.767    -0.128    22.998     6.835
  1125   1 H      0.925     0.052     2.299     2.371
  1126   1 H      0.924     0.065     2.137     2.286
  1127   1 H      0.924     0.075     2.027     2.227
  1128   6 C      3.779    -0.121    22.835     6.808
  1129   1 H      0.924     0.061     2.184     2.311
  1130   1 H      0.925     0.027     2.628     2.535
  1131   1 H      0.925     0.064     2.154     2.295
  1132   6 C      2.756     0.264    22.553     7.777
  1133   8 O      0.860    -0.477    23.274     6.468
  1134   7 N      2.684    -0.190    25.114     7.443
  1135   1 H      0.860     0.186     1.181     1.702
  1136   6 C      3.792     0.037    19.965     6.363
  1137   1 H      0.924     0.071     2.076     2.253
  1138   6 C      3.802    -0.101    22.431     6.743
  1139   1 H      0.924     0.034     2.532     2.488
  1140   1 H      0.925     0.037     2.493     2.469
  1141   6 C      2.683     0.367    20.780     7.460
  1142   8 O      0.856    -0.618    26.559     6.910
  1143   8 O      0.856    -0.610    26.378     6.886
  1144   6 C      2.745     0.280    22.264     7.726
  1145   8 O      0.863    -0.457    22.853     6.409
  1146   7 N      2.689    -0.188    25.083     7.438
  1147   1 H      0.860     0.201     1.101     1.644
  1148   6 C      3.787     0.010    20.417     6.436
  1149   1 H      0.925     0.088     1.900     2.156
  1150   6 C      3.749    -0.139    23.237     6.875
  1151   1 H      0.925     0.068     2.112     2.273
  1152   1 H      0.925     0.083     1.951     2.184
  1153   1 H      0.924     0.057     2.230     2.335
  1154   6 C      2.748     0.282    22.218     7.718
  1155   8 O      0.860    -0.451    22.720     6.391
  1156   7 N      2.686    -0.199    25.320     7.473
  1157   1 H      0.860     0.204     1.085     1.631
  1158   6 C      3.777     0.007    20.487     6.449
  1159   1 H      0.925     0.080     1.981     2.201
  1160   6 C      3.749    -0.130    23.070     6.850
  1161   1 H      0.924     0.058     2.218     2.329
[...]
  2293  C   3.959        C 2295 0.975    C 2313 0.969    N 2291 0.957    H 2294 0.943
  2294  H   0.990        C 2293 0.943
  2295  C   3.989        C 2298 1.012    C 2293 0.975    H 2297 0.970    H 2296 0.968
  2296  H   0.997        C 2295 0.968
  2297  H   0.994        C 2295 0.970
  2298  C   3.982        C 2295 1.012    C 2301 0.990    H 2300 0.970    H 2299 0.970
  2299  H   0.994        C 2298 0.970
  2300  H   0.994        C 2298 0.970
  2301  C   3.941        C 2298 0.990    N 2304 0.975    H 2302 0.959    H 2303 0.958
  2302  H   0.996        C 2301 0.959
  2303  H   0.995        C 2301 0.958
  2304  N   3.463        C 2306 1.346    C 2301 0.975    H 2305 0.849    N 2310 0.110
  2305  H   0.931        N 2304 0.849
  2306  C   3.976        N 2304 1.346    N 2310 1.318    N 2307 1.277
  2307  N   3.362        C 2306 1.277    H 2308 0.930    H 2309 0.917
  2308  H   0.952        N 2307 0.930
  2309  H   0.951        N 2307 0.917
  2310  N   3.391        C 2306 1.318    H 2311 0.930    H 2312 0.887    N 2304 0.110
  2311  H   0.955        N 2310 0.930
  2312  H   0.933        N 2310 0.887
  2313  C   3.960        O 2314 1.594    N 2315 1.317    C 2293 0.969
  2314  O   1.921        C 2313 1.594    N 2315 0.204
  2315  N   3.475        C 2313 1.317    C 2317 0.958    H 2316 0.899    O 2314 0.204
  2316  H   0.952        N 2315 0.899
  2317  C   3.950        C 2319 0.999    N 2315 0.958    H 2318 0.947    C 2323 0.929
  2318  H   0.993        C 2317 0.947
  2319  C   3.981        C 2317 0.999    H 2321 0.977    H 2322 0.975    H 2320 0.974
  2320  H   0.993        C 2319 0.974
  2321  H   0.994        C 2319 0.977
  2322  H   0.995        C 2319 0.975
  2323  C   3.953        O 2324 1.664    N 2325 1.280    C 2317 0.929
  2324  O   2.016        C 2323 1.664    N 2325 0.198
  2325  N   3.448        C 2323 1.280    C 2327 0.975    H 2326 0.920    O 2324 0.198
  2326  H   0.958        N 2325 0.920
  2327  C   3.955        N 2325 0.975    C 2329 0.960    C 2345 0.947    H 2328 0.946
  2328  H   0.990        C 2327 0.946
  2329  C   3.975        C 2332 1.006    H 2330 0.973    H 2331 0.966    C 2327 0.960
  2330  H   0.996        C 2329 0.973
  2331  H   0.990        C 2329 0.966
  2332  C   3.991        C 2335 1.007    C 2329 1.006    H 2334 0.975    H 2333 0.971
  2333  H   0.994        C 2332 0.971
  2334  H   0.998        C 2332 0.975
  2335  C   3.984        C 2332 1.007    C 2338 1.003    H 2336 0.970    H 2337 0.969
  2336  H   0.995        C 2335 0.970
  2337  H   0.992        C 2335 0.969
  2338  C   3.913        C 2335 1.003    H 2340 0.966    N 2341 0.966    H 2339 0.959
  2339  H   0.983        C 2338 0.959
  2340  H   0.990        C 2338 0.966
  2341  N   3.660        C 2338 0.966    H 2344 0.894    H 2343 0.891    H 2342 0.890
  2342  H   0.913        N 2341 0.890
  2343  H   0.906        N 2341 0.891
  2344  H   0.912        N 2341 0.894
  2345  C   3.947        O 2346 1.652    N 2347 1.269    C 2327 0.947
  2346  O   1.996        C 2345 1.652    N 2347 0.191
  2347  N   3.451        C 2345 1.269    C 2349 0.985    H 2348 0.916    O 2346 0.191
  2348  H   0.956        N 2347 0.916
  2349  C   3.965        N 2347 0.985    C 2351 0.965    H 2350 0.947    C 2369 0.944
  2350  H   0.990        C 2349 0.947
  2351  C   3.986        C 2354 0.999    H 2353 0.976    H 2352 0.970    C 2349 0.965
  2352  H   0.995        C 2351 0.970
  2353  H   0.996        C 2351 0.976
  2354  C   3.984        C 2357 1.000    C 2351 0.999    H 2355 0.970    H 2356 0.963
  2355  H   0.992        C 2354 0.970
  2356  H   0.994        C 2354 0.963
  2357  C   3.941        C 2354 1.000    H 2359 0.964    H 2358 0.960    N 2360 0.960
  2358  H   0.991        C 2357 0.960
  2359  H   0.993        C 2357 0.964
  2360  N   3.449        C 2362 1.316    C 2357 0.960    H 2361 0.897    N 2363 0.104
  2361  H   0.948        N 2360 0.897
  2362  C   3.979        N 2363 1.336    N 2360 1.316    N 2366 1.300
  2363  N   3.408        C 2362 1.336    H 2364 0.916    H 2365 0.905    N 2360 0.104    N 2366 0.102
  2364  H   0.940        N 2363 0.916
  2365  H   0.936        N 2363 0.905
  2366  N   3.378        C 2362 1.300    H 2367 0.919    H 2368 0.895    N 2363 0.102
  2367  H   0.943        N 2366 0.919
  2368  H   0.947        N 2366 0.895
  2369  C   3.950        O 2370 1.548    N 2371 1.360    C 2349 0.944
  2370  O   1.894        C 2369 1.548    N 2371 0.189
  2371  N   3.504        C 2369 1.360    C 2373 0.962    H 2372 0.904    O 2370 0.189
  2372  H   0.949        N 2371 0.904
  2373  C   3.958        C 2375 0.963    N 2371 0.962    C 2385 0.951    H 2374 0.950
  2374  H   0.994        C 2373 0.950
  2375  C   3.987        C 2377 1.014    C 2381 1.003    C 2373 0.963    H 2376 0.954
  2376  H   0.995        C 2375 0.954
  2377  C   3.989        C 2375 1.014    H 2380 0.977    H 2379 0.977    H 2378 0.976
  2378  H   0.997        C 2377 0.976
  2379  H   0.997        C 2377 0.977
  2380  H   0.997        C 2377 0.977
  2381  C   3.992        C 2375 1.003    H 2382 0.983    H 2383 0.982    H 2384 0.975
  2382  H   0.997        C 2381 0.983
  2383  H   0.997        C 2381 0.982
  2384  H   0.999        C 2381 0.975
  2385  C   3.957        O 2386 1.612    N 2387 1.306    C 2373 0.951
  2386  O   1.952        C 2385 1.612    N 2387 0.200
  2387  N   3.479        C 2385 1.306    C 2389 0.983    H 2388 0.897    O 2386 0.200
  2388  H   0.951        N 2387 0.897
  2389  C   3.950        N 2387 0.983    C 2391 0.958    H 2390 0.951    C 2404 0.919
  2390  H   0.991        C 2389 0.951
  2391  C   3.980        C 2393 1.004    C 2397 0.996    H 2392 0.959    C 2389 0.958
  2392  H   0.997        C 2391 0.959
  2393  C   3.985        C 2391 1.004    H 2395 0.982    H 2394 0.980    H 2396 0.974
  2394  H   0.997        C 2393 0.980
  2395  H   0.998        C 2393 0.982
  2396  H   0.992        C 2393 0.974
  2397  C   3.993        C 2400 1.027    C 2391 0.996    H 2398 0.967    H 2399 0.963
  2398  H   0.997        C 2397 0.967
  2399  H   0.997        C 2397 0.963
  2400  C   3.993        C 2397 1.027    H 2402 0.981    H 2403 0.981    H 2401 0.974
  2401  H   0.997        C 2400 0.974
  2402  H   0.998        C 2400 0.981
  2403  H   0.997        C 2400 0.981
  2404  C   3.940        O 2405 1.618    N 2406 1.309    C 2389 0.919
  2405  O   1.978        C 2404 1.618    N 2406 0.198
  2406  N   3.463        C 2404 1.309    C 2408 0.980    H 2407 0.888    O 2405 0.198
  2407  H   0.941        N 2406 0.888
  2408  C   3.966        N 2406 0.980    C 2410 0.964    H 2409 0.946    C 2418 0.932
  2409  H   0.989        C 2408 0.946
  2410  C   3.962        C 2412 1.003    O 2416 0.990    C 2408 0.964    H 2411 0.958
  2411  H   0.998        C 2410 0.958
  2412  C   3.988        C 2410 1.003    H 2415 0.984    H 2413 0.982    H 2414 0.981
  2413  H   0.996        C 2412 0.982
  2414  H   0.994        C 2412 0.981
  2415  H   0.999        C 2412 0.984
  2416  O   1.936        C 2410 0.990    H 2417 0.876
  2417  H   0.892        O 2416 0.876
  2418  C   3.946        O 2419 1.632    N 2420 1.305    C 2408 0.932
  2419  O   1.987        C 2418 1.632    N 2420 0.197
  2420  N   3.469        C 2418 1.305    C 2422 0.955    H 2421 0.923    O 2419 0.197
  2421  H   0.960        N 2420 0.923
  2422  C   3.954        C 2424 0.961    N 2420 0.955    H 2423 0.951    C 2432 0.945
  2423  H   0.991        C 2422 0.951
  2424  C   3.961        O 2430 1.010    C 2426 0.988    C 2422 0.961    H 2425 0.958
  2425  H   0.999        C 2424 0.958
  2426  C   3.987        C 2424 0.988    H 2427 0.986    H 2428 0.982    H 2429 0.981
  2427  H   0.998        C 2426 0.986
  2428  H   0.996        C 2426 0.982
  2429  H   0.997        C 2426 0.981
  2430  O   1.952        C 2424 1.010    H 2431 0.841
  2431  H   0.883        O 2430 0.841
  2432  C   3.952        O 2433 1.587    N 2434 1.327    C 2422 0.945
  2433  O   1.966        C 2432 1.587    N 2434 0.194
  2434  N   3.492        C 2432 1.327    C 2436 0.981    H 2435 0.896    O 2433 0.194
  2435  H   0.946        N 2434 0.896
  2436  C   3.945        N 2434 0.981    C 2438 0.964    H 2437 0.942    C 2452 0.918
  2437  H   0.992        C 2436 0.942
  2438  C   3.977        C 2441 1.003    H 2440 0.965    C 2436 0.964    H 2439 0.955
  2439  H   0.992        C 2438 0.955
  2440  H   0.993        C 2438 0.965
  2441  C   3.986        C 2442 1.444    C 2450 1.367    C 2438 1.003    C 2446 0.123
  2442  C   3.990        C 2441 1.444    C 2444 1.426    H 2443 0.960    C 2448 0.103
  2443  H   0.998        C 2442 0.960
  2444  C   3.992        C 2446 1.465    C 2442 1.426    H 2445 0.968    C 2450 0.105
  2445  H   0.998        C 2444 0.968
  2446  C   3.983        C 2444 1.465    C 2448 1.386    H 2447 0.969    C 2441 0.123
  2447  H   0.998        C 2446 0.969
  2448  C   3.989        C 2450 1.500    C 2446 1.386    H 2449 0.967    C 2442 0.103
  2449  H   0.997        C 2448 0.967
  2450  C   3.989        C 2448 1.500    C 2441 1.367    H 2451 0.964    C 2444 0.105
  2451  H   0.998        C 2450 0.964
  2452  C   3.944        O 2453 1.589    N 2454 1.342    C 2436 0.918
  2453  O   1.972        C 2452 1.589    N 2454 0.191
  2454  N   3.471        C 2452 1.342    C 2456 0.954    H 2455 0.887    O 2453 0.191
  2455  H   0.945        N 2454 0.887
  2456  C   3.955        C 2458 0.966    C 2476 0.959    N 2454 0.954    H 2457 0.949
  2457  H   0.990        C 2456 0.949
  2458  C   3.979        C 2461 0.998    H 2459 0.976    H 2460 0.968    C 2456 0.966
  2459  H   0.995        C 2458 0.976
  2460  H   0.991        C 2458 0.968
  2461  C   3.988        C 2464 1.012    C 2458 0.998    H 2463 0.975    H 2462 0.971
  2462  H   0.996        C 2461 0.971
  2463  H   0.997        C 2461 0.975
  2464  C   3.954        C 2461 1.012    N 2467 0.984    H 2465 0.961    H 2466 0.956
  2465  H   0.993        C 2464 0.961
  2466  H   0.992        C 2464 0.956
  2467  N   3.446        C 2469 1.298    C 2464 0.984    H 2468 0.897
  2468  H   0.952        N 2467 0.897
  2469  C   3.976        N 2470 1.327    N 2473 1.321    N 2467 1.298
  2470  N   3.385        C 2469 1.327    H 2472 0.907    H 2471 0.907    N 2473 0.106
  2471  H   0.931        N 2470 0.907
  2472  H   0.932        N 2470 0.907
  2473  N   3.402        C 2469 1.321    H 2475 0.913    H 2474 0.913    N 2470 0.106
  2474  H   0.936        N 2473 0.913
  2475  H   0.948        N 2473 0.913
  2476  C   3.949        O 2477 1.642    N 2478 1.280    C 2456 0.959
  2477  O   1.962        C 2476 1.642    N 2478 0.197
  2478  N   3.455        C 2476 1.280    C 2480 0.978    H 2479 0.908    O 2477 0.197
  2479  H   0.954        N 2478 0.908
  2480  C   3.966        N 2478 0.978    H 2481 0.957    C 2482 0.945    C 2490 0.929
  2481  H   0.991        C 2480 0.957
  2482  C   3.964        O 2488 1.003    C 2484 0.999    H 2483 0.959    C 2480 0.945
  2483  H   0.998        C 2482 0.959
  2484  C   3.987        C 2482 0.999    H 2487 0.984    H 2485 0.981    H 2486 0.979
  2485  H   0.996        C 2484 0.981
  2486  H   0.996        C 2484 0.979
  2487  H   0.998        C 2484 0.984
  2488  O   1.941        C 2482 1.003    H 2489 0.825
  2489  H   0.878        O 2488 0.825
  2490  C   3.951        O 2491 1.661    N 2492 1.286    C 2480 0.929
  2491  O   1.976        C 2490 1.661    N 2492 0.201
  2492  N   3.437        C 2490 1.286    C 2494 0.979    H 2493 0.881    O 2491 0.201
  2493  H   0.942        N 2492 0.881
  2494  C   3.964        N 2492 0.979    C 2497 0.968    H 2495 0.957    H 2496 0.952
  2495  H   0.990        C 2494 0.957
  2496  H   0.990        C 2494 0.952
  2497  C   3.954        O 2498 1.596    N 2499 1.328    C 2494 0.968
  2498  O   1.910        C 2497 1.596    N 2499 0.192
  2499  N   3.507        C 2497 1.328    C 2501 1.003    H 2500 0.909    O 2498 0.192
  2500  H   0.952        N 2499 0.909
  2501  C   3.971        N 2499 1.003    C 2503 0.942    H 2502 0.940    C 2511 0.937
  2502  H   0.992        C 2501 0.940
  2503  C   3.956        O 2509 1.001    C 2505 0.994    H 2504 0.958    C 2501 0.942
  2504  H   0.999        C 2503 0.958
  2505  C   3.986        C 2503 0.994    H 2507 0.983    H 2508 0.982    H 2506 0.980
  2506  H   0.996        C 2505 0.980
  2507  H   0.995        C 2505 0.983
  2508  H   0.994        C 2505 0.982
  2509  O   1.943        C 2503 1.001    H 2510 0.860
  2510  H   0.885        O 2509 0.860
  2511  C   3.956        O 2512 1.621    N 2513 1.311    C 2501 0.937
  2512  O   1.941        C 2511 1.621    N 2513 0.196
  2513  N   3.465        C 2511 1.311    C 2515 0.970    H 2514 0.913    O 2512 0.196
  2514  H   0.955        N 2513 0.913
  2515  C   3.943        N 2513 0.970    C 2517 0.967    H 2516 0.934    C 2535 0.922
  2516  H   0.988        C 2515 0.934
  2517  C   3.977        C 2520 1.027    C 2515 0.967    H 2519 0.957    H 2518 0.951
  2518  H   0.993        C 2517 0.951
  2519  H   0.995        C 2517 0.957
  2520  C   3.980        C 2521 1.597    C 2534 1.200    C 2517 1.027
  2521  C   3.953        C 2520 1.597    N 2523 1.170    H 2522 0.965
  2522  H   0.995        C 2521 0.965
  2523  N   3.505        C 2521 1.170    C 2525 1.166    H 2524 0.935
  2524  H   0.961        N 2523 0.935
  2525  C   3.959        C 2526 1.406    C 2534 1.191    N 2523 1.166
  2526  C   3.981        C 2525 1.406    C 2528 1.405    H 2527 0.965    C 2532 0.114
  2527  H   0.995        C 2526 0.965
  2528  C   3.984        C 2530 1.437    C 2526 1.405    H 2529 0.971
  2529  H   0.997        C 2528 0.971
  2530  C   3.986        C 2528 1.437    C 2532 1.430    H 2531 0.971
  2531  H   0.999        C 2530 0.971
  2532  C   3.988        C 2530 1.430    C 2534 1.381    H 2533 0.968    C 2526 0.114
  2533  H   0.999        C 2532 0.968
  2534  C   3.982        C 2532 1.381    C 2520 1.200    C 2525 1.191
  2535  C   3.927        O 2536 1.645    N 2537 1.279    C 2515 0.922
  2536  O   1.957        C 2535 1.645    N 2537 0.186
  2537  N   3.442        C 2535 1.279    C 2539 0.975    H 2538 0.913    O 2536 0.186
  2538  H   0.955        N 2537 0.913
  2539  C   3.969        N 2537 0.975    C 2541 0.975    H 2540 0.952    C 2547 0.935
  2540  H   0.996        C 2539 0.952
  2541  C   3.987        H 2542 0.977    C 2539 0.975    H 2543 0.957    C 2544 0.935
  2542  H   0.998        C 2541 0.977
  2543  H   0.996        C 2541 0.957
  2544  C   3.937        O 2546 1.492    O 2545 1.490    C 2541 0.935
  2545  O   1.779        C 2544 1.490    O 2546 0.220
  2546  O   1.782        C 2544 1.492    O 2545 0.220
  2547  C   3.937        O 2548 1.655    N 2549 1.264    C 2539 0.935
  2548  O   1.957        C 2547 1.655    N 2549 0.190
  2549  N   3.437        C 2547 1.264    C 2551 0.973    H 2550 0.923    O 2548 0.190
  2550  H   0.955        N 2549 0.923
  2551  C   3.950        C 2553 0.982    N 2549 0.973    C 2557 0.951    H 2552 0.932
  2552  H   0.993        C 2551 0.932
  2553  C   3.971        H 2554 0.982    H 2555 0.982    C 2551 0.982    H 2556 0.973
  2554  H   0.993        C 2553 0.982
  2555  H   0.993        C 2553 0.982
  2556  H   0.992        C 2553 0.973
  2557  C   3.949        O 2558 1.598    N 2559 1.314    C 2551 0.951
  2558  O   1.917        C 2557 1.598    N 2559 0.191
  2559  N   3.493        C 2557 1.314    C 2561 0.990    H 2560 0.915    O 2558 0.191
  2560  H   0.964        N 2559 0.915
  2561  C   3.956        N 2559 0.990    C 2563 0.958    H 2562 0.945    C 2578 0.920
  2562  H   0.992        C 2561 0.945
  2563  C   3.984        C 2566 0.989    H 2565 0.976    H 2564 0.971    C 2561 0.958
  2564  H   0.997        C 2563 0.971
  2565  H   0.997        C 2563 0.976
  2566  C   3.976        C 2576 1.461    C 2567 1.346    C 2563 0.989
  2567  C   3.987        C 2569 1.508    C 2566 1.346    H 2568 0.967    C 2574 0.113
  2568  H   0.997        C 2567 0.967
  2569  C   3.987        C 2567 1.508    C 2571 1.339    H 2570 0.959
  2570  H   0.995        C 2569 0.959
  2571  C   3.948        C 2574 1.361    C 2569 1.339    O 2572 1.107
  2572  O   2.140        C 2571 1.107    H 2573 0.839
  2573  H   0.884        O 2572 0.839
  2574  C   3.981        C 2576 1.420    C 2571 1.361    H 2575 0.961    C 2567 0.113
  2575  H   0.998        C 2574 0.961
  2576  C   3.990        C 2566 1.461    C 2574 1.420    H 2577 0.971
  2577  H   0.999        C 2576 0.971
  2578  C   3.946        O 2579 1.564    N 2580 1.371    C 2561 0.920
  2579  O   1.893        C 2578 1.564    N 2580 0.198
  2580  N   3.524        C 2578 1.371    C 2582 0.967    H 2581 0.918    O 2579 0.198
  2581  H   0.962        N 2580 0.918
  2582  C   3.942        C 2584 0.973    N 2580 0.967    H 2583 0.963    C 2600 0.893
  2583  H   0.998        C 2582 0.963
  2584  C   3.988        C 2587 1.007    H 2586 0.975    H 2585 0.975    C 2582 0.973
  2585  H   0.999        C 2584 0.975
  2586  H   0.997        C 2584 0.975
  2587  C   3.989        C 2584 1.007    C 2590 0.990    H 2589 0.979    H 2588 0.974
  2588  H   0.996        C 2587 0.974
  2589  H   0.999        C 2587 0.979
  2590  C   3.984        C 2593 1.024    C 2587 0.990    H 2592 0.971    H 2591 0.968
  2591  H   0.995        C 2590 0.968
  2592  H   0.991        C 2590 0.971
  2593  C   3.917        C 2590 1.024    H 2595 0.964    H 2594 0.964    N 2596 0.944
  2594  H   0.983        C 2593 0.964
  2595  H   0.988        C 2593 0.964
  2596  N   3.655        C 2593 0.944    H 2598 0.901    H 2597 0.893    H 2599 0.892
  2597  H   0.904        N 2596 0.893
  2598  H   0.917        N 2596 0.901
  2599  H   0.903        N 2596 0.892
  2600  C   3.935        O 2601 1.513    O 2602 1.490    C 2582 0.893
  2601  O   1.816        C 2600 1.513    O 2602 0.225
  2602  O   1.791        C 2600 1.490    O 2601 0.225
  2603  C   3.987        C 2605 1.466    C 2613 1.402    H 2604 0.960    C 2609 0.104
  2604  H   0.997        C 2603 0.960
  2605  C   3.988        C 2603 1.466    C 2607 1.404    H 2606 0.969    C 2611 0.115
  2606  H   0.997        C 2605 0.969
  2607  C   3.988        C 2609 1.460    C 2605 1.404    H 2608 0.970    C 2613 0.112
  2608  H   0.998        C 2607 0.970
  2609  C   3.991        C 2607 1.460    C 2611 1.425    H 2610 0.968    C 2603 0.104
  2610  H   1.000        C 2609 0.968
  2611  C   3.988        C 2609 1.425    C 2613 1.420    H 2612 0.964    C 2605 0.115
  2612  H   0.999        C 2611 0.964
  2613  C   3.987        C 2611 1.420    C 2603 1.402    C 2614 1.019    C 2607 0.112
  2614  C   3.993        C 2613 1.019    H 2616 0.975    H 2615 0.972    H 2617 0.965
  2615  H   0.997        C 2614 0.972
  2616  H   0.998        C 2614 0.975
  2617  H   0.996        C 2614 0.965

molecular dipole:
                 x           y           z       tot (Debye)
 q only:      599.410     667.504     670.735
   full:      601.220     669.002     681.188    2867.837
molecular quadrupole (traceless):
                xx          xy          yy          xz          yz          zz
 q only:   -12408.208   69575.480    4699.146   70535.328   78458.310    7709.062
  q+dip:   -13209.677   69539.332    4008.889   71725.211   79855.767    9200.788
   full:   -13199.718   69540.008    3991.375   71726.006   79847.704    9208.343


           -------------------------------------------------
          | TOTAL ENERGY            -4104.279119567719 Eh   |
          | GRADIENT NORM               1.317104391970 Eh/α |
          | HOMO-LUMO GAP               1.901010094933 eV   |
           -------------------------------------------------

------------------------------------------------------------------------
 * finished run on 2020/07/25 at 05:35:29.904     
------------------------------------------------------------------------
 total:
 * wall-time:     0 d,  0 h,  7 min, 12.635 sec
 *  cpu-time:     0 d,  5 h, 19 min, 51.132 sec
 * ratio c/w:    44.359 speedup
 SCF:
 * wall-time:     0 d,  0 h,  6 min, 41.439 sec
 *  cpu-time:     0 d,  5 h,  7 min, 53.265 sec
 * ratio c/w:    46.018 speedup

