      -----------------------------------------------------------      
     |                   =====================                   |     
     |                           x T B                           |     
     |                   =====================                   |     
     |                         S. Grimme                         |     
     |          Mulliken Center for Theoretical Chemistry        |     
     |                    University of Bonn                     |     
      -----------------------------------------------------------      

   * xtb version 6.2.3 (d7bf61a) compiled by 'conda@06d140edd85e' on 2020-05-12

   xtb is free software: you can redistribute it and/or modify it under
   the terms of the GNU Lesser General Public License as published by
   the Free Software Foundation, either version 3 of the License, or
   (at your option) any later version.
   
   xtb is distributed in the hope that it will be useful,
   but WITHOUT ANY WARRANTY; without even the implied warranty of
   MERCHANTABILITY or FITNESS FOR A PARTICULAR PURPOSE.  See the
   GNU Lesser General Public License for more details.
   
   Cite this work as:
   * S. Grimme, C. Bannwarth, P. Shushkov, J. Chem. Theory Comput., 2017,
     13, 1989-2009. DOI: 10.1021/acs.jctc.7b00118
   * C. Bannwarth, S. Ehlert and S. Grimme., J. Chem. Theory Comput., 2019,
     15, 1652-1671. DOI: 10.1021/acs.jctc.8b01176
   * P. Pracht, E. Caldeweyher, S. Ehlert, S. Grimme, ChemRxiv, 2019, preprint.
     DOI: 10.26434/chemrxiv.8326202.v1
   
   for DFT-D4:
   * E. Caldeweyher, C. Bannwarth and S. Grimme, J. Chem. Phys., 2017,
     147, 034112. DOI: 10.1063/1.4993215
   * E. Caldeweyher, S. Ehlert, A. Hansen, H. Neugebauer, S. Spicher,
     C. Bannwarth and S. Grimme, J. Chem. Phys., 2019, 150, 154122.
     DOI: 10.1063/1.5090222
   
   for sTDA-xTB:
   * S. Grimme and C. Bannwarth, J. Chem. Phys., 2016, 145, 054103.
     DOI: 10.1063/1.4959605
   
   in the mass-spec context:
   * V. Asgeirsson, C. Bauer and S. Grimme, Chem. Sci., 2017, 8, 4879.
     DOI: 10.1039/c7sc00601b
   
   for metadynamics refer to:
   * S. Grimme, J. Chem. Theory Comput., 2019, 155, 2847-2862
     DOI: 10.1021/acs.jctc.9b00143
   
   with help from (in alphabetical order)
   C. Bannwarth, F. Bohle, G. Brandenburg, E. Caldeweyher, M. Checinski,
   S. Dohm, S. Ehlert, S. Ehrlich, F. März, H. Neugebauer, J. Pisarek,
   P. Pracht, P. Shushkov, and S. Spicher.
   
 * started run on 2020/07/25 at 02:43:42.204     

           -------------------------------------------------
          |                Calculation Setup                |
           -------------------------------------------------

          program call               : xtb complex_12261.xyz --chrg +9 --uhf 0 --gbsa water
          hostname                   : gold54.cluster.local
          coordinate file            : complex_12261.xyz
          omp threads                :                    64
          number of atoms            :                  2617
          number of electrons        :                  7228
          charge                     :                     9
          spin                       :                   0.0
          first test random number   :      0.02450072174176


molecular fragmentation (1/2 indicates fragments):
111111111111111111111111111111111111111111111111111111111111111111111111
111111111111111111111111111111111111111111111111111111111111111111111111
111111111111111111111111111111111111111111111111111111111111111111111111
111111111111111111111111111111111111111111111111111111111111111111111111
111111111111111111111111111111111111111111111111111111111111111111111111
111111111111111111111111111111111111111111111111111111111111111111111111
111111111111111111111111111111111111111111111111111111111111111111111111
111111111111111111111111111111111111111111111111111111111111111111111111
111111111111111111111111111111111111111111111111111111111111111111111111
111111111111111111111111111111111111111111111111111111111111111111111111
111111111111111111111111111111111111111111111111111111111111111111111111
111111111111111111111111111111111111111111111111111111111111111111111111
111111111111111111111111111111111111111111111111111111111111111111111111
111111111111111111111111111111111111111111111111111111111111111111111111
111111111111111111111111111111111111111111111111111111111111111111111111
111111111111111111111111111111111111111111111111111111111111111111111111
111111111111111111111111111111111111111111111111111111111111111111111111
111111111111111111111111111111111111111111111111111111111111111111111111
111111111111111111111111111111111111111111111111111111111111111111111111
111111111111111111111111111111111111111111111111111111111111111111111111
111111111111111111111111111111111111111111111111111111111111111111111111
111111111111111111111111111111111111111111111111111111111111111111111111
111111111111111111111111111111111111111111111111111111111111111111111111
111111111111111111111111111111111111111111111111111111111111111111111111
111111111111111111111111111111111111111111111111111111111111111111111111
111111111111111111111111111111111111111111111111111111111111111111111111
111111111111111111111111111111111111111111111111111111111111111111111111
111111111111111111111111111111111111111111111111111111111111111111111111
111111111111111111111111111111111111111111111111111111111111111111111111
111111111111111111111111111111111111111111111111111111111111111111111111
111111111111111111111111111111111111111111111111111111111111111111111111
111111111111111111111111111111111111111111111111111111111111111111111111
111111111111111111111111111111111111111111111111111111111111111111111111
111111111111111111111111111111111111111111111111111111111111111111111111
111111111111111111111111111111111111111111111111111111111111111111111111
111111111111111111111111111111111111111111111111111111111111111111111111
1111111111222222222222222
# atoms in fragment 1/2:  2602    15
 fragment masses (1/2) :    18371.93       92.14
CMA distance (Bohr)    :  20.782
constraining FC (au)   :  0.0500
########################################################################
[WARNING] Please study the warnings concerning your input carefully
-2- prog_main: XTBPATH is not set, using XTBHOME instead
-1- prog_main: XTBHOME is not set, using HOME instead
########################################################################
           ------------------------------------------------- 
          |                 G F N 2 - x T B                 |
          | Geometry, Frequencies, Noncovalent interactions |
          |            JCTC 2019 parametrisation            |
           ------------------------------------------------- 
             k(s)              :                1.8500
             k(p)              :                2.2300
             k(d)              :                2.2300
             k(f)              :                2.0000
             kEN (H0ij)        :               -2.0000
             D4 a1             :                0.5200
             D4 a2             :                5.0000
             D4 s6             :                1.0000
             D4 s8             :                2.7000
             D4 s9             :                5.0000
             alphaj            :                2.0000

  Z AO/shell   Hii/eV     exponent
  1     Wed Apr 25 08:07:45 CEST 2018   EN: 2.200 GM2: 0.406  GM3: 0.0800  RAES: 1.40
     1s    -10.707211    1.230000
  6     Wed Apr 25 08:07:45 CEST 2018   EN: 2.550 GM2: 0.538  GM3: 0.1500  RAES: 3.00
     2s    -13.970922    2.096432
     2p    -10.063292    1.800000
  7     Wed Apr 25 08:07:45 CEST 2018   EN: 3.040 GM2: 0.461  GM3:-0.0640  RAES: 1.90
     2s    -16.686243    2.339881
     2p    -12.523956    2.014332
  8     Wed Apr 25 08:07:45 CEST 2018   EN: 3.440 GM2: 0.452  GM3:-0.0517  RAES: 1.80
     2s    -20.229985    2.439742
     2p    -15.503117    2.137023
 16     Tue Apr 24 11:44:34 CEST 2018   EN: 2.580 GM2: 0.340  GM3:-0.0502  RAES: 3.10
     3s    -20.029654    1.981333
     3p    -11.377694    2.025643
     3d     -0.420282    1.702555

 Solvent             : water
 Using internal parameter file: .param_gbsa2_water
 Gsolv ref. state (COSMO-RS): gsolv [1 M gas/solution]
 temperature (mdtemp)       :    298.14999999999998     
 dielectric constant        :    80.200000000000003     
 rho                        :    1.0000000000000000     
 mass                       :    18.000000000000000     
 surface tension            :    15.568945408385856     
 probe radius               :   0.97531378999999996     
 Gshift (Eh)                :    1.8574431267947933E-003
 c1                         :    1.5524381700000001     
 soset                      :   0.13032636000000000     
 HB correction              :  T
           ------------------------------------------------- 
          |        Self-Consistent Charge Iterations        |
           ------------------------------------------------- 

          ...................................................
          :                      SETUP                      :
          :.................................................:
          :  # basis functions                6547          :
          :  # atomic orbitals                6541          :
          :  # shells                         3921          :
          :  # electrons                      7228          :
          :  max. iterations                   250          :
          :  Hamiltonian                  GFN2-xTB          :
          :  restarted?                      false          :
          :  GBSA solvation                   true          :
          :  PC potential                    false          :
          :  electronic temp.          300.0000000     K    :
          :  accuracy                    1.0000000          :
          :  -> integral cutoff          0.2500000E+02      :
          :  -> integral neglect         0.1000000E-07      :
          :  -> SCF convergence          0.1000000E-05 Eh   :
          :  -> wf. convergence          0.1000000E-03 e    :
          :  Broyden damping             0.4000000          :
          ...................................................

 iter      E             dE          RMSdq      gap      omega  full diag
   1  -4139.7158078 -0.413972E+04  0.429E+00    2.28       0.0  T
   2  -4152.1706015 -0.124548E+02  0.227E+00    2.14       1.0  T
   3  -4152.6556076 -0.485006E+00  0.120E+00    2.39       1.0  T
   4  -4152.7272810 -0.716734E-01  0.296E-01    1.96       1.0  T
   5  -4152.8377717 -0.110491E+00  0.147E-01    1.95       1.0  T
   6  -4152.8527519 -0.149802E-01  0.777E-02    1.96       1.0  T
   7  -4152.8554746 -0.272261E-02  0.412E-02    1.90       1.0  T
   8  -4152.8568375 -0.136290E-02  0.200E-02    1.84       1.0  T
   9  -4152.8571033 -0.265818E-03  0.125E-02    1.80       1.0  T
  10  -4152.8572479 -0.144662E-03  0.669E-03    1.77       1.0  T
  11  -4152.8572913 -0.433772E-04  0.337E-03    1.75       1.0  T
  12  -4152.8573020 -0.106561E-04  0.187E-03    1.74       1.0  T
  13  -4152.8573053 -0.327987E-05  0.981E-04    1.73       2.0  T
  14  -4152.8573061 -0.818131E-06  0.476E-04    1.73       4.1  T
  15  -4152.8573063 -0.212241E-06  0.238E-04    1.73       8.2  T

   *** convergence criteria satisfied after 15 iterations ***

         #    Occupation            Energy/Eh            Energy/eV
      -------------------------------------------------------------
         1        2.0000           -0.7639850             -20.7891
       ...           ...                  ...                  ...
      3608        2.0000           -0.3608798              -9.8200
      3609        2.0000           -0.3598419              -9.7918
      3610        2.0000           -0.3573083              -9.7229
      3611        2.0000           -0.3568806              -9.7112
      3612        2.0000           -0.3568132              -9.7094
      3613        2.0000           -0.3567279              -9.7071
      3614        2.0000           -0.3493134              -9.5053 (HOMO)
      3615                         -0.2857008              -7.7743 (LUMO)
      3616                         -0.2747659              -7.4768
      3617                         -0.2738161              -7.4509
      3618                         -0.2729458              -7.4272
      3619                         -0.2705654              -7.3625
       ...                                ...                  ...
      6541                          0.7525273              20.4773
      -------------------------------------------------------------
                  HL-Gap            0.0636126 Eh            1.7310 eV
             Fermi-level           -0.3175071 Eh           -8.6398 eV

 SCC (total)                   0 d,  0 h,  6 min, 49.949 sec
 SCC setup                      ...        0 min,  3.163 sec (  0.772%)
 Dispersion                     ...        0 min,  2.034 sec (  0.496%)
 integral evaluation            ...        0 min,  8.840 sec (  2.156%)
 zeroth order Hamiltonian       ...        0 min,  0.343 sec (  0.084%)
 iterations                     ...        6 min, 17.649 sec ( 92.121%)
 molecular gradient             ...        0 min, 17.244 sec (  4.206%)
 printout                       ...        0 min,  0.674 sec (  0.164%)

         :::::::::::::::::::::::::::::::::::::::::::::::::::::
         ::                     SUMMARY                     ::
         :::::::::::::::::::::::::::::::::::::::::::::::::::::
         :: total energy           -4104.347109210638 Eh    ::
         :: total w/o Gsasa/hb     -4103.942173436154 Eh    ::
         :: gradient norm              1.322615945597 Eh/a0 ::
         :: HOMO-LUMO gap              1.730987808995 eV    ::
         ::.................................................::
         :: SCC energy             -4152.921095681642 Eh    ::
         :: -> isotropic ES           14.628840862384 Eh    ::
         :: -> anisotropic ES         -0.826025713917 Eh    ::
         :: -> anisotropic XC          1.174931577209 Eh    ::
         :: -> dispersion             -3.914599028497 Eh    ::
         :: -> Gsolv                  -4.417919003208 Eh    ::
         ::    -> Gborn               -4.012983228723 Eh    ::
         ::    -> Gsasa               -0.065646840917 Eh    ::
         ::    -> Ghb                 -0.341146376694 Eh    ::
         ::    -> Gshift               0.001857443127 Eh    ::
         :: repulsion energy          48.032563538526 Eh    ::
         :: add. restraining           0.000000000000 Eh    ::
         :::::::::::::::::::::::::::::::::::::::::::::::::::::

           -------------------------------------------------
          |                Property Printout                |
           -------------------------------------------------

    * Orbital Energies and Occupations

         #    Occupation            Energy/Eh            Energy/eV
      -------------------------------------------------------------
         1        2.0000           -0.7639850             -20.7891
       ...           ...                  ...                  ...
      3602        2.0000           -0.3648709              -9.9286
      3603        2.0000           -0.3643704              -9.9150
      3604        2.0000           -0.3643131              -9.9135
      3605        2.0000           -0.3633668              -9.8877
      3606        2.0000           -0.3613942              -9.8340
      3607        2.0000           -0.3612075              -9.8290
      3608        2.0000           -0.3608798              -9.8200
      3609        2.0000           -0.3598419              -9.7918
      3610        2.0000           -0.3573083              -9.7229
      3611        2.0000           -0.3568806              -9.7112
      3612        2.0000           -0.3568132              -9.7094
      3613        2.0000           -0.3567279              -9.7071
      3614        2.0000           -0.3493134              -9.5053 (HOMO)
      3615                         -0.2857008              -7.7743 (LUMO)
      3616                         -0.2747659              -7.4768
      3617                         -0.2738161              -7.4509
      3618                         -0.2729458              -7.4272
      3619                         -0.2705654              -7.3625
      3620                         -0.2681220              -7.2960
      3621                         -0.2666544              -7.2560
      3622                         -0.2665126              -7.2522
      3623                         -0.2654546              -7.2234
      3624                         -0.2646663              -7.2019
      3625                         -0.2645655              -7.1992
       ...                                ...                  ...
      6541                          0.7525273              20.4773
      -------------------------------------------------------------
                  HL-Gap            0.0636126 Eh            1.7310 eV
             Fermi-level           -0.3175071 Eh           -8.6398 eV

     #   Z        covCN         q      C6AA      α(0)
     1   7 N      3.488    -0.160    24.441     7.343
     2   1 H      0.860     0.321     0.654     1.266
     3   1 H      0.860     0.327     0.638     1.251
     4   1 H      0.860     0.304     0.702     1.312
     5   6 C      3.792    -0.036    21.231     6.562
     6   1 H      0.924     0.123     1.592     1.973
     7   6 C      3.828    -0.104    22.456     6.743
     8   1 H      0.925     0.115     1.656     2.012
     9   1 H      0.924     0.120     1.609     1.984
    10   6 C      3.791    -0.024    21.018     6.529
    11   1 H      0.925     0.060     2.199     2.319
    12   1 H      0.925     0.067     2.116     2.275
    13  16 S      1.958    -0.203   149.681    20.592
    14   6 C      3.745    -0.033    21.226     6.572
    15   1 H      0.925     0.035     2.513     2.479
    16   1 H      0.926     0.033     2.548     2.496
    17   1 H      0.925     0.022     2.706     2.573
    18   6 C      2.767     0.268    22.482     7.765
    19   8 O      0.864    -0.439    22.469     6.355
    20   7 N      2.701    -0.141    24.044     7.283
    21   1 H      0.860     0.196     1.128     1.664
    22   6 C      3.794     0.010    20.420     6.435
    23   1 H      0.925     0.127     1.555     1.950
    24   6 C      3.819    -0.133    23.038     6.831
    25   1 H      0.925     0.118     1.629     1.996
    26   1 H      0.925     0.103     1.755     2.072
    27   6 C      2.741     0.292    22.047     7.688
    28   8 O      0.863    -0.513    24.074     6.578
    29   7 N      2.641    -0.265    26.874     7.699
    30   1 H      0.860     0.224     0.993     1.561
    31   1 H      0.860     0.246     0.898     1.485
    32   6 C      2.745     0.261    22.605     7.785
    33   8 O      0.857    -0.536    24.587     6.648
    34   7 N      2.684    -0.153    24.321     7.324
    35   1 H      0.860     0.230     0.965     1.539
    36   6 C      3.795     0.006    20.490     6.446
    37   1 H      0.925     0.102     1.766     2.078
    38   6 C      3.851    -0.037    21.196     6.548
    39   1 H      0.924     0.086     1.920     2.167
    40   6 C      3.753    -0.138    23.220     6.871
    41   1 H      0.924     0.065     2.146     2.291
    42   1 H      0.925     0.077     2.015     2.220
    43   1 H      0.924     0.040     2.452     2.449
    44   6 C      3.804    -0.072    21.874     6.658
    45   1 H      0.925     0.035     2.521     2.483
    46   1 H      0.925     0.068     2.111     2.272
    47   6 C      3.750    -0.120    22.863     6.819
    48   1 H      0.925     0.060     2.203     2.321
    49   1 H      0.924     0.031     2.576     2.510
    50   1 H      0.925     0.033     2.545     2.495
    51   6 C      2.756     0.272    22.411     7.752
    52   8 O      0.863    -0.532    24.493     6.635
    53   7 N      2.693    -0.146    24.160     7.300
    54   1 H      0.860     0.227     0.978     1.549
    55   6 C      3.795     0.028    20.111     6.386
    56   1 H      0.925     0.070     2.088     2.260
    57   6 C      3.814    -0.082    22.045     6.683
    58   1 H      0.925     0.055     2.256     2.349
    59   1 H      0.924     0.075     2.029     2.227
    60   6 C      2.964     0.011    27.757     8.642
    61   6 C      2.908    -0.052    29.280     8.873
    62   1 H      0.926     0.067     2.116     2.275
    63   6 C      2.911    -0.039    28.973     8.826
    64   1 H      0.926     0.062     2.172     2.304
    65   6 C      2.902    -0.038    28.956     8.823
    66   1 H      0.926     0.048     2.341     2.393
    67   6 C      2.907    -0.035    28.879     8.812
    68   1 H      0.926     0.027     2.629     2.536
    69   6 C      2.905    -0.045    29.115     8.848
    70   1 H      0.926     0.029     2.595     2.519
    71   6 C      2.750     0.269    22.450     7.759
    72   8 O      0.860    -0.505    23.890     6.553
    73   7 N      2.691    -0.208    25.532     7.505
    74   1 H      0.860     0.222     0.998     1.565
    75   6 C      3.787     0.038    19.950     6.362
    76   1 H      0.925     0.064     2.151     2.294
    77   6 C      3.805    -0.062    21.679     6.628
    78   1 H      0.924     0.068     2.111     2.272
    79   1 H      0.925     0.057     2.238     2.340
    80   6 C      3.796    -0.103    22.479     6.751
    81   1 H      0.924     0.062     2.180     2.309
    82   1 H      0.925     0.038     2.471     2.458
    83   6 C      2.690     0.371    20.709     7.448
    84   8 O      0.857    -0.626    26.774     6.937
    85   8 O      0.857    -0.610    26.378     6.886
    86   6 C      2.753     0.269    22.461     7.761
    87   8 O      0.859    -0.508    23.953     6.562
    88   7 N      2.685    -0.190    25.131     7.445
    89   1 H      0.860     0.242     0.915     1.498
    90   6 C      3.787     0.032    20.053     6.378
    91   1 H      0.925     0.062     2.173     2.305
    92   6 C      3.876    -0.073    21.847     6.646
    93   1 H      0.924     0.065     2.136     2.286
    94   1 H      0.925     0.087     1.907     2.159
    95   6 C      3.792    -0.015    20.857     6.504
    96   1 H      0.925     0.051     2.310     2.377
    97   1 H      0.925     0.022     2.699     2.569
    98  16 S      2.020    -0.194   149.315    20.566
    99   6 C      3.747    -0.067    21.847     6.667
   100   1 H      0.925     0.069     2.099     2.266
   101   1 H      0.926     0.058     2.222     2.331
   102   1 H      0.925     0.087     1.909     2.160
   103   6 C      2.743     0.273    22.381     7.746
   104   8 O      0.861    -0.486    23.466     6.495
   105   7 N      2.687    -0.214    25.654     7.522
   106   1 H      0.860     0.230     0.967     1.540
   107   6 C      3.791     0.037    19.954     6.362
   108   1 H      0.925     0.056     2.242     2.342
   109   6 C      3.802    -0.070    21.847     6.655
   110   1 H      0.924     0.045     2.387     2.416
   111   1 H      0.924     0.061     2.192     2.315
   112   6 C      3.839    -0.019    20.889     6.502
   113   1 H      0.924     0.056     2.245     2.343
   114   6 C      3.752    -0.116    22.788     6.808
   115   1 H      0.925     0.033     2.551     2.498
   116   1 H      0.925     0.060     2.203     2.321
   117   1 H      0.925     0.052     2.296     2.369
   118   6 C      3.753    -0.109    22.639     6.785
   119   1 H      0.925     0.028     2.622     2.532
   120   1 H      0.925     0.051     2.302     2.373
   121   1 H      0.925     0.024     2.667     2.554
   122   6 C      2.750     0.268    22.482     7.764
   123   8 O      0.860    -0.531    24.473     6.633
   124   7 N      2.691    -0.164    24.542     7.358
   125   1 H      0.860     0.214     1.037     1.595
   126   6 C      3.795     0.023    20.197     6.400
   127   1 H      0.924     0.082     1.961     2.190
   128   6 C      3.806    -0.070    21.828     6.651
   129   1 H      0.925     0.046     2.374     2.410
   130   1 H      0.925     0.077     2.012     2.218
   131   6 C      3.799    -0.082    22.061     6.688
   132   1 H      0.924     0.072     2.059     2.244
   133   1 H      0.925     0.082     1.958     2.188
   134   6 C      3.731    -0.023    21.086     6.554
   135   1 H      0.924     0.080     1.984     2.203
   136   1 H      0.925     0.083     1.944     2.180
   137   7 N      2.710    -0.168    24.634     7.371
   138   1 H      0.860     0.226     0.984     1.554
   139   6 C      2.735     0.258    22.656     7.793
   140   7 N      2.702    -0.271    27.013     7.719
   141   1 H      0.860     0.255     0.866     1.457
   142   1 H      0.860     0.239     0.929     1.510
   143   7 N      2.725    -0.279    27.196     7.745
   144   1 H      0.860     0.243     0.909     1.494
   145   1 H      0.860     0.242     0.915     1.498
   146   6 C      2.748     0.277    22.316     7.735
   147   8 O      0.860    -0.427    22.224     6.321
   148   7 N      2.683    -0.206    25.476     7.496
   149   1 H      0.860     0.184     1.189     1.708
   150   6 C      3.776     0.009    20.448     6.443
   151   1 H      0.924     0.085     1.927     2.171
   152   6 C      3.842    -0.024    20.972     6.515
   153   1 H      0.924     0.043     2.407     2.426
   154   6 C      3.751    -0.116    22.787     6.808
   155   1 H      0.925     0.049     2.332     2.388
   156   1 H      0.925     0.046     2.371     2.408
   157   1 H      0.925     0.059     2.212     2.326
   158   6 C      3.800    -0.063    21.705     6.633
   159   1 H      0.925     0.035     2.515     2.480
   160   1 H      0.925     0.045     2.381     2.413
   161   6 C      3.750    -0.092    22.320     6.738
   162   1 H      0.924     0.029     2.600     2.522
   163   1 H      0.925     0.040     2.450     2.448
   164   1 H      0.925     0.026     2.638     2.540
   165   6 C      2.749     0.273    22.384     7.747
   166   8 O      0.861    -0.464    23.008     6.431
   167   7 N      2.686    -0.186    25.029     7.430
   168   1 H      0.860     0.201     1.102     1.644
   169   6 C      3.800     0.030    20.073     6.379
   170   1 H      0.924     0.096     1.820     2.110
   171   6 C      3.811    -0.092    22.238     6.712
   172   1 H      0.925     0.050     2.325     2.384
   173   1 H      0.925     0.024     2.673     2.557
   174   6 C      2.686     0.364    20.834     7.470
   175   8 O      0.857    -0.586    25.784     6.808
   176   8 O      0.856    -0.573    25.474     6.767
   177   6 C      2.751     0.265    22.524     7.771
   178   8 O      0.859    -0.501    23.817     6.543
   179   7 N      2.687    -0.212    25.615     7.517
   180   1 H      0.860     0.219     1.015     1.578
   181   6 C      3.792     0.040    19.903     6.353
   182   1 H      0.925     0.075     2.032     2.229
   183   6 C      3.806    -0.048    21.431     6.590
   184   1 H      0.924     0.031     2.579     2.511
   185   1 H      0.924     0.052     2.297     2.370
   186   6 C      3.791    -0.084    22.104     6.696
   187   1 H      0.925     0.014     2.833     2.632
   188   1 H      0.924     0.029     2.601     2.522
   189   6 C      2.686     0.369    20.751     7.455
   190   8 O      0.857    -0.635    26.993     6.966
   191   8 O      0.858    -0.646    27.273     7.002
   192   6 C      2.776     0.278    22.298     7.734
   193   8 O      0.862    -0.478    23.294     6.471
   194   7 N      2.683    -0.168    24.644     7.373
   195   1 H      0.860     0.192     1.148     1.678
   196   6 C      3.744    -0.027    21.120     6.556
   197   1 H      0.925     0.084     1.941     2.179
   198   1 H      0.925     0.103     1.758     2.073
   199   6 C      2.747     0.268    22.470     7.762
   200   8 O      0.860    -0.501    23.806     6.542
   201   7 N      2.688    -0.155    24.364     7.331
   202   1 H      0.860     0.211     1.053     1.607
   203   6 C      3.789     0.022    20.220     6.404
   204   1 H      0.925     0.050     2.322     2.383
   205   6 C      3.803    -0.075    21.925     6.666
   206   1 H      0.925     0.066     2.126     2.280
   207   1 H      0.924     0.055     2.262     2.352
   208   6 C      3.850    -0.018    20.869     6.498
   209   1 H      0.924     0.040     2.449     2.448
   210   6 C      3.762    -0.123    22.897     6.821
   211   1 H      0.924     0.019     2.746     2.592
   212   1 H      0.924     0.059     2.207     2.323
   213   1 H      0.925     0.042     2.416     2.431
   214   6 C      3.763    -0.133    23.109     6.852
   215   1 H      0.924     0.063     2.164     2.301
   216   1 H      0.924     0.051     2.310     2.377
   217   1 H      0.925     0.046     2.367     2.406
   218   6 C      2.749     0.260    22.615     7.787
   219   8 O      0.858    -0.496    23.704     6.528
   220   7 N      2.689    -0.134    23.905     7.262
   221   1 H      0.860     0.200     1.107     1.648
   222   6 C      3.789     0.010    20.420     6.436
   223   1 H      0.924     0.088     1.895     2.153
   224   6 C      3.797    -0.082    22.063     6.688
   225   1 H      0.925     0.082     1.960     2.190
   226   1 H      0.925     0.057     2.238     2.339
   227   6 C      3.801    -0.087    22.159     6.702
   228   1 H      0.924     0.065     2.144     2.290
   229   1 H      0.925     0.097     1.810     2.104
   230   6 C      3.734    -0.029    21.177     6.568
   231   1 H      0.925     0.074     2.045     2.237
   232   1 H      0.925     0.086     1.915     2.164
   233   7 N      2.721    -0.152    24.276     7.318
   234   1 H      0.860     0.231     0.962     1.537
   235   6 C      2.733     0.231    23.147     7.877
   236   7 N      2.687    -0.248    26.466     7.641
   237   1 H      0.860     0.254     0.867     1.459
   238   1 H      0.860     0.230     0.965     1.538
   239   7 N      2.652    -0.259    26.720     7.677
   240   1 H      0.860     0.269     0.812     1.411
   241   1 H      0.860     0.260     0.844     1.439
   242   6 C      2.775     0.257    22.679     7.800
   243   8 O      0.861    -0.508    23.955     6.562
   244   7 N      2.696    -0.150    24.245     7.313
   245   1 H      0.860     0.225     0.986     1.556
   246   6 C      3.808     0.010    20.396     6.429
   247   1 H      0.924     0.091     1.871     2.139
   248   6 C      3.815    -0.104    22.475     6.747
   249   1 H      0.924     0.091     1.865     2.135
   250   1 H      0.925     0.078     2.000     2.212
   251   6 C      3.849    -0.021    20.919     6.506
   252   1 H      0.924     0.031     2.577     2.511
   253   6 C      3.755    -0.140    23.250     6.875
   254   1 H      0.925     0.064     2.149     2.293
   255   1 H      0.925     0.045     2.378     2.412
   256   1 H      0.925     0.067     2.123     2.278
   257   6 C      3.760    -0.113    22.700     6.792
   258   1 H      0.924     0.049     2.338     2.391
   259   1 H      0.925     0.025     2.663     2.552
   260   1 H      0.925     0.024     2.679     2.560
   261   6 C      2.750     0.255    22.716     7.804
   262   8 O      0.858    -0.488    23.526     6.503
   263   7 N      2.688    -0.159    24.442     7.343
   264   1 H      0.860     0.208     1.067     1.618
   265   6 C      3.789     0.004    20.530     6.453
   266   1 H      0.925     0.106     1.728     2.056
   267   6 C      3.803    -0.086    22.138     6.699
   268   1 H      0.924     0.058     2.218     2.329
   269   1 H      0.925     0.076     2.025     2.226
   270   6 C      3.795    -0.089    22.197     6.709
   271   1 H      0.924     0.069     2.101     2.267
   272   1 H      0.925     0.071     2.073     2.252
   273   6 C      3.786    -0.106    22.541     6.762
   274   1 H      0.925     0.087     1.906     2.159
   275   1 H      0.924     0.091     1.872     2.140
   276   6 C      3.727    -0.061    21.776     6.663
   277   1 H      0.925     0.114     1.661     2.015
   278   1 H      0.924     0.124     1.579     1.965
   279   7 N      3.487    -0.152    24.273     7.317
   280   1 H      0.860     0.294     0.730     1.338
   281   1 H      0.860     0.299     0.715     1.325
   282   1 H      0.860     0.298     0.719     1.328
   283   6 C      2.759     0.262    22.575     7.781
   284   8 O      0.859    -0.515    24.108     6.583
   285   7 N      2.684    -0.169    24.649     7.374
   286   1 H      0.860     0.237     0.934     1.514
   287   6 C      3.787     0.011    20.405     6.434
   288   1 H      0.924     0.043     2.409     2.427
   289   6 C      3.846    -0.037    21.199     6.549
   290   1 H      0.924     0.078     1.999     2.211
   291   6 C      3.752    -0.131    23.077     6.851
   292   1 H      0.925     0.079     1.985     2.203
   293   1 H      0.925     0.038     2.472     2.459
   294   1 H      0.925     0.046     2.366     2.405
   295   6 C      3.798    -0.080    22.027     6.683
   296   1 H      0.924     0.054     2.273     2.358
   297   1 H      0.924     0.035     2.520     2.483
   298   6 C      3.752    -0.129    23.030     6.843
   299   1 H      0.924     0.069     2.100     2.266
   300   1 H      0.925     0.044     2.395     2.420
   301   1 H      0.925     0.037     2.490     2.468
   302   6 C      2.753     0.281    22.248     7.724
   303   8 O      0.857    -0.467    23.075     6.440
   304   7 N      2.693    -0.156    24.368     7.332
   305   1 H      0.860     0.211     1.052     1.607
   306   6 C      3.791     0.016    20.319     6.419
   307   1 H      0.924     0.116     1.642     2.004
   308   6 C      3.816    -0.096    22.320     6.724
   309   1 H      0.925     0.105     1.741     2.064
   310   1 H      0.924     0.077     2.014     2.219
   311   6 C      2.951     0.001    28.012     8.681
   312   6 C      2.910    -0.048    29.181     8.858
   313   1 H      0.926     0.065     2.136     2.285
   314   6 C      2.894    -0.080    30.011     8.982
   315   1 H      0.926     0.006     2.950     2.686
   316   6 C      2.833     0.132    25.116     8.213
   317   8 O      1.659    -0.439    21.614     6.276
   318   1 H      0.805     0.300     0.722     1.335
   319   6 C      2.900    -0.059    29.455     8.899
   320   1 H      0.926     0.045     2.379     2.412
   321   6 C      2.927    -0.049    29.210     8.863
   322   1 H      0.926     0.091     1.868     2.138
   323   6 C      2.751     0.253    22.744     7.809
   324   8 O      0.858    -0.509    23.974     6.565
   325   7 N      2.681    -0.157    24.402     7.337
   326   1 H      0.860     0.224     0.990     1.559
   327   6 C      3.787     0.011    20.400     6.433
   328   1 H      0.925     0.081     1.969     2.194
   329   6 C      3.802    -0.082    22.072     6.689
   330   1 H      0.925     0.042     2.421     2.433
   331   1 H      0.925     0.073     2.055     2.242
   332   6 C      3.797    -0.086    22.145     6.701
   333   1 H      0.925     0.077     2.013     2.219
   334   1 H      0.924     0.043     2.404     2.424
   335   6 C      3.800    -0.103    22.475     6.750
   336   1 H      0.924     0.076     2.017     2.221
   337   1 H      0.925     0.110     1.700     2.039
   338   6 C      3.730    -0.061    21.774     6.661
   339   1 H      0.925     0.133     1.512     1.923
   340   1 H      0.925     0.127     1.561     1.954
   341   7 N      3.488    -0.132    23.848     7.253
   342   1 H      0.860     0.276     0.788     1.391
   343   1 H      0.860     0.300     0.713     1.323
   344   1 H      0.860     0.288     0.749     1.356
   345   6 C      2.749     0.266    22.509     7.769
   346   8 O      0.859    -0.501    23.803     6.541
   347   7 N      2.701    -0.178    24.864     7.406
   348   1 H      0.860     0.229     0.970     1.543
   349   6 C      3.806     0.059    19.588     6.301
   350   1 H      0.924     0.054     2.268     2.355
   351   6 C      3.819    -0.090    22.196     6.705
   352   1 H      0.925     0.035     2.521     2.483
   353   1 H      0.924     0.047     2.360     2.402
   354   6 C      2.685     0.357    20.933     7.487
   355   8 O      0.856    -0.621    26.634     6.919
   356   8 O      0.856    -0.653    27.456     7.025
   357   6 C      2.751     0.259    22.636     7.791
   358   8 O      0.856    -0.491    23.579     6.510
   359   7 N      2.679    -0.185    25.011     7.428
   360   1 H      0.860     0.210     1.056     1.610
   361   6 C      3.780     0.005    20.518     6.453
   362   1 H      0.924     0.093     1.848     2.126
   363   6 C      3.724     0.115    18.801     6.192
   364   1 H      0.925     0.031     2.566     2.505
   365   6 C      3.746    -0.137    23.205     6.871
   366   1 H      0.925     0.080     1.980     2.200
   367   1 H      0.925     0.078     1.997     2.210
   368   1 H      0.924     0.066     2.128     2.281
   369   8 O      1.656    -0.475    22.351     6.382
   370   1 H      0.805     0.310     0.691     1.306
   371   6 C      2.743     0.264    22.543     7.774
   372   8 O      0.858    -0.503    23.848     6.547
   373   7 N      2.678    -0.194    25.209     7.457
   374   1 H      0.860     0.213     1.042     1.599
   375   6 C      3.773     0.024    20.194     6.403
   376   1 H      0.925     0.071     2.073     2.252
   377   6 C      3.799    -0.051    21.493     6.601
   378   1 H      0.925     0.082     1.957     2.188
   379   1 H      0.924     0.031     2.574     2.509
   380   6 C      3.796    -0.089    22.201     6.709
   381   1 H      0.925     0.039     2.458     2.452
   382   1 H      0.924     0.012     2.856     2.643
   383   6 C      2.687     0.358    20.918     7.485
   384   8 O      0.857    -0.629    26.845     6.947
   385   8 O      0.857    -0.589    25.854     6.817
   386   6 C      2.746     0.266    22.508     7.768
   387   8 O      0.864    -0.494    23.649     6.520
   388   7 N      2.689    -0.154    24.322     7.325
   389   1 H      0.861     0.191     1.153     1.682
   390   6 C      3.746    -0.041    21.378     6.595
   391   1 H      0.925     0.126     1.567     1.957
   392   1 H      0.924     0.110     1.700     2.039
   393   6 C      2.746     0.270    22.443     7.757
   394   8 O      0.859    -0.430    22.291     6.330
   395   7 N      2.685    -0.162    24.498     7.351
   396   1 H      0.860     0.166     1.296     1.783
   397   6 C      3.785     0.009    20.434     6.439
   398   1 H      0.925     0.102     1.765     2.078
   399   6 C      3.815    -0.081    22.039     6.682
   400   1 H      0.925     0.101     1.777     2.085
   401   1 H      0.924     0.045     2.382     2.414
   402   6 C      2.966    -0.017    28.441     8.748
   403   6 C      2.915    -0.051    29.269     8.872
   404   1 H      0.926     0.019     2.755     2.596
   405   6 C      2.907    -0.071    29.758     8.945
   406   1 H      0.926     0.044     2.397     2.421
   407   6 C      2.843     0.149    24.762     8.155
   408   8 O      1.662    -0.422    21.270     6.226
   409   1 H      0.806     0.365     0.553     1.168
   410   6 C      2.921    -0.077    29.926     8.971
   411   1 H      0.926     0.062     2.173     2.305
   412   6 C      2.908    -0.047    29.163     8.855
   413   1 H      0.926     0.062     2.173     2.305
   414   6 C      2.749     0.268    22.481     7.764
   415   8 O      0.857    -0.464    22.999     6.430
   416   7 N      2.683    -0.189    25.110     7.442
   417   1 H      0.860     0.227     0.980     1.551
   418   6 C      3.795     0.016    20.306     6.417
   419   1 H      0.925     0.091     1.868     2.137
   420   6 C      3.804    -0.092    22.254     6.716
   421   1 H      0.925     0.083     1.945     2.181
   422   1 H      0.925     0.080     1.974     2.197
   423   6 C      2.944    -0.013    28.330     8.730
   424   6 C      2.908    -0.047    29.155     8.854
   425   1 H      0.926     0.053     2.289     2.366
   426   6 C      2.899    -0.096    30.400     9.040
   427   1 H      0.926     0.052     2.294     2.368
   428   6 C      2.822     0.132    25.106     8.210
   429   8 O      1.659    -0.408    20.998     6.186
   430   1 H      0.806     0.354     0.578     1.194
   431   6 C      2.901    -0.065    29.616     8.923
   432   1 H      0.926     0.078     1.995     2.209
   433   6 C      2.908    -0.043    29.066     8.840
   434   1 H      0.926     0.058     2.222     2.331
   435   6 C      2.754     0.258    22.662     7.795
   436   8 O      0.858    -0.539    24.656     6.657
   437   7 N      2.702    -0.167    24.620     7.369
   438   1 H      0.860     0.250     0.883     1.472
   439   6 C      3.790     0.008    20.459     6.442
   440   1 H      0.925     0.089     1.886     2.148
   441   6 C      3.725     0.133    18.527     6.146
   442   1 H      0.924     0.022     2.705     2.572
   443   6 C      3.744    -0.111    22.690     6.795
   444   1 H      0.925     0.019     2.747     2.592
   445   1 H      0.925     0.043     2.409     2.427
   446   1 H      0.924     0.055     2.263     2.353
   447   8 O      1.659    -0.480    22.469     6.399
   448   1 H      0.806     0.330     0.637     1.254
   449   6 C      2.751     0.250    22.810     7.821
   450   8 O      0.857    -0.461    22.933     6.421
   451   7 N      2.682    -0.176    24.803     7.397
   452   1 H      0.860     0.223     0.997     1.564
   453   6 C      3.782     0.013    20.381     6.431
   454   1 H      0.925     0.092     1.863     2.135
   455   6 C      3.854    -0.033    21.133     6.538
   456   1 H      0.925     0.084     1.935     2.176
   457   6 C      3.753    -0.126    22.978     6.836
   458   1 H      0.925     0.066     2.125     2.280
   459   1 H      0.924     0.043     2.415     2.430
   460   1 H      0.924     0.035     2.522     2.483
   461   6 C      3.804    -0.066    21.771     6.643
   462   1 H      0.925     0.052     2.293     2.368
   463   1 H      0.925     0.042     2.417     2.431
   464   6 C      3.754    -0.129    23.026     6.842
   465   1 H      0.924     0.059     2.216     2.328
   466   1 H      0.924     0.056     2.251     2.346
   467   1 H      0.924     0.064     2.155     2.296
   468   6 C      2.744     0.269    22.460     7.760
   469   8 O      0.862    -0.494    23.647     6.520
   470   7 N      2.686    -0.176    24.812     7.398
   471   1 H      0.860     0.229     0.969     1.542
   472   6 C      3.746    -0.028    21.138     6.558
   473   1 H      0.925     0.070     2.081     2.256
   474   1 H      0.925     0.112     1.682     2.028
   475   6 C      2.750     0.285    22.173     7.711
   476   8 O      0.858    -0.459    22.889     6.414
   477   7 N      2.691    -0.189    25.095     7.440
   478   1 H      0.860     0.196     1.125     1.661
   479   6 C      3.793     0.015    20.331     6.421
   480   1 H      0.925     0.086     1.916     2.164
   481   6 C      3.852    -0.016    20.833     6.492
   482   1 H      0.924     0.029     2.596     2.520
   483   6 C      3.752    -0.115    22.753     6.802
   484   1 H      0.924     0.068     2.109     2.271
   485   1 H      0.925     0.014     2.821     2.626
   486   1 H      0.924     0.049     2.338     2.391
   487   6 C      3.800    -0.068    21.807     6.649
   488   1 H      0.925     0.038     2.473     2.459
   489   1 H      0.924     0.054     2.270     2.356
   490   6 C      3.752    -0.120    22.851     6.817
   491   1 H      0.924     0.052     2.293     2.368
   492   1 H      0.924     0.037     2.488     2.466
   493   1 H      0.925     0.056     2.244     2.343
   494   6 C      2.746     0.270    22.444     7.757
   495   8 O      0.858    -0.480    23.343     6.478
   496   7 N      2.681    -0.192    25.170     7.451
   497   1 H      0.860     0.213     1.040     1.598
   498   6 C      3.733    -0.009    20.822     6.513
   499   1 H      0.924     0.058     2.222     2.331
   500   1 H      0.924     0.075     2.036     2.232
   501   6 C      2.744     0.284    22.181     7.711
   502   8 O      0.865    -0.513    24.081     6.579
   503   7 N      2.691    -0.179    24.875     7.407
   504   1 H      0.860     0.232     0.958     1.533
   505   6 C      3.786     0.023    20.196     6.401
   506   1 H      0.925     0.058     2.223     2.331
   507   6 C      3.800    -0.086    22.138     6.699
   508   1 H      0.924     0.121     1.601     1.979
   509   1 H      0.925     0.086     1.921     2.167
   510   6 C      3.096     0.054    26.684     8.466
   511   7 N      2.795    -0.042    22.049     6.974
   512   1 H      0.860     0.255     0.863     1.455
   513   6 C      3.061     0.074    26.297     8.409
   514   1 H      0.926     0.132     1.518     1.927
   515   7 N      2.800    -0.009    21.434     6.876
   516   1 H      0.860     0.265     0.827     1.424
   517   6 C      3.047    -0.005    28.099     8.694
   518   1 H      0.926     0.146     1.418     1.862
   519   6 C      2.749     0.267    22.494     7.766
   520   8 O      0.860    -0.459    22.902     6.416
   521   7 N      2.696    -0.153    24.303     7.322
   522   1 H      0.860     0.196     1.129     1.664
   523   6 C      3.795     0.030    20.081     6.381
   524   1 H      0.924     0.068     2.111     2.272
   525   6 C      3.811    -0.076    21.948     6.668
   526   1 H      0.925     0.047     2.360     2.403
   527   1 H      0.925     0.047     2.355     2.400
   528   6 C      3.845    -0.016    20.829     6.492
   529   1 H      0.925     0.029     2.605     2.524
   530   6 C      3.749    -0.124    22.943     6.831
   531   1 H      0.924     0.066     2.125     2.280
   532   1 H      0.925     0.032     2.555     2.499
   533   1 H      0.925     0.052     2.294     2.369
   534   6 C      3.760    -0.126    22.960     6.831
   535   1 H      0.924     0.063     2.161     2.299
   536   1 H      0.925     0.035     2.510     2.478
   537   1 H      0.925     0.053     2.282     2.362
   538   6 C      2.748     0.278    22.297     7.732
   539   8 O      0.861    -0.480    23.336     6.477
   540   7 N      2.690    -0.189    25.101     7.441
   541   1 H      0.860     0.223     0.997     1.564
   542   6 C      3.792     0.018    20.273     6.412
   543   1 H      0.924     0.084     1.942     2.179
   544   6 C      3.819    -0.084    22.080     6.687
   545   1 H      0.925     0.068     2.113     2.273
   546   1 H      0.924     0.064     2.156     2.296
   547   6 C      3.852    -0.012    20.756     6.480
   548   1 H      0.925     0.035     2.518     2.482
   549   6 C      3.787    -0.121    22.837     6.807
   550   1 H      0.925     0.058     2.218     2.329
   551   1 H      0.925     0.069     2.099     2.265
   552   1 H      0.924     0.047     2.361     2.403
   553   6 C      3.763    -0.129    23.021     6.839
   554   1 H      0.924     0.022     2.707     2.573
   555   1 H      0.925     0.054     2.270     2.356
   556   1 H      0.925     0.053     2.283     2.363
   557   6 C      2.758     0.262    22.589     7.783
   558   8 O      0.859    -0.545    24.797     6.676
   559   7 N      2.687    -0.161    24.477     7.348
   560   1 H      0.860     0.230     0.964     1.538
   561   6 C      3.780     0.011    20.408     6.436
   562   1 H      0.925     0.071     2.075     2.253
   563   6 C      3.716     0.110    18.885     6.208
   564   1 H      0.925     0.037     2.484     2.465
   565   6 C      3.751    -0.137    23.208     6.870
   566   1 H      0.925     0.092     1.860     2.133
   567   1 H      0.924     0.083     1.952     2.185
   568   1 H      0.925     0.068     2.108     2.271
   569   8 O      1.652    -0.487    22.608     6.419
   570   1 H      0.805     0.337     0.620     1.237
   571   6 C      2.744     0.253    22.742     7.808
   572   8 O      0.858    -0.472    23.165     6.453
   573   7 N      2.684    -0.172    24.719     7.384
   574   1 H      0.860     0.209     1.061     1.614
   575   6 C      3.787     0.011    20.398     6.433
   576   1 H      0.924     0.100     1.782     2.088
   577   6 C      3.809    -0.081    22.047     6.684
   578   1 H      0.925     0.088     1.895     2.153
   579   1 H      0.925     0.071     2.070     2.250
   580   6 C      3.808    -0.080    22.029     6.681
   581   1 H      0.924     0.052     2.301     2.372
   582   1 H      0.924     0.053     2.285     2.364
   583   6 C      3.810    -0.108    22.551     6.760
   584   1 H      0.924     0.094     1.839     2.121
   585   1 H      0.925     0.094     1.839     2.121
   586   6 C      3.738    -0.054    21.633     6.637
   587   1 H      0.925     0.115     1.652     2.010
   588   1 H      0.924     0.111     1.684     2.030
   589   7 N      3.495    -0.154    24.317     7.324
   590   1 H      0.860     0.297     0.724     1.333
   591   1 H      0.860     0.305     0.699     1.310
   592   1 H      0.860     0.298     0.720     1.329
   593   6 C      2.748     0.261    22.608     7.786
   594   8 O      0.857    -0.469    23.120     6.447
   595   7 N      2.689    -0.188    25.069     7.436
   596   1 H      0.860     0.217     1.024     1.585
   597   6 C      3.789     0.015    20.338     6.423
   598   1 H      0.925     0.067     2.124     2.279
   599   6 C      3.682     0.069    19.628     6.344
   600   1 H      0.925     0.047     2.357     2.401
   601   1 H      0.925     0.061     2.190     2.314
   602   8 O      1.658    -0.470    22.261     6.369
   603   1 H      0.805     0.330     0.636     1.253
   604   6 C      2.759     0.256    22.699     7.802
   605   8 O      0.859    -0.461    22.948     6.423
   606   7 N      2.748    -0.080    22.786     7.090
   607   6 C      3.788    -0.015    20.855     6.504
   608   1 H      0.924     0.050     2.323     2.384
   609   1 H      0.924     0.066     2.131     2.283
   610   6 C      3.819    -0.073    21.889     6.658
   611   1 H      0.924     0.060     2.195     2.317
   612   1 H      0.925     0.062     2.180     2.309
   613   6 C      3.835    -0.080    22.000     6.673
   614   1 H      0.925     0.079     1.986     2.204
   615   1 H      0.924     0.085     1.926     2.170
   616   6 C      3.848     0.011    20.350     6.417
   617   1 H      0.925     0.088     1.895     2.153
   618   6 C      2.750     0.277    22.321     7.736
   619   8 O      0.863    -0.453    22.767     6.397
   620   7 N      2.686    -0.202    25.390     7.484
   621   1 H      0.860     0.216     1.027     1.587
   622   6 C      3.787     0.013    20.366     6.428
   623   1 H      0.925     0.089     1.889     2.149
   624   6 C      3.679     0.069    19.633     6.347
   625   1 H      0.925     0.052     2.290     2.367
   626   1 H      0.925     0.053     2.284     2.363
   627   8 O      1.655    -0.473    22.322     6.378
   628   1 H      0.805     0.340     0.613     1.230
   629   6 C      2.760     0.250    22.798     7.819
   630   8 O      0.860    -0.497    23.711     6.529
   631   7 N      2.697    -0.164    24.538     7.357
   632   1 H      0.860     0.215     1.031     1.591
   633   6 C      3.791    -0.012    20.795     6.494
   634   1 H      0.925     0.118     1.627     1.995
   635   6 C      3.838    -0.086    22.112     6.690
   636   1 H      0.925     0.060     2.197     2.318
   637   1 H      0.925     0.074     2.047     2.237
   638   6 C      3.853    -0.014    20.786     6.484
   639   1 H      0.925     0.052     2.293     2.368
   640   6 C      3.767    -0.133    23.104     6.851
   641   1 H      0.924     0.058     2.223     2.331
   642   1 H      0.925     0.047     2.363     2.404
   643   1 H      0.925     0.041     2.437     2.441
   644   6 C      3.771    -0.131    23.045     6.841
   645   1 H      0.925     0.036     2.510     2.477
   646   1 H      0.924     0.047     2.355     2.400
   647   1 H      0.924     0.057     2.231     2.336
   648   6 C      2.749     0.271    22.429     7.755
   649   8 O      0.861    -0.440    22.505     6.360
   650   7 N      2.700    -0.183    24.961     7.420
   651   1 H      0.860     0.216     1.027     1.587
   652   6 C      3.797     0.021    20.221     6.403
   653   1 H      0.924     0.120     1.610     1.984
   654   6 C      3.838    -0.121    22.783     6.790
   655   1 H      0.925     0.084     1.942     2.179
   656   1 H      0.925     0.130     1.539     1.940
   657   6 C      2.750     0.286    22.160     7.708
   658   8 O      0.859    -0.509    23.988     6.567
   659   7 N      2.644    -0.278    27.185     7.744
   660   1 H      0.860     0.230     0.967     1.540
   661   1 H      0.860     0.233     0.951     1.528
   662   6 C      2.750     0.254    22.734     7.807
   663   8 O      0.857    -0.485    23.446     6.492
   664   7 N      2.683    -0.190    25.129     7.445
   665   1 H      0.860     0.222     1.000     1.566
   666   6 C      3.787     0.021    20.244     6.408
   667   1 H      0.925     0.073     2.052     2.240
   668   6 C      3.755    -0.136    23.178     6.865
   669   1 H      0.924     0.078     1.997     2.210
   670   1 H      0.925     0.055     2.260     2.351
   671   1 H      0.925     0.091     1.873     2.140
   672   6 C      2.749     0.260    22.611     7.786
   673   8 O      0.862    -0.509    23.987     6.567
   674   7 N      2.687    -0.181    24.911     7.413
   675   1 H      0.860     0.230     0.964     1.538
   676   6 C      3.790     0.018    20.289     6.415
   677   1 H      0.925     0.057     2.233     2.337
   678   6 C      3.751    -0.151    23.472     6.909
   679   1 H      0.924     0.078     2.000     2.212
   680   1 H      0.925     0.095     1.828     2.114
   681   1 H      0.925     0.083     1.945     2.181
   682   6 C      2.748     0.260    22.610     7.786
   683   8 O      0.858    -0.518    24.183     6.593
   684   7 N      2.688    -0.164    24.555     7.360
   685   1 H      0.860     0.245     0.904     1.489
   686   6 C      3.787     0.004    20.527     6.453
   687   1 H      0.925     0.103     1.757     2.073
   688   6 C      3.798    -0.095    22.308     6.725
   689   1 H      0.925     0.064     2.154     2.295
   690   1 H      0.925     0.068     2.110     2.271
   691   6 C      3.795    -0.089    22.208     6.711
   692   1 H      0.924     0.095     1.831     2.116
   693   1 H      0.925     0.082     1.956     2.187
   694   6 C      3.805    -0.106    22.529     6.757
   695   1 H      0.924     0.104     1.752     2.070
   696   1 H      0.924     0.068     2.107     2.270
   697   6 C      3.733    -0.058    21.710     6.650
   698   1 H      0.925     0.112     1.681     2.028
   699   1 H      0.924     0.120     1.612     1.985
   700   7 N      3.491    -0.148    24.193     7.305
   701   1 H      0.860     0.293     0.735     1.343
   702   1 H      0.860     0.294     0.731     1.339
   703   1 H      0.860     0.315     0.671     1.283
   704   6 C      2.754     0.271    22.420     7.754
   705   8 O      0.860    -0.502    23.829     6.545
   706   7 N      2.688    -0.184    24.996     7.425
   707   1 H      0.860     0.222     1.000     1.566
   708   6 C      3.788     0.004    20.522     6.452
   709   1 H      0.924     0.096     1.825     2.113
   710   6 C      3.682     0.065    19.694     6.355
   711   1 H      0.925     0.052     2.290     2.367
   712   1 H      0.925     0.059     2.216     2.328
   713   8 O      1.653    -0.471    22.286     6.373
   714   1 H      0.806     0.349     0.591     1.208
   715   6 C      2.755     0.257    22.666     7.796
   716   8 O      0.858    -0.482    23.381     6.483
   717   7 N      2.700    -0.198    25.291     7.469
   718   1 H      0.860     0.234     0.950     1.527
   719   6 C      3.819     0.046    19.782     6.330
   720   1 H      0.925     0.056     2.243     2.342
   721   6 C      3.828    -0.041    21.293     6.566
   722   1 H      0.925     0.038     2.477     2.461
   723   1 H      0.924     0.056     2.252     2.347
   724   6 C      3.810    -0.086    22.135     6.697
   725   1 H      0.925     0.039     2.462     2.454
   726   1 H      0.925     0.039     2.459     2.452
   727   6 C      2.689     0.365    20.806     7.465
   728   8 O      0.857    -0.658    27.595     7.043
   729   8 O      0.857    -0.673    27.987     7.093
   730   6 C      2.756     0.267    22.496     7.767
   731   8 O      0.858    -0.515    24.125     6.585
   732   7 N      2.686    -0.199    25.315     7.473
   733   1 H      0.860     0.224     0.992     1.560
   734   6 C      3.795     0.020    20.246     6.407
   735   1 H      0.925     0.071     2.071     2.250
   736   6 C      3.804    -0.091    22.228     6.712
   737   1 H      0.925     0.067     2.124     2.279
   738   1 H      0.924     0.098     1.804     2.101
   739   6 C      3.843    -0.019    20.886     6.501
   740   1 H      0.924     0.023     2.693     2.566
   741   6 C      3.756    -0.129    23.038     6.843
   742   1 H      0.925     0.022     2.707     2.573
   743   1 H      0.925     0.048     2.350     2.397
   744   1 H      0.925     0.064     2.150     2.293
   745   6 C      3.757    -0.135    23.143     6.859
   746   1 H      0.925     0.071     2.078     2.254
   747   1 H      0.924     0.039     2.464     2.455
   748   1 H      0.924     0.077     2.013     2.219
   749   6 C      2.747     0.278    22.294     7.731
   750   8 O      0.859    -0.492    23.618     6.516
   751   7 N      2.692    -0.219    25.777     7.541
   752   1 H      0.860     0.242     0.914     1.497
   753   6 C      3.796     0.046    19.802     6.337
   754   1 H      0.924     0.060     2.199     2.319
   755   6 C      3.830    -0.087    22.140     6.695
   756   1 H      0.925     0.028     2.609     2.526
   757   1 H      0.925     0.063     2.159     2.298
   758   6 C      2.690     0.376    20.624     7.432
   759   8 O      0.859    -0.643    27.211     6.994
   760   8 O      0.857    -0.660    27.651     7.050
   761   6 C      2.764     0.285    22.179     7.713
   762   8 O      0.861    -0.540    24.676     6.660
   763   7 N      2.695    -0.158    24.416     7.339
   764   1 H      0.860     0.199     1.113     1.653
   765   6 C      3.793     0.019    20.269     6.411
   766   1 H      0.925     0.082     1.954     2.186
   767   6 C      3.810    -0.078    21.988     6.675
   768   1 H      0.924     0.080     1.978     2.199
   769   1 H      0.925     0.061     2.193     2.316
   770   6 C      3.805    -0.068    21.797     6.647
   771   1 H      0.925     0.051     2.305     2.374
   772   1 H      0.925     0.041     2.436     2.441
   773   6 C      3.800    -0.092    22.263     6.718
   774   1 H      0.925     0.086     1.915     2.164
   775   1 H      0.924     0.091     1.874     2.141
   776   6 C      3.729    -0.051    21.591     6.633
   777   1 H      0.925     0.128     1.550     1.947
   778   1 H      0.924     0.105     1.737     2.061
   779   7 N      3.487    -0.134    23.902     7.261
   780   1 H      0.860     0.315     0.670     1.282
   781   1 H      0.860     0.279     0.778     1.382
   782   1 H      0.860     0.279     0.778     1.382
   783   6 C      2.738     0.259    22.632     7.789
   784   8 O      0.856    -0.485    23.453     6.493
   785   7 N      2.682    -0.201    25.370     7.481
   786   1 H      0.860     0.207     1.072     1.622
   787   6 C      3.776     0.024    20.198     6.403
   788   1 H      0.924     0.082     1.955     2.186
   789   6 C      3.757    -0.122    22.882     6.820
   790   1 H      0.925     0.074     2.037     2.232
   791   1 H      0.925     0.073     2.054     2.241
   792   1 H      0.925     0.068     2.105     2.269
   793   6 C      2.739     0.272    22.399     7.749
   794   8 O      0.861    -0.474    23.214     6.460
   795   7 N      2.682    -0.184    24.994     7.425
   796   1 H      0.860     0.189     1.163     1.689
   797   6 C      3.775     0.016    20.330     6.424
   798   1 H      0.924     0.085     1.925     2.170
   799   6 C      3.844    -0.021    20.911     6.505
   800   1 H      0.925     0.055     2.254     2.348
   801   6 C      3.747    -0.117    22.815     6.813
   802   1 H      0.925     0.032     2.564     2.504
   803   1 H      0.924     0.040     2.451     2.448
   804   1 H      0.924     0.069     2.101     2.267
   805   6 C      3.802    -0.057    21.597     6.617
   806   1 H      0.925     0.054     2.270     2.356
   807   1 H      0.925     0.061     2.188     2.313
   808   6 C      3.753    -0.100    22.471     6.760
   809   1 H      0.925     0.022     2.705     2.572
   810   1 H      0.924     0.036     2.506     2.475
   811   1 H      0.925     0.027     2.631     2.537
   812   6 C      2.736     0.262    22.573     7.779
   813   8 O      0.861    -0.481    23.369     6.481
   814   7 N      2.685    -0.154    24.334     7.326
   815   1 H      0.860     0.194     1.135     1.669
   816   6 C      3.746    -0.021    21.011     6.539
   817   1 H      0.925     0.093     1.846     2.124
   818   1 H      0.925     0.088     1.901     2.156
   819   6 C      2.749     0.283    22.210     7.717
   820   8 O      0.860    -0.536    24.600     6.650
   821   7 N      2.685    -0.156    24.368     7.332
   822   1 H      0.860     0.224     0.993     1.561
   823   6 C      3.792     0.022    20.214     6.403
   824   1 H      0.925     0.078     2.000     2.212
   825   6 C      3.811    -0.085    22.109     6.693
   826   1 H      0.925     0.075     2.035     2.231
   827   1 H      0.924     0.082     1.954     2.186
   828   6 C      3.802    -0.076    21.946     6.670
   829   1 H      0.925     0.046     2.373     2.409
   830   1 H      0.925     0.076     2.019     2.222
   831   6 C      3.726    -0.022    21.074     6.555
   832   1 H      0.924     0.094     1.844     2.124
   833   1 H      0.925     0.077     2.014     2.219
   834   7 N      2.697    -0.169    24.664     7.376
   835   1 H      0.860     0.234     0.950     1.527
   836   6 C      2.735     0.246    22.875     7.831
   837   7 N      2.663    -0.279    27.205     7.747
   838   1 H      0.860     0.241     0.918     1.501
   839   1 H      0.860     0.247     0.893     1.481
   840   7 N      2.672    -0.289    27.439     7.780
   841   1 H      0.860     0.224     0.990     1.559
   842   1 H      0.861     0.253     0.873     1.464
   843   6 C      2.752     0.270    22.437     7.757
   844   8 O      0.858    -0.500    23.779     6.538
   845   7 N      2.685    -0.170    24.687     7.379
   846   1 H      0.860     0.214     1.039     1.596
   847   6 C      3.788     0.030    20.089     6.384
   848   1 H      0.925     0.068     2.102     2.267
   849   6 C      3.816    -0.105    22.492     6.750
   850   1 H      0.925     0.094     1.845     2.124
   851   1 H      0.925     0.088     1.896     2.153
   852   6 C      2.749     0.284    22.195     7.714
   853   8 O      0.858    -0.526    24.360     6.617
   854   7 N      2.642    -0.278    27.196     7.745
   855   1 H      0.860     0.246     0.901     1.487
   856   1 H      0.860     0.241     0.920     1.503
   857   6 C      2.746     0.258    22.656     7.794
   858   8 O      0.865    -0.482    23.395     6.485
   859   7 N      2.694    -0.140    24.036     7.281
   860   1 H      0.860     0.199     1.111     1.651
   861   6 C      3.872    -0.008    20.669     6.465
   862   1 H      0.924     0.126     1.569     1.959
   863   6 C      3.809    -0.025    21.016     6.526
   864   1 H      0.924     0.096     1.819     2.109
   865   1 H      0.925     0.073     2.051     2.239
   866  16 S      1.969    -0.287   153.447    20.849
   867   1 H      0.922     0.188     1.161     1.685
   868   6 C      2.755     0.270    22.443     7.758
   869   8 O      0.860    -0.423    22.145     6.309
   870   7 N      2.686    -0.187    25.062     7.435
   871   1 H      0.860     0.206     1.074     1.623
   872   6 C      3.788     0.017    20.294     6.416
   873   1 H      0.925     0.095     1.831     2.116
   874   6 C      3.815    -0.113    22.648     6.773
   875   1 H      0.925     0.079     1.993     2.208
   876   1 H      0.924     0.077     2.011     2.218
   877   6 C      2.742     0.300    21.910     7.664
   878   8 O      0.864    -0.513    24.075     6.579
   879   7 N      2.648    -0.259    26.726     7.678
   880   1 H      0.860     0.251     0.881     1.470
   881   1 H      0.860     0.239     0.928     1.509
   882   6 C      2.740     0.256    22.699     7.801
   883   8 O      0.858    -0.455    22.817     6.404
   884   7 N      2.682    -0.170    24.674     7.377
   885   1 H      0.860     0.194     1.136     1.669
   886   6 C      3.732    -0.041    21.403     6.604
   887   1 H      0.925     0.136     1.488     1.908
   888   1 H      0.925     0.126     1.568     1.959
   889   6 C      2.741     0.254    22.731     7.806
   890   8 O      0.859    -0.484    23.437     6.491
   891   7 N      2.684    -0.137    23.962     7.270
   892   1 H      0.860     0.185     1.188     1.707
   893   6 C      3.780     0.000    20.603     6.466
   894   1 H      0.925     0.094     1.842     2.123
   895   6 C      3.846    -0.023    20.951     6.511
   896   1 H      0.925     0.032     2.554     2.499
   897   6 C      3.773    -0.130    23.033     6.839
   898   1 H      0.925     0.057     2.233     2.337
   899   1 H      0.924     0.066     2.126     2.280
   900   1 H      0.925     0.063     2.159     2.298
   901   6 C      3.770    -0.141    23.259     6.873
   902   1 H      0.925     0.050     2.320     2.382
   903   1 H      0.925     0.063     2.167     2.302
   904   1 H      0.925     0.063     2.168     2.303
   905   6 C      2.747     0.263    22.571     7.779
   906   8 O      0.865    -0.466    23.047     6.437
   907   7 N      2.694    -0.168    24.632     7.371
   908   1 H      0.860     0.212     1.048     1.604
   909   6 C      3.782     0.002    20.562     6.459
   910   1 H      0.924     0.082     1.962     2.190
   911   6 C      3.837    -0.029    21.062     6.529
   912   1 H      0.925     0.021     2.712     2.575
   913   6 C      3.745    -0.127    23.021     6.844
   914   1 H      0.925     0.081     1.973     2.197
   915   1 H      0.925     0.045     2.378     2.411
   916   1 H      0.925     0.043     2.407     2.426
   917   6 C      3.794    -0.068    21.818     6.652
   918   1 H      0.925     0.025     2.652     2.547
   919   1 H      0.924     0.062     2.176     2.307
   920   6 C      3.753    -0.116    22.783     6.807
   921   1 H      0.925     0.068     2.106     2.270
   922   1 H      0.924     0.023     2.683     2.562
   923   1 H      0.925     0.022     2.702     2.570
   924   6 C      2.749     0.268    22.476     7.763
   925   8 O      0.861    -0.446    22.623     6.377
   926   7 N      2.692    -0.173    24.752     7.389
   927   1 H      0.860     0.208     1.068     1.619
   928   6 C      3.801     0.003    20.528     6.451
   929   1 H      0.925     0.101     1.774     2.083
   930   6 C      3.724     0.105    18.949     6.216
   931   1 H      0.925     0.055     2.256     2.349
   932   6 C      3.750    -0.150    23.465     6.908
   933   1 H      0.924     0.068     2.108     2.270
   934   1 H      0.925     0.074     2.042     2.235
   935   1 H      0.925     0.067     2.121     2.278
   936   8 O      1.655    -0.531    23.574     6.554
   937   1 H      0.808     0.335     0.625     1.242
   938   6 C      2.765     0.267    22.498     7.768
   939   8 O      0.861    -0.508    23.963     6.563
   940   7 N      2.694    -0.167    24.607     7.367
   941   1 H      0.860     0.225     0.987     1.557
   942   6 C      3.804     0.001    20.558     6.455
   943   1 H      0.924     0.088     1.894     2.152
   944   6 C      3.831    -0.091    22.213     6.706
   945   1 H      0.925     0.098     1.803     2.100
   946   1 H      0.924     0.071     2.073     2.252
   947   6 C      3.820    -0.079    21.988     6.673
   948   1 H      0.925     0.049     2.338     2.391
   949   1 H      0.924     0.046     2.370     2.408
   950   6 C      3.833    -0.108    22.533     6.754
   951   1 H      0.925     0.104     1.745     2.066
   952   1 H      0.925     0.098     1.806     2.102
   953   6 C      3.742    -0.060    21.725     6.650
   954   1 H      0.925     0.113     1.674     2.023
   955   1 H      0.925     0.118     1.628     1.995
   956   7 N      3.486    -0.150    24.229     7.311
   957   1 H      0.860     0.300     0.713     1.323
   958   1 H      0.860     0.300     0.715     1.324
   959   1 H      0.860     0.307     0.693     1.304
   960   6 C      2.751     0.282    22.219     7.719
   961   8 O      0.859    -0.498    23.746     6.533
   962   7 N      2.693    -0.193    25.194     7.455
   963   1 H      0.860     0.218     1.019     1.581
   964   6 C      3.791     0.043    19.861     6.347
   965   1 H      0.925     0.051     2.303     2.373
   966   6 C      3.803    -0.097    22.343     6.730
   967   1 H      0.924     0.063     2.167     2.302
   968   1 H      0.924     0.060     2.202     2.321
   969   6 C      2.690     0.355    20.980     7.496
   970   8 O      0.861    -0.633    26.949     6.960
   971   8 O      0.861    -0.634    26.973     6.963
   972   6 C      2.766     0.278    22.290     7.732
   973   8 O      0.858    -0.497    23.716     6.529
   974   7 N      2.684    -0.176    24.821     7.399
   975   1 H      0.860     0.225     0.987     1.556
   976   6 C      3.799     0.030    20.073     6.379
   977   1 H      0.925     0.065     2.142     2.289
   978   6 C      3.797    -0.058    21.630     6.622
   979   1 H      0.925     0.046     2.367     2.406
   980   1 H      0.924     0.062     2.176     2.307
   981   6 C      3.794    -0.100    22.421     6.743
   982   1 H      0.925     0.048     2.344     2.394
   983   1 H      0.924     0.031     2.569     2.506
   984   6 C      2.682     0.367    20.784     7.460
   985   8 O      0.861    -0.554    25.006     6.705
   986   8 O      0.857    -0.573    25.465     6.766
   987   6 C      2.744     0.257    22.682     7.798
   988   8 O      0.856    -0.519    24.214     6.597
   989   7 N      2.684    -0.186    25.028     7.430
   990   1 H      0.860     0.239     0.926     1.507
   991   6 C      3.789     0.019    20.269     6.412
   992   1 H      0.924     0.086     1.923     2.169
   993   6 C      3.748    -0.131    23.090     6.854
   994   1 H      0.925     0.063     2.166     2.301
   995   1 H      0.925     0.087     1.910     2.161
   996   1 H      0.925     0.092     1.862     2.134
   997   6 C      2.752     0.280    22.267     7.727
   998   8 O      0.861    -0.491    23.577     6.510
   999   7 N      2.689    -0.187    25.044     7.432
  1000   1 H      0.860     0.205     1.080     1.628
  1001   6 C      3.784     0.018    20.282     6.415
  1002   1 H      0.924     0.084     1.939     2.178
  1003   6 C      3.796    -0.059    21.643     6.624
  1004   1 H      0.925     0.069     2.092     2.262
  1005   1 H      0.925     0.051     2.306     2.375
  1006   6 C      3.797    -0.090    22.214     6.711
  1007   1 H      0.925     0.006     2.952     2.687
  1008   1 H      0.924     0.019     2.744     2.591
  1009   6 C      2.681     0.376    20.623     7.432
  1010   8 O      0.857    -0.645    27.260     7.000
  1011   8 O      0.857    -0.636    27.015     6.969
  1012   6 C      2.749     0.271    22.423     7.754
  1013   8 O      0.861    -0.507    23.932     6.559
  1014   7 N      2.692    -0.189    25.103     7.441
  1015   1 H      0.860     0.196     1.127     1.663
  1016   6 C      3.792     0.033    20.030     6.374
  1017   1 H      0.924     0.084     1.933     2.174
  1018   6 C      3.800    -0.075    21.933     6.668
  1019   1 H      0.924     0.068     2.104     2.268
  1020   1 H      0.925     0.062     2.175     2.306
  1021   6 C      3.794    -0.066    21.770     6.644
  1022   1 H      0.925     0.045     2.388     2.417
  1023   1 H      0.925     0.053     2.285     2.364
  1024   6 C      3.804    -0.082    22.055     6.686
  1025   1 H      0.925     0.074     2.046     2.237
  1026   1 H      0.925     0.060     2.194     2.316
  1027   6 C      3.732    -0.036    21.309     6.589
  1028   1 H      0.925     0.095     1.830     2.116
  1029   1 H      0.925     0.112     1.683     2.029
  1030   7 N      3.492    -0.147    24.179     7.303
  1031   1 H      0.860     0.293     0.734     1.342
  1032   1 H      0.860     0.294     0.732     1.340
  1033   1 H      0.860     0.295     0.728     1.336
  1034   6 C      2.752     0.281    22.249     7.724
  1035   8 O      0.866    -0.493    23.635     6.518
  1036   7 N      2.688    -0.210    25.566     7.510
  1037   1 H      0.860     0.213     1.043     1.600
  1038   6 C      3.782     0.022    20.226     6.407
  1039   1 H      0.924     0.074     2.040     2.234
  1040   6 C      3.801    -0.081    22.048     6.685
  1041   1 H      0.924     0.065     2.139     2.287
  1042   1 H      0.925     0.079     1.987     2.205
  1043   6 C      3.839    -0.017    20.842     6.495
  1044   1 H      0.924     0.028     2.610     2.526
  1045   6 C      3.747    -0.119    22.857     6.819
  1046   1 H      0.924     0.054     2.270     2.356
  1047   1 H      0.924     0.025     2.664     2.552
  1048   1 H      0.925     0.035     2.517     2.481
  1049   6 C      3.752    -0.135    23.152     6.862
  1050   1 H      0.925     0.053     2.280     2.361
  1051   1 H      0.925     0.066     2.135     2.285
  1052   1 H      0.924     0.057     2.231     2.336
  1053   6 C      2.752     0.273    22.377     7.746
  1054   8 O      0.858    -0.505    23.890     6.553
  1055   7 N      2.699    -0.181    24.917     7.414
  1056   1 H      0.860     0.209     1.064     1.616
  1057   6 C      3.806     0.044    19.827     6.339
  1058   1 H      0.924     0.075     2.032     2.229
  1059   6 C      3.819    -0.074    21.902     6.660
  1060   1 H      0.925     0.068     2.108     2.271
  1061   1 H      0.925     0.080     1.979     2.200
  1062   6 C      2.951    -0.000    28.039     8.685
  1063   6 C      2.908    -0.028    28.689     8.783
  1064   1 H      0.926     0.016     2.794     2.614
  1065   6 C      2.894    -0.027    28.665     8.778
  1066   1 H      0.926     0.037     2.487     2.466
  1067   6 C      2.908    -0.048    29.199     8.861
  1068   1 H      0.926     0.045     2.385     2.415
  1069   6 C      2.900    -0.039    28.963     8.824
  1070   1 H      0.926     0.054     2.274     2.358
  1071   6 C      2.900    -0.042    29.054     8.838
  1072   1 H      0.926     0.049     2.338     2.391
  1073   6 C      2.757     0.277    22.311     7.735
  1074   8 O      0.859    -0.517    24.175     6.592
  1075   7 N      2.690    -0.193    25.184     7.453
  1076   1 H      0.860     0.207     1.070     1.620
  1077   6 C      3.789     0.034    20.017     6.372
  1078   1 H      0.925     0.096     1.818     2.109
  1079   6 C      3.806    -0.105    22.500     6.753
  1080   1 H      0.924     0.078     1.997     2.210
  1081   1 H      0.925     0.087     1.909     2.161
  1082   6 C      2.744     0.296    21.985     7.677
  1083   8 O      0.866    -0.480    23.349     6.479
  1084   7 N      2.643    -0.298    27.685     7.815
  1085   1 H      0.860     0.249     0.887     1.475
  1086   1 H      0.860     0.233     0.950     1.527
  1087   6 C      2.758     0.281    22.242     7.723
  1088   8 O      0.860    -0.491    23.588     6.512
  1089   7 N      2.686    -0.183    24.976     7.422
  1090   1 H      0.860     0.202     1.094     1.638
  1091   6 C      3.800     0.024    20.178     6.396
  1092   1 H      0.925     0.078     1.995     2.209
  1093   6 C      3.807    -0.063    21.711     6.633
  1094   1 H      0.924     0.071     2.080     2.255
  1095   1 H      0.925     0.060     2.200     2.319
  1096   6 C      3.803    -0.108    22.566     6.763
  1097   1 H      0.925     0.090     1.882     2.145
  1098   1 H      0.924     0.056     2.250     2.346
  1099   6 C      2.739     0.277    22.315     7.734
  1100   8 O      0.862    -0.504    23.872     6.551
  1101   7 N      2.642    -0.272    27.033     7.722
  1102   1 H      0.860     0.250     0.885     1.474
  1103   1 H      0.860     0.234     0.949     1.526
  1104   6 C      2.768     0.277    22.323     7.738
  1105   8 O      0.861    -0.478    23.305     6.473
  1106   7 N      2.695    -0.170    24.687     7.379
  1107   1 H      0.860     0.200     1.108     1.649
  1108   6 C      3.814     0.047    19.778     6.330
  1109   1 H      0.925     0.088     1.898     2.154
  1110   6 C      3.815    -0.087    22.151     6.699
  1111   1 H      0.924     0.036     2.503     2.474
  1112   1 H      0.924     0.039     2.458     2.452
  1113   6 C      2.690     0.365    20.816     7.467
  1114   8 O      0.858    -0.593    25.937     6.828
  1115   8 O      0.858    -0.651    27.404     7.019
  1116   6 C      2.752     0.263    22.563     7.778
  1117   8 O      0.859    -0.493    23.625     6.517
  1118   7 N      2.679    -0.200    25.351     7.478
  1119   1 H      0.860     0.209     1.063     1.615
  1120   6 C      3.764     0.014    20.375     6.434
  1121   1 H      0.925     0.088     1.898     2.155
  1122   6 C      3.836    -0.016    20.841     6.495
  1123   1 H      0.925     0.049     2.337     2.391
  1124   6 C      3.758    -0.128    23.014     6.839
  1125   1 H      0.924     0.053     2.278     2.360
  1126   1 H      0.924     0.075     2.033     2.230
  1127   1 H      0.925     0.064     2.152     2.294
  1128   6 C      3.760    -0.116    22.778     6.804
  1129   1 H      0.925     0.062     2.181     2.309
  1130   1 H      0.925     0.027     2.627     2.535
  1131   1 H      0.924     0.051     2.312     2.378
  1132   6 C      2.751     0.264    22.549     7.776
  1133   8 O      0.858    -0.495    23.673     6.523
  1134   7 N      2.684    -0.184    24.982     7.423
  1135   1 H      0.860     0.198     1.118     1.656
  1136   6 C      3.799     0.045    19.818     6.339
  1137   1 H      0.925     0.093     1.850     2.127
  1138   6 C      3.808    -0.085    22.114     6.694
  1139   1 H      0.924     0.028     2.620     2.531
  1140   1 H      0.924     0.059     2.214     2.327
  1141   6 C      2.690     0.357    20.944     7.490
  1142   8 O      0.856    -0.638    27.061     6.974
  1143   8 O      0.856    -0.609    26.342     6.881
  1144   6 C      2.751     0.275    22.346     7.741
  1145   8 O      0.868    -0.501    23.807     6.542
  1146   7 N      2.693    -0.157    24.386     7.334
  1147   1 H      0.860     0.183     1.195     1.713
  1148   6 C      3.786     0.019    20.269     6.413
  1149   1 H      0.925     0.095     1.831     2.116
  1150   6 C      3.754    -0.138    23.212     6.870
  1151   1 H      0.925     0.085     1.929     2.172
  1152   1 H      0.924     0.057     2.239     2.340
  1153   1 H      0.925     0.077     2.008     2.216
  1154   6 C      2.747     0.268    22.482     7.764
  1155   8 O      0.857    -0.472    23.164     6.453
  1156   7 N      2.684    -0.181    24.928     7.415
  1157   1 H      0.860     0.202     1.094     1.638
  1158   6 C      3.790     0.023    20.192     6.400
  1159   1 H      0.924     0.076     2.019     2.222
  1160   6 C      3.751    -0.119    22.847     6.817
  1161   1 H      0.925     0.061     2.184     2.311
[...]
  2293  C   3.962        C 2295 0.977    C 2313 0.973    N 2291 0.951    H 2294 0.945
  2294  H   0.989        C 2293 0.945
  2295  C   3.988        C 2298 1.011    C 2293 0.977    H 2296 0.970    H 2297 0.964
  2296  H   0.996        C 2295 0.970
  2297  H   0.992        C 2295 0.964
  2298  C   3.990        C 2295 1.011    C 2301 0.992    H 2300 0.968    H 2299 0.963
  2299  H   0.997        C 2298 0.963
  2300  H   0.996        C 2298 0.968
  2301  C   3.931        C 2298 0.992    H 2303 0.965    H 2302 0.964    N 2304 0.953
  2302  H   0.988        C 2301 0.964
  2303  H   0.994        C 2301 0.965
  2304  N   3.431        C 2306 1.313    C 2301 0.953    H 2305 0.902    N 2310 0.105
  2305  H   0.944        N 2304 0.902
  2306  C   3.975        N 2310 1.322    N 2304 1.313    N 2307 1.313
  2307  N   3.379        C 2306 1.313    H 2309 0.914    H 2308 0.895    N 2310 0.100
  2308  H   0.949        N 2307 0.895
  2309  H   0.948        N 2307 0.914
  2310  N   3.381        C 2306 1.322    H 2311 0.918    H 2312 0.846    N 2304 0.105    N 2307 0.100
  2311  H   0.953        N 2310 0.918
  2312  H   0.925        N 2310 0.846
  2313  C   3.960        O 2314 1.602    N 2315 1.313    C 2293 0.973
  2314  O   1.932        C 2313 1.602    N 2315 0.202
  2315  N   3.474        C 2313 1.313    C 2317 0.964    H 2316 0.900    O 2314 0.202
  2316  H   0.952        N 2315 0.900
  2317  C   3.953        C 2319 0.996    N 2315 0.964    H 2318 0.951    C 2323 0.936
  2318  H   0.992        C 2317 0.951
  2319  C   3.978        C 2317 0.996    H 2322 0.978    H 2321 0.977    H 2320 0.974
  2320  H   0.995        C 2319 0.974
  2321  H   0.995        C 2319 0.977
  2322  H   0.994        C 2319 0.978
  2323  C   3.949        O 2324 1.612    N 2325 1.325    C 2317 0.936
  2324  O   1.931        C 2323 1.612    N 2325 0.193
  2325  N   3.462        C 2323 1.325    C 2327 0.952    H 2326 0.902    O 2324 0.193
  2326  H   0.947        N 2325 0.902
  2327  C   3.953        C 2329 1.004    N 2325 0.952    H 2328 0.950    C 2345 0.923
  2328  H   0.990        C 2327 0.950
  2329  C   3.983        C 2327 1.004    C 2332 0.990    H 2330 0.968    H 2331 0.961
  2330  H   0.993        C 2329 0.968
  2331  H   0.994        C 2329 0.961
  2332  C   3.985        C 2335 1.009    C 2329 0.990    H 2334 0.973    H 2333 0.969
  2333  H   0.996        C 2332 0.969
  2334  H   0.994        C 2332 0.973
  2335  C   3.981        C 2332 1.009    C 2338 0.999    H 2336 0.971    H 2337 0.964
  2336  H   0.991        C 2335 0.971
  2337  H   0.994        C 2335 0.964
  2338  C   3.903        C 2335 0.999    H 2339 0.968    H 2340 0.963    N 2341 0.943
  2339  H   0.987        C 2338 0.968
  2340  H   0.985        C 2338 0.963
  2341  N   3.641        C 2338 0.943    H 2342 0.897    H 2344 0.891    H 2343 0.889
  2342  H   0.909        N 2341 0.897
  2343  H   0.907        N 2341 0.889
  2344  H   0.913        N 2341 0.891
  2345  C   3.940        O 2346 1.595    N 2347 1.334    C 2327 0.923
  2346  O   1.944        C 2345 1.595    N 2347 0.193
  2347  N   3.490        C 2345 1.334    C 2349 0.980    H 2348 0.904    O 2346 0.193
  2348  H   0.949        N 2347 0.904
  2349  C   3.964        C 2351 0.980    N 2347 0.980    H 2350 0.951    C 2369 0.931
  2350  H   0.992        C 2349 0.951
  2351  C   3.980        C 2354 0.992    C 2349 0.980    H 2353 0.971    H 2352 0.967
  2352  H   0.995        C 2351 0.967
  2353  H   0.995        C 2351 0.971
  2354  C   3.987        C 2357 1.012    C 2351 0.992    H 2355 0.968    H 2356 0.965
  2355  H   0.992        C 2354 0.968
  2356  H   0.994        C 2354 0.965
  2357  C   3.949        C 2354 1.012    N 2360 0.970    H 2359 0.964    H 2358 0.958
  2358  H   0.992        C 2357 0.958
  2359  H   0.994        C 2357 0.964
  2360  N   3.462        C 2362 1.319    C 2357 0.970    H 2361 0.900    N 2366 0.106
  2361  H   0.950        N 2360 0.900
  2362  C   3.978        N 2366 1.339    N 2360 1.319    N 2363 1.294
  2363  N   3.364        C 2362 1.294    H 2365 0.914    H 2364 0.908    N 2366 0.103
  2364  H   0.939        N 2363 0.908
  2365  H   0.939        N 2363 0.914
  2366  N   3.406        C 2362 1.339    H 2367 0.914    H 2368 0.864    N 2360 0.106    N 2363 0.103
  2367  H   0.942        N 2366 0.914
  2368  H   0.945        N 2366 0.864
  2369  C   3.945        O 2370 1.584    N 2371 1.332    C 2349 0.931
  2370  O   1.960        C 2369 1.584    N 2371 0.191
  2371  N   3.489        C 2369 1.332    C 2373 0.973    H 2372 0.915    O 2370 0.191
  2372  H   0.953        N 2371 0.915
  2373  C   3.955        N 2371 0.973    H 2374 0.954    C 2385 0.952    C 2375 0.944
  2374  H   0.994        C 2373 0.954
  2375  C   3.981        C 2381 1.020    C 2377 0.997    H 2376 0.963    C 2373 0.944
  2376  H   0.995        C 2375 0.963
  2377  C   3.987        C 2375 0.997    H 2380 0.984    H 2379 0.981    H 2378 0.980
  2378  H   0.997        C 2377 0.980
  2379  H   0.996        C 2377 0.981
  2380  H   0.998        C 2377 0.984
  2381  C   3.991        C 2375 1.020    H 2382 0.980    H 2383 0.979    H 2384 0.978
  2382  H   0.998        C 2381 0.980
  2383  H   0.998        C 2381 0.979
  2384  H   0.996        C 2381 0.978
  2385  C   3.951        O 2386 1.630    N 2387 1.293    C 2373 0.952
  2386  O   1.951        C 2385 1.630    N 2387 0.199
  2387  N   3.443        C 2385 1.293    C 2389 0.945    H 2388 0.911    O 2386 0.199
  2388  H   0.953        N 2387 0.911
  2389  C   3.951        C 2391 0.965    C 2404 0.953    H 2390 0.950    N 2387 0.945
  2390  H   0.991        C 2389 0.950
  2391  C   3.983        C 2397 0.998    C 2393 0.996    H 2392 0.965    C 2389 0.965
  2392  H   0.997        C 2391 0.965
  2393  C   3.986        C 2391 0.996    H 2394 0.985    H 2395 0.982    H 2396 0.977
  2394  H   0.999        C 2393 0.985
  2395  H   0.994        C 2393 0.982
  2396  H   0.998        C 2393 0.977
  2397  C   3.986        C 2400 1.007    C 2391 0.998    H 2399 0.974    H 2398 0.967
  2398  H   0.997        C 2397 0.967
  2399  H   0.997        C 2397 0.974
  2400  C   3.988        C 2397 1.007    H 2401 0.986    H 2403 0.981    H 2402 0.981
  2401  H   0.998        C 2400 0.986
  2402  H   0.998        C 2400 0.981
  2403  H   0.998        C 2400 0.981
  2404  C   3.946        O 2405 1.588    N 2406 1.329    C 2389 0.953
  2405  O   1.943        C 2404 1.588    N 2406 0.198
  2406  N   3.474        C 2404 1.329    C 2408 0.960    H 2407 0.885    O 2405 0.198
  2407  H   0.942        N 2406 0.885
  2408  C   3.960        C 2410 0.963    N 2406 0.960    H 2409 0.948    C 2418 0.937
  2409  H   0.989        C 2408 0.948
  2410  C   3.968        C 2412 1.012    O 2416 0.994    C 2408 0.963    H 2411 0.962
  2411  H   0.999        C 2410 0.962
  2412  C   3.987        C 2410 1.012    H 2414 0.981    H 2415 0.977    H 2413 0.973
  2413  H   0.999        C 2412 0.973
  2414  H   0.998        C 2412 0.981
  2415  H   0.994        C 2412 0.977
  2416  O   1.935        C 2410 0.994    H 2417 0.867
  2417  H   0.882        O 2416 0.867
  2418  C   3.949        O 2419 1.597    N 2420 1.335    C 2408 0.937
  2419  O   1.965        C 2418 1.597    N 2420 0.197
  2420  N   3.483        C 2418 1.335    C 2422 0.943    H 2421 0.918    O 2419 0.197
  2421  H   0.959        N 2420 0.918
  2422  C   3.948        C 2424 0.972    H 2423 0.948    N 2420 0.943    C 2432 0.937
  2423  H   0.990        C 2422 0.948
  2424  C   3.958        C 2426 0.993    O 2430 0.992    C 2422 0.972    H 2425 0.959
  2425  H   0.998        C 2424 0.959
  2426  C   3.986        C 2424 0.993    H 2428 0.982    H 2429 0.982    H 2427 0.978
  2427  H   0.996        C 2426 0.978
  2428  H   0.995        C 2426 0.982
  2429  H   0.997        C 2426 0.982
  2430  O   1.923        C 2424 0.992    H 2431 0.815
  2431  H   0.885        O 2430 0.815
  2432  C   3.956        O 2433 1.572    N 2434 1.363    C 2422 0.937
  2433  O   1.893        C 2432 1.572    N 2434 0.195
  2434  N   3.516        C 2432 1.363    C 2436 0.968    H 2435 0.901    O 2433 0.195
  2435  H   0.954        N 2434 0.901
  2436  C   3.948        C 2438 0.982    N 2434 0.968    H 2437 0.938    C 2452 0.915
  2437  H   0.987        C 2436 0.938
  2438  C   3.982        C 2441 0.990    C 2436 0.982    H 2440 0.971    H 2439 0.960
  2439  H   0.993        C 2438 0.960
  2440  H   0.995        C 2438 0.971
  2441  C   3.980        C 2450 1.417    C 2442 1.411    C 2438 0.990    C 2446 0.112
  2442  C   3.987        C 2444 1.429    C 2441 1.411    H 2443 0.965    C 2448 0.124
  2443  H   0.999        C 2442 0.965
  2444  C   3.991        C 2446 1.470    C 2442 1.429    H 2445 0.963
  2445  H   0.999        C 2444 0.963
  2446  C   3.990        C 2444 1.470    C 2448 1.406    H 2447 0.969    C 2441 0.112
  2447  H   0.998        C 2446 0.969
  2448  C   3.987        C 2450 1.457    C 2446 1.406    H 2449 0.966    C 2442 0.124
  2449  H   0.996        C 2448 0.966
  2450  C   3.988        C 2448 1.457    C 2441 1.417    H 2451 0.962
  2451  H   0.997        C 2450 0.962
  2452  C   3.942        O 2453 1.584    N 2454 1.341    C 2436 0.915
  2453  O   1.941        C 2452 1.584    N 2454 0.186
  2454  N   3.502        C 2452 1.341    C 2456 0.992    H 2455 0.892    O 2453 0.186
  2455  H   0.952        N 2454 0.892
  2456  C   3.959        N 2454 0.992    C 2458 0.962    C 2476 0.946    H 2457 0.944
  2457  H   0.990        C 2456 0.944
  2458  C   3.983        C 2461 0.999    H 2459 0.975    H 2460 0.971    C 2456 0.962
  2459  H   0.996        C 2458 0.975
  2460  H   0.994        C 2458 0.971
  2461  C   3.986        C 2464 1.005    C 2458 0.999    H 2462 0.973    H 2463 0.971
  2462  H   0.997        C 2461 0.973
  2463  H   0.994        C 2461 0.971
  2464  C   3.942        C 2461 1.005    H 2465 0.969    H 2466 0.961    N 2467 0.960
  2465  H   0.992        C 2464 0.969
  2466  H   0.991        C 2464 0.961
  2467  N   3.501        C 2469 1.377    C 2464 0.960    H 2468 0.889    N 2473 0.106    N 2470 0.105
  2468  H   0.944        N 2467 0.889
  2469  C   3.976        N 2467 1.377    N 2473 1.290    N 2470 1.282
  2470  N   3.359        C 2469 1.282    H 2472 0.919    H 2471 0.919    N 2467 0.105
  2471  H   0.941        N 2470 0.919
  2472  H   0.941        N 2470 0.919
  2473  N   3.370        C 2469 1.290    H 2474 0.918    H 2475 0.906    N 2467 0.106
  2474  H   0.943        N 2473 0.918
  2475  H   0.946        N 2473 0.906
  2476  C   3.951        O 2477 1.574    N 2478 1.351    C 2456 0.946
  2477  O   1.889        C 2476 1.574    N 2478 0.191
  2478  N   3.490        C 2476 1.351    C 2480 0.968    H 2479 0.873    O 2477 0.191
  2479  H   0.941        N 2478 0.873
  2480  C   3.961        N 2478 0.968    C 2482 0.958    H 2481 0.950    C 2490 0.928
  2481  H   0.991        C 2480 0.950
  2482  C   3.962        C 2484 0.995    O 2488 0.994    H 2483 0.965    C 2480 0.958
  2483  H   0.998        C 2482 0.965
  2484  C   3.986        C 2482 0.995    H 2485 0.985    H 2487 0.983    H 2486 0.975
  2485  H   0.998        C 2484 0.985
  2486  H   0.995        C 2484 0.975
  2487  H   0.997        C 2484 0.983
  2488  O   1.941        C 2482 0.994    H 2489 0.838
  2489  H   0.889        O 2488 0.838
  2490  C   3.956        O 2491 1.637    N 2492 1.310    C 2480 0.928
  2491  O   1.955        C 2490 1.637    N 2492 0.198
  2492  N   3.476        C 2490 1.310    C 2494 0.985    H 2493 0.912    O 2491 0.198
  2493  H   0.956        N 2492 0.912
  2494  C   3.951        N 2492 0.985    H 2495 0.955    C 2497 0.948    H 2496 0.943
  2495  H   0.990        C 2494 0.955
  2496  H   0.986        C 2494 0.943
  2497  C   3.949        O 2498 1.679    N 2499 1.260    C 2494 0.948
  2498  O   1.986        C 2497 1.679    N 2499 0.196
  2499  N   3.442        C 2497 1.260    C 2501 0.991    H 2500 0.913    O 2498 0.196
  2500  H   0.957        N 2499 0.913
  2501  C   3.971        N 2499 0.991    C 2503 0.957    H 2502 0.948    C 2511 0.912
  2502  H   0.993        C 2501 0.948
  2503  C   3.939        C 2505 1.013    H 2504 0.962    C 2501 0.957    O 2509 0.941
  2504  H   0.997        C 2503 0.962
  2505  C   3.980        C 2503 1.013    H 2508 0.979    H 2507 0.976    H 2506 0.972
  2506  H   0.993        C 2505 0.972
  2507  H   0.996        C 2505 0.976
  2508  H   0.994        C 2505 0.979
  2509  O   1.946        C 2503 0.941    H 2510 0.876
  2510  H   0.895        O 2509 0.876
  2511  C   3.953        O 2512 1.688    N 2513 1.274    C 2501 0.912
  2512  O   2.024        C 2511 1.688    N 2513 0.202
  2513  N   3.450        C 2511 1.274    C 2515 0.963    H 2514 0.918    O 2512 0.202
  2514  H   0.953        N 2513 0.918
  2515  C   3.948        C 2517 0.982    N 2513 0.963    H 2516 0.933    C 2535 0.914
  2516  H   0.989        C 2515 0.933
  2517  C   3.977        C 2520 1.012    C 2515 0.982    H 2519 0.963    H 2518 0.950
  2518  H   0.994        C 2517 0.950
  2519  H   0.993        C 2517 0.963
  2520  C   3.968        C 2521 1.615    C 2534 1.151    C 2517 1.012
  2521  C   3.955        C 2520 1.615    N 2523 1.196    H 2522 0.962
  2522  H   0.994        C 2521 0.962
  2523  N   3.553        C 2525 1.197    C 2521 1.196    H 2524 0.924
  2524  H   0.958        N 2523 0.924
  2525  C   3.970        C 2526 1.369    C 2534 1.214    N 2523 1.197
  2526  C   3.983        C 2528 1.446    C 2525 1.369    H 2527 0.962    C 2532 0.108
  2527  H   0.996        C 2526 0.962
  2528  C   3.989        C 2526 1.446    C 2530 1.414    H 2529 0.967
  2529  H   0.999        C 2528 0.967
  2530  C   3.987        C 2532 1.444    C 2528 1.414    H 2531 0.963
  2531  H   1.000        C 2530 0.963
  2532  C   3.992        C 2530 1.444    C 2534 1.398    H 2533 0.967    C 2526 0.108
  2533  H   1.000        C 2532 0.967
  2534  C   3.981        C 2532 1.398    C 2525 1.214    C 2520 1.151
  2535  C   3.929        O 2536 1.580    N 2537 1.338    C 2515 0.914
  2536  O   1.956        C 2535 1.580    N 2537 0.185
  2537  N   3.481        C 2535 1.338    C 2539 0.977    H 2538 0.892    O 2536 0.185
  2538  H   0.949        N 2537 0.892
  2539  C   3.967        C 2541 0.986    N 2537 0.977    H 2540 0.955    C 2547 0.904
  2540  H   0.998        C 2539 0.955
  2541  C   3.989        C 2539 0.986    H 2542 0.971    H 2543 0.964    C 2544 0.933
  2542  H   0.999        C 2541 0.971
  2543  H   0.997        C 2541 0.964
  2544  C   3.935        O 2545 1.512    O 2546 1.472    C 2541 0.933
  2545  O   1.803        C 2544 1.512    O 2546 0.222
  2546  O   1.763        C 2544 1.472    O 2545 0.222
  2547  C   3.942        O 2548 1.629    N 2549 1.330    C 2539 0.904
  2548  O   1.942        C 2547 1.629    N 2549 0.192
  2549  N   3.470        C 2547 1.330    C 2551 0.955    H 2550 0.917    O 2548 0.192
  2550  H   0.950        N 2549 0.917
  2551  C   3.950        C 2553 1.002    N 2549 0.955    H 2552 0.944    C 2557 0.929
  2552  H   0.995        C 2551 0.944
  2553  C   3.975        C 2551 1.002    H 2554 0.980    H 2555 0.979    H 2556 0.972
  2554  H   0.994        C 2553 0.980
  2555  H   0.993        C 2553 0.979
  2556  H   0.991        C 2553 0.972
  2557  C   3.948        O 2558 1.613    N 2559 1.326    C 2551 0.929
  2558  O   1.925        C 2557 1.613    N 2559 0.194
  2559  N   3.481        C 2557 1.326    C 2561 0.969    H 2560 0.899    O 2558 0.194
  2560  H   0.957        N 2559 0.899
  2561  C   3.953        C 2563 0.971    N 2559 0.969    H 2562 0.960    C 2578 0.904
  2562  H   0.996        C 2561 0.960
  2563  C   3.984        C 2566 1.007    C 2561 0.971    H 2565 0.966    H 2564 0.960
  2564  H   0.997        C 2563 0.960
  2565  H   0.997        C 2563 0.966
  2566  C   3.977        C 2567 1.404    C 2576 1.365    C 2563 1.007    C 2571 0.109
  2567  C   3.989        C 2569 1.463    C 2566 1.404    H 2568 0.966
  2568  H   0.997        C 2567 0.966
  2569  C   3.983        C 2567 1.463    C 2571 1.359    H 2570 0.960
  2570  H   0.995        C 2569 0.960
  2571  C   3.941        C 2569 1.359    C 2574 1.305    O 2572 1.122    C 2566 0.109
  2572  O   2.147        C 2571 1.122    H 2573 0.825
  2573  H   0.885        O 2572 0.825
  2574  C   3.985        C 2576 1.511    C 2571 1.305    H 2575 0.962
  2575  H   0.998        C 2574 0.962
  2576  C   3.986        C 2574 1.511    C 2566 1.365    H 2577 0.960
  2577  H   0.999        C 2576 0.960
  2578  C   3.942        O 2579 1.576    N 2580 1.386    C 2561 0.904
  2579  O   1.891        C 2578 1.576    N 2580 0.203
  2580  N   3.498        C 2578 1.386    C 2582 0.938    H 2581 0.879    O 2579 0.203
  2581  H   0.946        N 2580 0.879
  2582  C   3.943        C 2584 0.977    H 2583 0.960    C 2600 0.944    N 2580 0.938
  2583  H   0.999        C 2582 0.960
  2584  C   3.981        C 2587 0.993    H 2585 0.981    C 2582 0.977    H 2586 0.972
  2585  H   0.999        C 2584 0.981
  2586  H   0.995        C 2584 0.972
  2587  C   3.983        C 2590 0.996    C 2584 0.993    H 2589 0.981    H 2588 0.978
  2588  H   0.994        C 2587 0.978
  2589  H   0.999        C 2587 0.981
  2590  C   3.977        C 2593 1.015    C 2587 0.996    H 2592 0.967    H 2591 0.965
  2591  H   0.992        C 2590 0.965
  2592  H   0.985        C 2590 0.967
  2593  C   3.909        C 2590 1.015    H 2594 0.969    H 2595 0.961    N 2596 0.943
  2594  H   0.990        C 2593 0.969
  2595  H   0.982        C 2593 0.961
  2596  N   3.651        C 2593 0.943    H 2597 0.903    H 2598 0.896    H 2599 0.887
  2597  H   0.922        N 2596 0.903
  2598  H   0.909        N 2596 0.896
  2599  H   0.905        N 2596 0.887
  2600  C   3.936        O 2602 1.481    O 2601 1.480    C 2582 0.944
  2601  O   1.777        C 2600 1.480    O 2602 0.223
  2602  O   1.772        C 2600 1.481    O 2601 0.223
  2603  C   3.987        C 2605 1.453    C 2613 1.396    H 2604 0.964    C 2609 0.115
  2604  H   0.998        C 2603 0.964
  2605  C   3.988        C 2603 1.453    C 2607 1.408    H 2606 0.972    C 2611 0.120
  2606  H   0.998        C 2605 0.972
  2607  C   3.986        C 2609 1.476    C 2605 1.408    H 2608 0.968
  2608  H   0.999        C 2607 0.968
  2609  C   3.991        C 2607 1.476    C 2611 1.394    H 2610 0.967    C 2603 0.115
  2610  H   0.999        C 2609 0.967
  2611  C   3.990        C 2613 1.453    C 2609 1.394    H 2612 0.954    C 2605 0.120
  2612  H   0.999        C 2611 0.954
  2613  C   3.991        C 2611 1.453    C 2603 1.396    C 2614 1.013
  2614  C   3.994        C 2613 1.013    H 2615 0.982    H 2617 0.976    H 2616 0.968
  2615  H   0.997        C 2614 0.982
  2616  H   0.997        C 2614 0.968
  2617  H   0.997        C 2614 0.976

molecular dipole:
                 x           y           z       tot (Debye)
 q only:      640.325     657.398     684.773
   full:      642.782     657.723     690.072    2922.420
molecular quadrupole (traceless):
                xx          xy          yy          xz          yz          zz
 q only:    -6553.744   74682.781    2312.264   78923.593   81542.572    4241.480
  q+dip:    -6586.543   74615.352    1575.325   79650.467   82040.506    5011.219
   full:    -6571.721   74614.319    1549.198   79658.034   82035.875    5022.523


           -------------------------------------------------
          | TOTAL ENERGY            -4104.347109210638 Eh   |
          | GRADIENT NORM               1.322615945597 Eh/α |
          | HOMO-LUMO GAP               1.730987808995 eV   |
           -------------------------------------------------

------------------------------------------------------------------------
 * finished run on 2020/07/25 at 02:51:00.385     
------------------------------------------------------------------------
 total:
 * wall-time:     0 d,  0 h,  7 min, 18.181 sec
 *  cpu-time:     0 d,  5 h, 29 min, 32.376 sec
 * ratio c/w:    45.124 speedup
 SCF:
 * wall-time:     0 d,  0 h,  6 min, 50.009 sec
 *  cpu-time:     0 d,  5 h, 21 min,  0.771 sec
 * ratio c/w:    46.976 speedup

