      -----------------------------------------------------------      
     |                   =====================                   |     
     |                           x T B                           |     
     |                   =====================                   |     
     |                         S. Grimme                         |     
     |          Mulliken Center for Theoretical Chemistry        |     
     |                    University of Bonn                     |     
      -----------------------------------------------------------      

   * xtb version 6.2.3 (d7bf61a) compiled by 'conda@06d140edd85e' on 2020-05-12

   xtb is free software: you can redistribute it and/or modify it under
   the terms of the GNU Lesser General Public License as published by
   the Free Software Foundation, either version 3 of the License, or
   (at your option) any later version.
   
   xtb is distributed in the hope that it will be useful,
   but WITHOUT ANY WARRANTY; without even the implied warranty of
   MERCHANTABILITY or FITNESS FOR A PARTICULAR PURPOSE.  See the
   GNU Lesser General Public License for more details.
   
   Cite this work as:
   * S. Grimme, C. Bannwarth, P. Shushkov, J. Chem. Theory Comput., 2017,
     13, 1989-2009. DOI: 10.1021/acs.jctc.7b00118
   * C. Bannwarth, S. Ehlert and S. Grimme., J. Chem. Theory Comput., 2019,
     15, 1652-1671. DOI: 10.1021/acs.jctc.8b01176
   * P. Pracht, E. Caldeweyher, S. Ehlert, S. Grimme, ChemRxiv, 2019, preprint.
     DOI: 10.26434/chemrxiv.8326202.v1
   
   for DFT-D4:
   * E. Caldeweyher, C. Bannwarth and S. Grimme, J. Chem. Phys., 2017,
     147, 034112. DOI: 10.1063/1.4993215
   * E. Caldeweyher, S. Ehlert, A. Hansen, H. Neugebauer, S. Spicher,
     C. Bannwarth and S. Grimme, J. Chem. Phys., 2019, 150, 154122.
     DOI: 10.1063/1.5090222
   
   for sTDA-xTB:
   * S. Grimme and C. Bannwarth, J. Chem. Phys., 2016, 145, 054103.
     DOI: 10.1063/1.4959605
   
   in the mass-spec context:
   * V. Asgeirsson, C. Bauer and S. Grimme, Chem. Sci., 2017, 8, 4879.
     DOI: 10.1039/c7sc00601b
   
   for metadynamics refer to:
   * S. Grimme, J. Chem. Theory Comput., 2019, 155, 2847-2862
     DOI: 10.1021/acs.jctc.9b00143
   
   with help from (in alphabetical order)
   C. Bannwarth, F. Bohle, G. Brandenburg, E. Caldeweyher, M. Checinski,
   S. Dohm, S. Ehlert, S. Ehrlich, F. März, H. Neugebauer, J. Pisarek,
   P. Pracht, P. Shushkov, and S. Spicher.
   
 * started run on 2020/07/25 at 04:43:47.238     

           -------------------------------------------------
          |                Calculation Setup                |
           -------------------------------------------------

          program call               : xtb complex_18341.xyz --chrg +9 --uhf 0 --gbsa water
          hostname                   : gold54.cluster.local
          coordinate file            : complex_18341.xyz
          omp threads                :                    64
          number of atoms            :                  2617
          number of electrons        :                  7228
          charge                     :                     9
          spin                       :                   0.0
          first test random number   :      0.18385321066897


molecular fragmentation (1/2 indicates fragments):
111111111111111111111111111111111111111111111111111111111111111111111111
111111111111111111111111111111111111111111111111111111111111111111111111
111111111111111111111111111111111111111111111111111111111111111111111111
111111111111111111111111111111111111111111111111111111111111111111111111
111111111111111111111111111111111111111111111111111111111111111111111111
111111111111111111111111111111111111111111111111111111111111111111111111
111111111111111111111111111111111111111111111111111111111111111111111111
111111111111111111111111111111111111111111111111111111111111111111111111
111111111111111111111111111111111111111111111111111111111111111111111111
111111111111111111111111111111111111111111111111111111111111111111111111
111111111111111111111111111111111111111111111111111111111111111111111111
111111111111111111111111111111111111111111111111111111111111111111111111
111111111111111111111111111111111111111111111111111111111111111111111111
111111111111111111111111111111111111111111111111111111111111111111111111
111111111111111111111111111111111111111111111111111111111111111111111111
111111111111111111111111111111111111111111111111111111111111111111111111
111111111111111111111111111111111111111111111111111111111111111111111111
111111111111111111111111111111111111111111111111111111111111111111111111
111111111111111111111111111111111111111111111111111111111111111111111111
111111111111111111111111111111111111111111111111111111111111111111111111
111111111111111111111111111111111111111111111111111111111111111111111111
111111111111111111111111111111111111111111111111111111111111111111111111
111111111111111111111111111111111111111111111111111111111111111111111111
111111111111111111111111111111111111111111111111111111111111111111111111
111111111111111111111111111111111111111111111111111111111111111111111111
111111111111111111111111111111111111111111111111111111111111111111111111
111111111111111111111111111111111111111111111111111111111111111111111111
111111111111111111111111111111111111111111111111111111111111111111111111
111111111111111111111111111111111111111111111111111111111111111111111111
111111111111111111111111111111111111111111111111111111111111111111111111
111111111111111111111111111111111111111111111111111111111111111111111111
111111111111111111111111111111111111111111111111111111111111111111111111
111111111111111111111111111111111111111111111111111111111111111111111111
111111111111111111111111111111111111111111111111111111111111111111111111
111111111111111111111111111111111111111111111111111111111111111111111111
111111111111111111111111111111111111111111111111111111111111111111111111
1111111111222222222222222
# atoms in fragment 1/2:  2602    15
 fragment masses (1/2) :    18371.93       92.14
CMA distance (Bohr)    :  20.840
constraining FC (au)   :  0.0500
########################################################################
[WARNING] Please study the warnings concerning your input carefully
-2- prog_main: XTBPATH is not set, using XTBHOME instead
-1- prog_main: XTBHOME is not set, using HOME instead
########################################################################
           ------------------------------------------------- 
          |                 G F N 2 - x T B                 |
          | Geometry, Frequencies, Noncovalent interactions |
          |            JCTC 2019 parametrisation            |
           ------------------------------------------------- 
             k(s)              :                1.8500
             k(p)              :                2.2300
             k(d)              :                2.2300
             k(f)              :                2.0000
             kEN (H0ij)        :               -2.0000
             D4 a1             :                0.5200
             D4 a2             :                5.0000
             D4 s6             :                1.0000
             D4 s8             :                2.7000
             D4 s9             :                5.0000
             alphaj            :                2.0000

  Z AO/shell   Hii/eV     exponent
  1     Wed Apr 25 08:07:45 CEST 2018   EN: 2.200 GM2: 0.406  GM3: 0.0800  RAES: 1.40
     1s    -10.707211    1.230000
  6     Wed Apr 25 08:07:45 CEST 2018   EN: 2.550 GM2: 0.538  GM3: 0.1500  RAES: 3.00
     2s    -13.970922    2.096432
     2p    -10.063292    1.800000
  7     Wed Apr 25 08:07:45 CEST 2018   EN: 3.040 GM2: 0.461  GM3:-0.0640  RAES: 1.90
     2s    -16.686243    2.339881
     2p    -12.523956    2.014332
  8     Wed Apr 25 08:07:45 CEST 2018   EN: 3.440 GM2: 0.452  GM3:-0.0517  RAES: 1.80
     2s    -20.229985    2.439742
     2p    -15.503117    2.137023
 16     Tue Apr 24 11:44:34 CEST 2018   EN: 2.580 GM2: 0.340  GM3:-0.0502  RAES: 3.10
     3s    -20.029654    1.981333
     3p    -11.377694    2.025643
     3d     -0.420282    1.702555

 Solvent             : water
 Using internal parameter file: .param_gbsa2_water
 Gsolv ref. state (COSMO-RS): gsolv [1 M gas/solution]
 temperature (mdtemp)       :    298.14999999999998     
 dielectric constant        :    80.200000000000003     
 rho                        :    1.0000000000000000     
 mass                       :    18.000000000000000     
 surface tension            :    15.568945408385856     
 probe radius               :   0.97531378999999996     
 Gshift (Eh)                :    1.8574431267947933E-003
 c1                         :    1.5524381700000001     
 soset                      :   0.13032636000000000     
 HB correction              :  T
           ------------------------------------------------- 
          |        Self-Consistent Charge Iterations        |
           ------------------------------------------------- 

          ...................................................
          :                      SETUP                      :
          :.................................................:
          :  # basis functions                6547          :
          :  # atomic orbitals                6541          :
          :  # shells                         3921          :
          :  # electrons                      7228          :
          :  max. iterations                   250          :
          :  Hamiltonian                  GFN2-xTB          :
          :  restarted?                      false          :
          :  GBSA solvation                   true          :
          :  PC potential                    false          :
          :  electronic temp.          300.0000000     K    :
          :  accuracy                    1.0000000          :
          :  -> integral cutoff          0.2500000E+02      :
          :  -> integral neglect         0.1000000E-07      :
          :  -> SCF convergence          0.1000000E-05 Eh   :
          :  -> wf. convergence          0.1000000E-03 e    :
          :  Broyden damping             0.4000000          :
          ...................................................

 iter      E             dE          RMSdq      gap      omega  full diag
   1  -4139.3302581 -0.413933E+04  0.428E+00    2.33       0.0  T
   2  -4151.9819878 -0.126517E+02  0.226E+00    2.14       1.0  T
   3  -4152.4795455 -0.497558E+00  0.120E+00    2.17       1.0  T
   4  -4152.5449193 -0.653738E-01  0.296E-01    1.52       1.0  T
   5  -4152.6557815 -0.110862E+00  0.146E-01    1.54       1.0  T
   6  -4152.6708752 -0.150936E-01  0.760E-02    1.62       1.0  T
   7  -4152.6735085 -0.263334E-02  0.396E-02    1.63       1.0  T
   8  -4152.6746494 -0.114089E-02  0.171E-02    1.63       1.0  T
   9  -4152.6748110 -0.161572E-03  0.104E-02    1.61       1.0  T
  10  -4152.6748977 -0.867358E-04  0.545E-03    1.59       1.0  T
  11  -4152.6749206 -0.228577E-04  0.273E-03    1.58       1.0  T
  12  -4152.6749273 -0.674170E-05  0.145E-03    1.57       1.3  T
  13  -4152.6749291 -0.181079E-05  0.787E-04    1.57       2.5  T
  14  -4152.6749297 -0.542099E-06  0.390E-04    1.57       5.0  T
  15  -4152.6749298 -0.144076E-06  0.201E-04    1.57       9.7  T

   *** convergence criteria satisfied after 15 iterations ***

         #    Occupation            Energy/Eh            Energy/eV
      -------------------------------------------------------------
         1        2.0000           -0.7612238             -20.7140
       ...           ...                  ...                  ...
      3608        2.0000           -0.3600833              -9.7984
      3609        2.0000           -0.3600020              -9.7962
      3610        2.0000           -0.3571127              -9.7175
      3611        2.0000           -0.3570915              -9.7170
      3612        2.0000           -0.3551877              -9.6651
      3613        2.0000           -0.3540517              -9.6342
      3614        2.0000           -0.3449587              -9.3868 (HOMO)
      3615                         -0.2874423              -7.8217 (LUMO)
      3616                         -0.2729482              -7.4273
      3617                         -0.2722552              -7.4084
      3618                         -0.2694018              -7.3308
      3619                         -0.2677290              -7.2853
       ...                                ...                  ...
      6541                          0.7666074              20.8604
      -------------------------------------------------------------
                  HL-Gap            0.0575164 Eh            1.5651 eV
             Fermi-level           -0.3162005 Eh           -8.6043 eV

 SCC (total)                   0 d,  0 h,  6 min, 27.140 sec
 SCC setup                      ...        0 min,  3.148 sec (  0.813%)
 Dispersion                     ...        0 min,  2.026 sec (  0.523%)
 integral evaluation            ...        0 min, 10.797 sec (  2.789%)
 zeroth order Hamiltonian       ...        0 min,  0.343 sec (  0.089%)
 iterations                     ...        5 min, 52.663 sec ( 91.094%)
 molecular gradient             ...        0 min, 17.446 sec (  4.506%)
 printout                       ...        0 min,  0.717 sec (  0.185%)

         :::::::::::::::::::::::::::::::::::::::::::::::::::::
         ::                     SUMMARY                     ::
         :::::::::::::::::::::::::::::::::::::::::::::::::::::
         :: total energy           -4104.077900736313 Eh    ::
         :: total w/o Gsasa/hb     -4103.666413878619 Eh    ::
         :: gradient norm              1.400564822087 Eh/a0 ::
         :: HOMO-LUMO gap              1.565099910440 eV    ::
         ::.................................................::
         :: SCC energy             -4152.737582782666 Eh    ::
         :: -> isotropic ES           14.546258397476 Eh    ::
         :: -> anisotropic ES         -0.728208513725 Eh    ::
         :: -> anisotropic XC          1.174738654965 Eh    ::
         :: -> dispersion             -3.900195705028 Eh    ::
         :: -> Gsolv                  -4.293794260766 Eh    ::
         ::    -> Gborn               -3.882307403073 Eh    ::
         ::    -> Gsasa               -0.064510430796 Eh    ::
         ::    -> Ghb                 -0.348833870024 Eh    ::
         ::    -> Gshift               0.001857443127 Eh    ::
         :: repulsion energy          48.112216967737 Eh    ::
         :: add. restraining           0.000000000000 Eh    ::
         :::::::::::::::::::::::::::::::::::::::::::::::::::::

           -------------------------------------------------
          |                Property Printout                |
           -------------------------------------------------

    * Orbital Energies and Occupations

         #    Occupation            Energy/Eh            Energy/eV
      -------------------------------------------------------------
         1        2.0000           -0.7612238             -20.7140
       ...           ...                  ...                  ...
      3602        2.0000           -0.3649985              -9.9321
      3603        2.0000           -0.3646247              -9.9219
      3604        2.0000           -0.3623299              -9.8595
      3605        2.0000           -0.3617166              -9.8428
      3606        2.0000           -0.3613312              -9.8323
      3607        2.0000           -0.3608291              -9.8187
      3608        2.0000           -0.3600833              -9.7984
      3609        2.0000           -0.3600020              -9.7962
      3610        2.0000           -0.3571127              -9.7175
      3611        2.0000           -0.3570915              -9.7170
      3612        2.0000           -0.3551877              -9.6651
      3613        2.0000           -0.3540517              -9.6342
      3614        2.0000           -0.3449587              -9.3868 (HOMO)
      3615                         -0.2874423              -7.8217 (LUMO)
      3616                         -0.2729482              -7.4273
      3617                         -0.2722552              -7.4084
      3618                         -0.2694018              -7.3308
      3619                         -0.2677290              -7.2853
      3620                         -0.2672502              -7.2722
      3621                         -0.2638650              -7.1801
      3622                         -0.2636989              -7.1756
      3623                         -0.2620685              -7.1312
      3624                         -0.2620550              -7.1309
      3625                         -0.2600446              -7.0762
       ...                                ...                  ...
      6541                          0.7666074              20.8604
      -------------------------------------------------------------
                  HL-Gap            0.0575164 Eh            1.5651 eV
             Fermi-level           -0.3162005 Eh           -8.6043 eV

     #   Z        covCN         q      C6AA      α(0)
     1   7 N      3.489    -0.140    24.020     7.279
     2   1 H      0.860     0.311     0.682     1.293
     3   1 H      0.860     0.309     0.686     1.297
     4   1 H      0.860     0.302     0.706     1.317
     5   6 C      3.789    -0.017    20.882     6.508
     6   1 H      0.924     0.110     1.699     2.039
     7   6 C      3.814    -0.096    22.315     6.724
     8   1 H      0.925     0.105     1.737     2.061
     9   1 H      0.924     0.080     1.979     2.200
    10   6 C      3.796    -0.031    21.140     6.547
    11   1 H      0.925     0.095     1.830     2.115
    12   1 H      0.925     0.078     1.996     2.209
    13  16 S      1.954    -0.223   150.563    20.652
    14   6 C      3.747    -0.032    21.213     6.570
    15   1 H      0.926     0.050     2.314     2.379
    16   1 H      0.925     0.027     2.636     2.539
    17   1 H      0.925     0.049     2.338     2.391
    18   6 C      2.756     0.268    22.481     7.764
    19   8 O      0.860    -0.461    22.928     6.420
    20   7 N      2.692    -0.154    24.335     7.327
    21   1 H      0.860     0.219     1.014     1.578
    22   6 C      3.791     0.020    20.240     6.407
    23   1 H      0.925     0.106     1.735     2.060
    24   6 C      3.814    -0.117    22.727     6.785
    25   1 H      0.924     0.076     2.020     2.223
    26   1 H      0.924     0.114     1.660     2.015
    27   6 C      2.746     0.280    22.254     7.724
    28   8 O      0.862    -0.505    23.889     6.553
    29   7 N      2.650    -0.268    26.938     7.708
    30   1 H      0.860     0.248     0.891     1.479
    31   1 H      0.860     0.239     0.928     1.509
    32   6 C      2.757     0.255    22.717     7.805
    33   8 O      0.866    -0.532    24.509     6.638
    34   7 N      2.697    -0.151    24.262     7.316
    35   1 H      0.860     0.237     0.935     1.514
    36   6 C      3.793     0.011    20.402     6.432
    37   1 H      0.925     0.098     1.805     2.101
    38   6 C      3.850    -0.043    21.302     6.565
    39   1 H      0.924     0.079     1.991     2.207
    40   6 C      3.751    -0.132    23.096     6.854
    41   1 H      0.925     0.065     2.141     2.288
    42   1 H      0.924     0.072     2.067     2.248
    43   1 H      0.924     0.039     2.459     2.452
    44   6 C      3.793    -0.078    21.994     6.679
    45   1 H      0.924     0.040     2.452     2.449
    46   1 H      0.925     0.064     2.153     2.295
    47   6 C      3.750    -0.122    22.910     6.826
    48   1 H      0.925     0.051     2.305     2.374
    49   1 H      0.925     0.061     2.186     2.312
    50   1 H      0.924     0.030     2.586     2.515
    51   6 C      2.754     0.277    22.311     7.735
    52   8 O      0.864    -0.494    23.639     6.519
    53   7 N      2.693    -0.176    24.820     7.399
    54   1 H      0.860     0.194     1.139     1.672
    55   6 C      3.784     0.017    20.300     6.418
    56   1 H      0.925     0.103     1.757     2.073
    57   6 C      3.808    -0.077    21.955     6.670
    58   1 H      0.925     0.066     2.129     2.282
    59   1 H      0.924     0.066     2.128     2.281
    60   6 C      2.955     0.008    27.832     8.653
    61   6 C      2.911    -0.051    29.277     8.873
    62   1 H      0.926     0.060     2.196     2.317
    63   6 C      2.923    -0.032    28.801     8.801
    64   1 H      0.926     0.052     2.291     2.367
    65   6 C      2.907    -0.032    28.794     8.799
    66   1 H      0.926     0.031     2.575     2.509
    67   6 C      2.922    -0.032    28.800     8.801
    68   1 H      0.926     0.012     2.856     2.643
    69   6 C      2.911    -0.045    29.110     8.847
    70   1 H      0.926     0.041     2.429     2.437
    71   6 C      2.752     0.251    22.790     7.817
    72   8 O      0.857    -0.497    23.710     6.528
    73   7 N      2.689    -0.175    24.795     7.396
    74   1 H      0.860     0.223     0.994     1.562
    75   6 C      3.797     0.030    20.068     6.379
    76   1 H      0.924     0.087     1.908     2.160
    77   6 C      3.814    -0.065    21.726     6.634
    78   1 H      0.925     0.060     2.195     2.317
    79   1 H      0.924     0.065     2.141     2.288
    80   6 C      3.803    -0.081    22.041     6.684
    81   1 H      0.924     0.023     2.686     2.563
    82   1 H      0.924     0.016     2.789     2.611
    83   6 C      2.690     0.368    20.758     7.456
    84   8 O      0.857    -0.649    27.356     7.012
    85   8 O      0.857    -0.666    27.808     7.070
    86   6 C      2.749     0.259    22.631     7.790
    87   8 O      0.858    -0.500    23.785     6.539
    88   7 N      2.679    -0.177    24.832     7.401
    89   1 H      0.860     0.233     0.951     1.528
    90   6 C      3.784     0.019    20.273     6.414
    91   1 H      0.925     0.080     1.977     2.199
    92   6 C      3.822    -0.088    22.167     6.700
    93   1 H      0.925     0.075     2.028     2.227
    94   1 H      0.925     0.084     1.935     2.175
    95   6 C      3.792    -0.032    21.146     6.549
    96   1 H      0.925     0.066     2.130     2.282
    97   1 H      0.925     0.042     2.418     2.432
    98  16 S      1.968    -0.179   148.627    20.519
    99   6 C      3.748    -0.063    21.774     6.655
   100   1 H      0.925     0.061     2.190     2.314
   101   1 H      0.925     0.059     2.210     2.325
   102   1 H      0.925     0.058     2.225     2.333
   103   6 C      2.751     0.261    22.595     7.784
   104   8 O      0.858    -0.504    23.877     6.551
   105   7 N      2.692    -0.174    24.756     7.390
   106   1 H      0.860     0.231     0.962     1.536
   107   6 C      3.785     0.029    20.100     6.386
   108   1 H      0.925     0.085     1.925     2.170
   109   6 C      3.810    -0.083    22.068     6.687
   110   1 H      0.924     0.061     2.184     2.311
   111   1 H      0.925     0.076     2.026     2.226
   112   6 C      3.855    -0.017    20.844     6.493
   113   1 H      0.925     0.044     2.391     2.418
   114   6 C      3.767    -0.131    23.063     6.844
   115   1 H      0.925     0.063     2.159     2.298
   116   1 H      0.925     0.045     2.389     2.417
   117   1 H      0.924     0.046     2.375     2.410
   118   6 C      3.767    -0.133    23.093     6.849
   119   1 H      0.924     0.035     2.519     2.482
   120   1 H      0.925     0.051     2.309     2.376
   121   1 H      0.925     0.050     2.322     2.383
   122   6 C      2.744     0.236    23.053     7.862
   123   8 O      0.856    -0.514    24.096     6.581
   124   7 N      2.681    -0.154    24.333     7.326
   125   1 H      0.860     0.207     1.071     1.621
   126   6 C      3.784     0.015    20.339     6.424
   127   1 H      0.925     0.094     1.841     2.122
   128   6 C      3.799    -0.078    22.000     6.678
   129   1 H      0.925     0.071     2.076     2.253
   130   1 H      0.924     0.054     2.267     2.354
   131   6 C      3.800    -0.102    22.449     6.746
   132   1 H      0.924     0.094     1.842     2.123
   133   1 H      0.925     0.084     1.940     2.178
   134   6 C      3.731    -0.028    21.166     6.567
   135   1 H      0.925     0.097     1.811     2.104
   136   1 H      0.924     0.089     1.887     2.148
   137   7 N      2.716    -0.134    23.909     7.262
   138   1 H      0.860     0.218     1.019     1.581
   139   6 C      2.732     0.236    23.061     7.862
   140   7 N      2.703    -0.246    26.411     7.633
   141   1 H      0.860     0.238     0.931     1.511
   142   1 H      0.860     0.248     0.889     1.477
   143   7 N      2.681    -0.243    26.335     7.622
   144   1 H      0.860     0.241     0.918     1.501
   145   1 H      0.860     0.224     0.992     1.560
   146   6 C      2.746     0.273    22.378     7.746
   147   8 O      0.871    -0.479    23.321     6.475
   148   7 N      2.687    -0.210    25.577     7.511
   149   1 H      0.860     0.219     1.014     1.577
   150   6 C      3.781     0.016    20.319     6.422
   151   1 H      0.924     0.087     1.908     2.160
   152   6 C      3.852    -0.013    20.768     6.482
   153   1 H      0.924     0.036     2.503     2.474
   154   6 C      3.754    -0.115    22.752     6.802
   155   1 H      0.925     0.052     2.290     2.366
   156   1 H      0.924     0.051     2.309     2.376
   157   1 H      0.925     0.047     2.355     2.400
   158   6 C      3.803    -0.052    21.509     6.603
   159   1 H      0.925     0.019     2.741     2.589
   160   1 H      0.925     0.035     2.518     2.481
   161   6 C      3.751    -0.111    22.679     6.791
   162   1 H      0.924     0.041     2.437     2.441
   163   1 H      0.925     0.035     2.515     2.480
   164   1 H      0.925     0.049     2.338     2.391
   165   6 C      2.748     0.280    22.254     7.724
   166   8 O      0.859    -0.492    23.602     6.514
   167   7 N      2.681    -0.188    25.067     7.436
   168   1 H      0.860     0.203     1.088     1.634
   169   6 C      3.781     0.031    20.077     6.383
   170   1 H      0.925     0.085     1.932     2.173
   171   6 C      3.796    -0.093    22.281     6.721
   172   1 H      0.925     0.056     2.250     2.346
   173   1 H      0.924     0.067     2.116     2.275
   174   6 C      2.686     0.339    21.240     7.542
   175   8 O      0.859    -0.558    25.106     6.718
   176   8 O      0.856    -0.604    26.229     6.866
   177   6 C      2.744     0.262    22.579     7.780
   178   8 O      0.858    -0.501    23.806     6.542
   179   7 N      2.681    -0.163    24.526     7.355
   180   1 H      0.860     0.189     1.166     1.691
   181   6 C      3.780     0.014    20.362     6.429
   182   1 H      0.924     0.091     1.870     2.138
   183   6 C      3.801    -0.046    21.399     6.586
   184   1 H      0.924     0.043     2.415     2.430
   185   1 H      0.925     0.044     2.393     2.419
   186   6 C      3.798    -0.105    22.504     6.755
   187   1 H      0.924     0.025     2.654     2.548
   188   1 H      0.925     0.032     2.553     2.499
   189   6 C      2.682     0.375    20.645     7.436
   190   8 O      0.859    -0.634    26.969     6.963
   191   8 O      0.860    -0.601    26.137     6.855
   192   6 C      2.765     0.262    22.587     7.783
   193   8 O      0.858    -0.491    23.594     6.512
   194   7 N      2.681    -0.149    24.219     7.309
   195   1 H      0.860     0.211     1.054     1.608
   196   6 C      3.749    -0.035    21.262     6.576
   197   1 H      0.925     0.097     1.816     2.107
   198   1 H      0.925     0.091     1.868     2.137
   199   6 C      2.735     0.267    22.489     7.764
   200   8 O      0.857    -0.446    22.612     6.375
   201   7 N      2.677    -0.204    25.447     7.492
   202   1 H      0.860     0.207     1.071     1.621
   203   6 C      3.784     0.014    20.351     6.426
   204   1 H      0.924     0.072     2.061     2.245
   205   6 C      3.810    -0.089    22.191     6.705
   206   1 H      0.924     0.077     2.014     2.219
   207   1 H      0.924     0.058     2.227     2.334
   208   6 C      3.844    -0.025    20.997     6.518
   209   1 H      0.925     0.047     2.362     2.403
   210   6 C      3.761    -0.133    23.094     6.850
   211   1 H      0.925     0.051     2.310     2.377
   212   1 H      0.924     0.056     2.241     2.341
   213   1 H      0.925     0.040     2.451     2.448
   214   6 C      3.754    -0.144    23.327     6.887
   215   1 H      0.925     0.053     2.288     2.365
   216   1 H      0.925     0.056     2.243     2.342
   217   1 H      0.925     0.058     2.225     2.333
   218   6 C      2.763     0.262    22.581     7.782
   219   8 O      0.857    -0.487    23.506     6.500
   220   7 N      2.691    -0.152    24.279     7.318
   221   1 H      0.860     0.213     1.043     1.599
   222   6 C      3.795     0.007    20.463     6.441
   223   1 H      0.925     0.098     1.800     2.098
   224   6 C      3.790    -0.084    22.110     6.697
   225   1 H      0.925     0.080     1.980     2.201
   226   1 H      0.925     0.071     2.076     2.253
   227   6 C      3.793    -0.083    22.100     6.695
   228   1 H      0.925     0.056     2.242     2.342
   229   1 H      0.925     0.081     1.964     2.192
   230   6 C      3.736    -0.021    21.041     6.546
   231   1 H      0.925     0.097     1.817     2.108
   232   1 H      0.925     0.073     2.056     2.242
   233   7 N      2.699    -0.169    24.652     7.374
   234   1 H      0.860     0.230     0.966     1.539
   235   6 C      2.735     0.244    22.918     7.838
   236   7 N      2.684    -0.276    27.131     7.736
   237   1 H      0.860     0.234     0.948     1.525
   238   1 H      0.860     0.213     1.041     1.598
   239   7 N      2.692    -0.255    26.610     7.661
   240   1 H      0.861     0.251     0.878     1.468
   241   1 H      0.860     0.250     0.881     1.471
   242   6 C      2.748     0.262    22.587     7.782
   243   8 O      0.860    -0.486    23.482     6.497
   244   7 N      2.679    -0.182    24.952     7.419
   245   1 H      0.860     0.217     1.025     1.586
   246   6 C      3.786     0.007    20.477     6.446
   247   1 H      0.925     0.105     1.740     2.063
   248   6 C      3.801    -0.079    22.012     6.680
   249   1 H      0.925     0.085     1.930     2.173
   250   1 H      0.924     0.063     2.166     2.301
   251   6 C      3.842    -0.019    20.888     6.501
   252   1 H      0.924     0.044     2.399     2.422
   253   6 C      3.755    -0.126    22.967     6.833
   254   1 H      0.925     0.045     2.379     2.412
   255   1 H      0.924     0.049     2.336     2.390
   256   1 H      0.925     0.045     2.390     2.417
   257   6 C      3.748    -0.121    22.893     6.824
   258   1 H      0.925     0.042     2.429     2.437
   259   1 H      0.924     0.037     2.483     2.464
   260   1 H      0.925     0.033     2.540     2.492
   261   6 C      2.749     0.266    22.510     7.769
   262   8 O      0.861    -0.489    23.549     6.506
   263   7 N      2.690    -0.143    24.094     7.290
   264   1 H      0.860     0.196     1.127     1.663
   265   6 C      3.781    -0.003    20.649     6.473
   266   1 H      0.925     0.098     1.801     2.099
   267   6 C      3.790    -0.101    22.440     6.746
   268   1 H      0.925     0.085     1.924     2.169
   269   1 H      0.925     0.073     2.052     2.240
   270   6 C      3.791    -0.075    21.944     6.671
   271   1 H      0.925     0.047     2.360     2.402
   272   1 H      0.925     0.063     2.167     2.302
   273   6 C      3.793    -0.102    22.464     6.750
   274   1 H      0.925     0.078     1.999     2.211
   275   1 H      0.925     0.083     1.944     2.180
   276   6 C      3.725    -0.061    21.777     6.664
   277   1 H      0.924     0.123     1.593     1.974
   278   1 H      0.925     0.114     1.660     2.015
   279   7 N      3.490    -0.136    23.943     7.267
   280   1 H      0.860     0.301     0.710     1.320
   281   1 H      0.860     0.301     0.710     1.320
   282   1 H      0.860     0.290     0.742     1.350
   283   6 C      2.764     0.253    22.749     7.811
   284   8 O      0.860    -0.517    24.161     6.590
   285   7 N      2.695    -0.128    23.777     7.242
   286   1 H      0.860     0.224     0.990     1.559
   287   6 C      3.815     0.012    20.369     6.424
   288   1 H      0.925     0.071     2.074     2.252
   289   6 C      3.851    -0.037    21.201     6.549
   290   1 H      0.924     0.078     2.004     2.214
   291   6 C      3.751    -0.129    23.033     6.844
   292   1 H      0.925     0.045     2.383     2.414
   293   1 H      0.924     0.073     2.048     2.238
   294   1 H      0.925     0.032     2.565     2.505
   295   6 C      3.801    -0.081    22.048     6.685
   296   1 H      0.924     0.048     2.344     2.394
   297   1 H      0.924     0.032     2.553     2.499
   298   6 C      3.750    -0.141    23.279     6.881
   299   1 H      0.925     0.043     2.411     2.428
   300   1 H      0.924     0.057     2.239     2.340
   301   1 H      0.924     0.067     2.114     2.274
   302   6 C      2.750     0.264    22.554     7.776
   303   8 O      0.857    -0.480    23.345     6.478
   304   7 N      2.693    -0.157    24.393     7.335
   305   1 H      0.860     0.218     1.017     1.580
   306   6 C      3.790     0.014    20.360     6.426
   307   1 H      0.925     0.100     1.783     2.088
   308   6 C      3.809    -0.090    22.217     6.710
   309   1 H      0.924     0.092     1.855     2.130
   310   1 H      0.924     0.066     2.125     2.279
   311   6 C      2.949    -0.002    28.068     8.689
   312   6 C      2.901    -0.048    29.190     8.859
   313   1 H      0.926     0.052     2.291     2.367
   314   6 C      2.903    -0.079    29.973     8.977
   315   1 H      0.925     0.013     2.837     2.634
   316   6 C      2.828     0.128    25.181     8.223
   317   8 O      1.661    -0.428    21.406     6.246
   318   1 H      0.806     0.318     0.670     1.285
   319   6 C      2.904    -0.071    29.763     8.945
   320   1 H      0.926     0.043     2.404     2.425
   321   6 C      2.893    -0.045    29.109     8.846
   322   1 H      0.925     0.098     1.804     2.101
   323   6 C      2.740     0.262    22.589     7.782
   324   8 O      0.858    -0.496    23.687     6.525
   325   7 N      2.681    -0.165    24.567     7.361
   326   1 H      0.860     0.224     0.991     1.560
   327   6 C      3.795     0.011    20.396     6.431
   328   1 H      0.925     0.083     1.944     2.180
   329   6 C      3.802    -0.085    22.117     6.696
   330   1 H      0.925     0.044     2.401     2.423
   331   1 H      0.924     0.073     2.049     2.238
   332   6 C      3.802    -0.094    22.283     6.721
   333   1 H      0.925     0.094     1.844     2.123
   334   1 H      0.925     0.058     2.220     2.330
   335   6 C      3.809    -0.097    22.348     6.729
   336   1 H      0.925     0.076     2.025     2.226
   337   1 H      0.925     0.089     1.887     2.148
   338   6 C      3.746    -0.053    21.586     6.627
   339   1 H      0.925     0.125     1.570     1.959
   340   1 H      0.925     0.123     1.588     1.971
   341   7 N      3.493    -0.144    24.114     7.293
   342   1 H      0.860     0.300     0.712     1.322
   343   1 H      0.860     0.299     0.715     1.325
   344   1 H      0.860     0.290     0.745     1.352
   345   6 C      2.782     0.284    22.187     7.715
   346   8 O      0.859    -0.497    23.726     6.531
   347   7 N      2.694    -0.181    24.919     7.414
   348   1 H      0.860     0.220     1.010     1.574
   349   6 C      3.804     0.039    19.920     6.354
   350   1 H      0.925     0.064     2.156     2.296
   351   6 C      3.801    -0.096    22.333     6.728
   352   1 H      0.924     0.008     2.930     2.677
   353   1 H      0.925     0.044     2.392     2.419
   354   6 C      2.686     0.374    20.661     7.439
   355   8 O      0.857    -0.657    27.565     7.039
   356   8 O      0.858    -0.601    26.151     6.856
   357   6 C      2.739     0.264    22.542     7.774
   358   8 O      0.857    -0.498    23.744     6.533
   359   7 N      2.681    -0.183    24.973     7.422
   360   1 H      0.860     0.219     1.015     1.578
   361   6 C      3.791     0.025    20.167     6.395
   362   1 H      0.925     0.100     1.785     2.090
   363   6 C      3.719     0.113    18.837     6.199
   364   1 H      0.925     0.051     2.309     2.376
   365   6 C      3.747    -0.149    23.439     6.905
   366   1 H      0.925     0.074     2.042     2.234
   367   1 H      0.924     0.077     2.012     2.218
   368   1 H      0.925     0.074     2.043     2.235
   369   8 O      1.652    -0.501    22.914     6.462
   370   1 H      0.805     0.340     0.612     1.228
   371   6 C      2.751     0.266    22.515     7.770
   372   8 O      0.858    -0.507    23.947     6.561
   373   7 N      2.689    -0.182    24.944     7.418
   374   1 H      0.860     0.197     1.119     1.657
   375   6 C      3.793     0.036    19.983     6.366
   376   1 H      0.925     0.085     1.930     2.173
   377   6 C      3.807    -0.035    21.196     6.554
   378   1 H      0.924     0.061     2.190     2.314
   379   1 H      0.924     0.013     2.845     2.638
   380   6 C      3.795    -0.084    22.108     6.695
   381   1 H      0.924     0.012     2.858     2.644
   382   1 H      0.925     0.023     2.692     2.566
   383   6 C      2.686     0.371    20.713     7.448
   384   8 O      0.857    -0.646    27.267     7.001
   385   8 O      0.858    -0.653    27.470     7.027
   386   6 C      2.751     0.261    22.600     7.784
   387   8 O      0.863    -0.500    23.777     6.538
   388   7 N      2.682    -0.189    25.102     7.441
   389   1 H      0.860     0.208     1.068     1.619
   390   6 C      3.736    -0.046    21.493     6.616
   391   1 H      0.925     0.113     1.667     2.019
   392   1 H      0.924     0.110     1.693     2.035
   393   6 C      2.762     0.281    22.244     7.724
   394   8 O      0.859    -0.445    22.595     6.373
   395   7 N      2.686    -0.156    24.372     7.332
   396   1 H      0.860     0.169     1.279     1.772
   397   6 C      3.797     0.007    20.456     6.440
   398   1 H      0.925     0.089     1.889     2.149
   399   6 C      3.807    -0.078    21.986     6.675
   400   1 H      0.925     0.085     1.926     2.170
   401   1 H      0.924     0.039     2.459     2.452
   402   6 C      2.962     0.003    27.950     8.672
   403   6 C      2.914    -0.046    29.131     8.851
   404   1 H      0.926     0.016     2.799     2.616
   405   6 C      2.927    -0.057    29.409     8.893
   406   1 H      0.926     0.029     2.607     2.525
   407   6 C      2.831     0.158    24.567     8.122
   408   8 O      1.660    -0.452    21.874     6.314
   409   1 H      0.805     0.361     0.563     1.178
   410   6 C      2.928    -0.068    29.702     8.938
   411   1 H      0.926     0.061     2.184     2.311
   412   6 C      2.913    -0.049    29.217     8.863
   413   1 H      0.926     0.065     2.139     2.287
   414   6 C      2.748     0.272    22.395     7.749
   415   8 O      0.859    -0.501    23.800     6.541
   416   7 N      2.696    -0.149    24.214     7.308
   417   1 H      0.860     0.234     0.947     1.524
   418   6 C      3.803     0.017    20.293     6.413
   419   1 H      0.924     0.091     1.872     2.140
   420   6 C      3.822    -0.081    22.019     6.678
   421   1 H      0.925     0.079     1.989     2.206
   422   1 H      0.924     0.070     2.083     2.257
   423   6 C      2.966    -0.010    28.255     8.719
   424   6 C      2.919    -0.051    29.259     8.870
   425   1 H      0.926     0.030     2.585     2.514
   426   6 C      2.905    -0.084    30.093     8.995
   427   1 H      0.926     0.044     2.400     2.423
   428   6 C      2.837     0.130    25.157     8.220
   429   8 O      1.664    -0.408    20.999     6.186
   430   1 H      0.805     0.353     0.582     1.198
   431   6 C      2.908    -0.065    29.617     8.924
   432   1 H      0.926     0.090     1.876     2.142
   433   6 C      2.915    -0.042    29.045     8.838
   434   1 H      0.926     0.055     2.253     2.347
   435   6 C      2.753     0.264    22.550     7.776
   436   8 O      0.863    -0.536    24.596     6.649
   437   7 N      2.694    -0.154    24.332     7.326
   438   1 H      0.860     0.244     0.908     1.493
   439   6 C      3.792     0.004    20.524     6.452
   440   1 H      0.925     0.081     1.971     2.195
   441   6 C      3.735     0.142    18.366     6.116
   442   1 H      0.925     0.021     2.714     2.577
   443   6 C      3.760    -0.118    22.807     6.808
   444   1 H      0.925     0.052     2.292     2.367
   445   1 H      0.925     0.035     2.517     2.481
   446   1 H      0.925     0.051     2.303     2.373
   447   8 O      1.659    -0.481    22.493     6.402
   448   1 H      0.805     0.325     0.650     1.267
   449   6 C      2.750     0.262    22.574     7.780
   450   8 O      0.860    -0.444    22.582     6.371
   451   7 N      2.685    -0.175    24.781     7.393
   452   1 H      0.860     0.212     1.049     1.604
   453   6 C      3.775     0.011    20.417     6.438
   454   1 H      0.925     0.081     1.966     2.193
   455   6 C      3.840    -0.031    21.092     6.533
   456   1 H      0.924     0.069     2.100     2.266
   457   6 C      3.752    -0.129    23.042     6.845
   458   1 H      0.925     0.054     2.271     2.357
   459   1 H      0.925     0.043     2.411     2.428
   460   1 H      0.925     0.054     2.268     2.355
   461   6 C      3.796    -0.080    22.032     6.684
   462   1 H      0.925     0.044     2.400     2.422
   463   1 H      0.925     0.059     2.213     2.327
   464   6 C      3.752    -0.109    22.636     6.785
   465   1 H      0.924     0.032     2.560     2.502
   466   1 H      0.925     0.051     2.310     2.377
   467   1 H      0.925     0.056     2.244     2.343
   468   6 C      2.735     0.253    22.737     7.807
   469   8 O      0.857    -0.489    23.551     6.506
   470   7 N      2.686    -0.154    24.329     7.326
   471   1 H      0.860     0.217     1.025     1.586
   472   6 C      3.741    -0.043    21.423     6.604
   473   1 H      0.925     0.070     2.082     2.257
   474   1 H      0.925     0.128     1.553     1.949
   475   6 C      2.749     0.269    22.451     7.759
   476   8 O      0.860    -0.476    23.263     6.467
   477   7 N      2.694    -0.152    24.279     7.318
   478   1 H      0.860     0.211     1.053     1.607
   479   6 C      3.802     0.015    20.323     6.418
   480   1 H      0.924     0.070     2.083     2.257
   481   6 C      3.847    -0.026    21.001     6.519
   482   1 H      0.925     0.056     2.247     2.344
   483   6 C      3.754    -0.122    22.891     6.822
   484   1 H      0.925     0.032     2.565     2.505
   485   1 H      0.925     0.065     2.137     2.286
   486   1 H      0.924     0.037     2.490     2.467
   487   6 C      3.795    -0.075    21.934     6.669
   488   1 H      0.924     0.041     2.440     2.443
   489   1 H      0.924     0.060     2.202     2.321
   490   6 C      3.747    -0.126    22.988     6.839
   491   1 H      0.924     0.059     2.211     2.325
   492   1 H      0.925     0.045     2.380     2.412
   493   1 H      0.925     0.049     2.328     2.386
   494   6 C      2.765     0.263    22.562     7.779
   495   8 O      0.862    -0.499    23.756     6.535
   496   7 N      2.691    -0.157    24.387     7.334
   497   1 H      0.860     0.217     1.022     1.584
   498   6 C      3.753    -0.027    21.111     6.552
   499   1 H      0.924     0.094     1.836     2.119
   500   1 H      0.925     0.091     1.867     2.137
   501   6 C      2.750     0.277    22.318     7.736
   502   8 O      0.860    -0.498    23.734     6.532
   503   7 N      2.688    -0.175    24.783     7.394
   504   1 H      0.860     0.226     0.981     1.552
   505   6 C      3.803     0.042    19.870     6.346
   506   1 H      0.925     0.049     2.326     2.385
   507   6 C      3.812    -0.088    22.168     6.702
   508   1 H      0.924     0.117     1.639     2.002
   509   1 H      0.924     0.115     1.654     2.011
   510   6 C      3.056     0.046    26.924     8.509
   511   7 N      2.745    -0.036    21.936     6.956
   512   1 H      0.860     0.258     0.852     1.446
   513   6 C      3.017     0.072    26.375     8.424
   514   1 H      0.926     0.150     1.392     1.845
   515   7 N      2.764    -0.011    21.466     6.881
   516   1 H      0.860     0.269     0.813     1.412
   517   6 C      2.994    -0.012    28.303     8.727
   518   1 H      0.926     0.133     1.513     1.924
   519   6 C      2.751     0.263    22.571     7.779
   520   8 O      0.858    -0.478    23.303     6.472
   521   7 N      2.690    -0.156    24.380     7.333
   522   1 H      0.860     0.203     1.090     1.636
   523   6 C      3.789     0.019    20.275     6.413
   524   1 H      0.925     0.072     2.062     2.245
   525   6 C      3.801    -0.087    22.157     6.702
   526   1 H      0.924     0.049     2.338     2.391
   527   1 H      0.925     0.059     2.209     2.324
   528   6 C      3.844    -0.018    20.862     6.497
   529   1 H      0.925     0.026     2.639     2.540
   530   6 C      3.767    -0.123    22.903     6.821
   531   1 H      0.924     0.055     2.261     2.352
   532   1 H      0.924     0.036     2.506     2.475
   533   1 H      0.925     0.047     2.359     2.402
   534   6 C      3.771    -0.130    23.026     6.838
   535   1 H      0.924     0.054     2.272     2.357
   536   1 H      0.925     0.065     2.137     2.286
   537   1 H      0.924     0.051     2.313     2.378
   538   6 C      2.756     0.270    22.447     7.758
   539   8 O      0.862    -0.509    23.986     6.566
   540   7 N      2.710    -0.166    24.589     7.365
   541   1 H      0.860     0.227     0.977     1.549
   542   6 C      3.801     0.028    20.107     6.384
   543   1 H      0.925     0.090     1.884     2.146
   544   6 C      3.820    -0.080    22.017     6.678
   545   1 H      0.924     0.055     2.263     2.353
   546   1 H      0.924     0.051     2.304     2.374
   547   6 C      3.847    -0.011    20.745     6.479
   548   1 H      0.925     0.036     2.497     2.471
   549   6 C      3.777    -0.120    22.824     6.807
   550   1 H      0.925     0.056     2.242     2.342
   551   1 H      0.924     0.052     2.301     2.372
   552   1 H      0.924     0.035     2.510     2.478
   553   6 C      3.756    -0.125    22.951     6.831
   554   1 H      0.925     0.060     2.204     2.321
   555   1 H      0.925     0.033     2.551     2.498
   556   1 H      0.924     0.046     2.377     2.411
   557   6 C      2.756     0.266    22.518     7.771
   558   8 O      0.861    -0.506    23.924     6.558
   559   7 N      2.675    -0.183    24.956     7.419
   560   1 H      0.860     0.222     1.003     1.569
   561   6 C      3.785     0.023    20.198     6.401
   562   1 H      0.924     0.066     2.125     2.280
   563   6 C      3.731     0.124    18.642     6.163
   564   1 H      0.925     0.025     2.658     2.550
   565   6 C      3.760    -0.129    23.017     6.839
   566   1 H      0.924     0.045     2.388     2.417
   567   1 H      0.925     0.049     2.328     2.386
   568   1 H      0.925     0.077     2.014     2.219
   569   8 O      1.665    -0.464    22.131     6.351
   570   1 H      0.806     0.335     0.625     1.242
   571   6 C      2.750     0.281    22.238     7.722
   572   8 O      0.864    -0.478    23.293     6.471
   573   7 N      2.688    -0.170    24.682     7.379
   574   1 H      0.860     0.213     1.043     1.600
   575   6 C      3.785     0.006    20.492     6.448
   576   1 H      0.925     0.100     1.787     2.090
   577   6 C      3.795    -0.088    22.189     6.708
   578   1 H      0.924     0.077     2.010     2.217
   579   1 H      0.925     0.076     2.025     2.225
   580   6 C      3.796    -0.082    22.075     6.690
   581   1 H      0.925     0.052     2.294     2.368
   582   1 H      0.925     0.046     2.365     2.405
   583   6 C      3.795    -0.091    22.246     6.716
   584   1 H      0.925     0.087     1.910     2.161
   585   1 H      0.925     0.094     1.838     2.120
   586   6 C      3.725    -0.048    21.535     6.626
   587   1 H      0.925     0.111     1.688     2.032
   588   1 H      0.925     0.099     1.799     2.097
   589   7 N      3.484    -0.150    24.226     7.310
   590   1 H      0.860     0.301     0.712     1.322
   591   1 H      0.860     0.303     0.705     1.316
   592   1 H      0.860     0.291     0.742     1.349
   593   6 C      2.751     0.268    22.469     7.762
   594   8 O      0.857    -0.498    23.752     6.534
   595   7 N      2.684    -0.152    24.293     7.320
   596   1 H      0.860     0.229     0.971     1.544
   597   6 C      3.793     0.033    20.033     6.374
   598   1 H      0.925     0.064     2.148     2.292
   599   6 C      3.689     0.063    19.710     6.354
   600   1 H      0.925     0.054     2.270     2.356
   601   1 H      0.925     0.054     2.273     2.358
   602   8 O      1.644    -0.491    22.700     6.431
   603   1 H      0.805     0.344     0.602     1.219
   604   6 C      2.773     0.248    22.831     7.826
   605   8 O      0.859    -0.496    23.702     6.527
   606   7 N      2.749    -0.080    22.789     7.090
   607   6 C      3.764    -0.008    20.765     6.495
   608   1 H      0.924     0.054     2.271     2.357
   609   1 H      0.925     0.063     2.169     2.303
   610   6 C      3.816    -0.074    21.897     6.660
   611   1 H      0.924     0.066     2.133     2.284
   612   1 H      0.924     0.069     2.095     2.263
   613   6 C      3.791    -0.081    22.055     6.688
   614   1 H      0.925     0.087     1.908     2.160
   615   1 H      0.925     0.098     1.805     2.101
   616   6 C      3.833     0.016    20.282     6.407
   617   1 H      0.925     0.080     1.981     2.201
   618   6 C      2.763     0.276    22.337     7.740
   619   8 O      0.862    -0.473    23.192     6.457
   620   7 N      2.687    -0.178    24.859     7.405
   621   1 H      0.860     0.211     1.052     1.607
   622   6 C      3.782    -0.002    20.629     6.470
   623   1 H      0.925     0.097     1.816     2.107
   624   6 C      3.679     0.076    19.512     6.327
   625   1 H      0.925     0.046     2.365     2.405
   626   1 H      0.925     0.046     2.367     2.406
   627   8 O      1.653    -0.473    22.314     6.377
   628   1 H      0.806     0.331     0.634     1.251
   629   6 C      2.749     0.251    22.782     7.816
   630   8 O      0.863    -0.465    23.021     6.433
   631   7 N      2.690    -0.193    25.183     7.453
   632   1 H      0.860     0.229     0.969     1.542
   633   6 C      3.797     0.001    20.562     6.457
   634   1 H      0.924     0.110     1.700     2.039
   635   6 C      3.799    -0.099    22.391     6.737
   636   1 H      0.925     0.074     2.041     2.234
   637   1 H      0.924     0.088     1.899     2.155
   638   6 C      3.846    -0.025    20.985     6.516
   639   1 H      0.925     0.044     2.394     2.419
   640   6 C      3.758    -0.133    23.113     6.854
   641   1 H      0.924     0.037     2.486     2.465
   642   1 H      0.925     0.062     2.171     2.304
   643   1 H      0.924     0.060     2.203     2.321
   644   6 C      3.758    -0.141    23.270     6.877
   645   1 H      0.925     0.059     2.205     2.322
   646   1 H      0.924     0.052     2.300     2.372
   647   1 H      0.925     0.056     2.251     2.346
   648   6 C      2.768     0.284    22.196     7.716
   649   8 O      0.868    -0.460    22.919     6.419
   650   7 N      2.704    -0.176    24.818     7.399
   651   1 H      0.860     0.212     1.045     1.601
   652   6 C      3.817     0.027    20.108     6.382
   653   1 H      0.925     0.116     1.650     2.009
   654   6 C      3.822    -0.122    22.819     6.798
   655   1 H      0.925     0.115     1.656     2.012
   656   1 H      0.924     0.091     1.870     2.139
   657   6 C      2.744     0.283    22.205     7.716
   658   8 O      0.888    -0.546    24.805     6.678
   659   7 N      2.666    -0.258    26.698     7.674
   660   1 H      0.860     0.245     0.904     1.490
   661   1 H      0.860     0.236     0.942     1.520
   662   6 C      2.770     0.281    22.237     7.723
   663   8 O      0.863    -0.506    23.919     6.557
   664   7 N      2.697    -0.180    24.891     7.410
   665   1 H      0.860     0.192     1.149     1.679
   666   6 C      3.798     0.019    20.257     6.409
   667   1 H      0.924     0.069     2.096     2.264
   668   6 C      3.752    -0.140    23.252     6.876
   669   1 H      0.924     0.074     2.045     2.236
   670   1 H      0.925     0.072     2.068     2.249
   671   1 H      0.925     0.072     2.060     2.244
   672   6 C      2.761     0.273    22.392     7.749
   673   8 O      0.859    -0.538    24.635     6.655
   674   7 N      2.696    -0.159    24.443     7.343
   675   1 H      0.860     0.242     0.916     1.500
   676   6 C      3.789     0.013    20.362     6.427
   677   1 H      0.925     0.059     2.206     2.323
   678   6 C      3.752    -0.143    23.323     6.887
   679   1 H      0.925     0.088     1.902     2.157
   680   1 H      0.924     0.061     2.185     2.312
   681   1 H      0.925     0.095     1.830     2.115
   682   6 C      2.743     0.266    22.505     7.767
   683   8 O      0.856    -0.487    23.509     6.501
   684   7 N      2.685    -0.163    24.530     7.356
   685   1 H      0.860     0.251     0.880     1.470
   686   6 C      3.790     0.007    20.463     6.442
   687   1 H      0.925     0.097     1.811     2.105
   688   6 C      3.803    -0.080    22.020     6.681
   689   1 H      0.924     0.052     2.299     2.371
   690   1 H      0.925     0.069     2.096     2.264
   691   6 C      3.803    -0.089    22.203     6.708
   692   1 H      0.925     0.090     1.879     2.144
   693   1 H      0.924     0.071     2.078     2.254
   694   6 C      3.795    -0.098    22.373     6.735
   695   1 H      0.924     0.055     2.263     2.352
   696   1 H      0.925     0.080     1.982     2.201
   697   6 C      3.729    -0.053    21.631     6.640
   698   1 H      0.924     0.128     1.548     1.946
   699   1 H      0.924     0.123     1.589     1.971
   700   7 N      3.488    -0.142    24.065     7.286
   701   1 H      0.860     0.289     0.746     1.353
   702   1 H      0.860     0.303     0.703     1.314
   703   1 H      0.860     0.290     0.743     1.351
   704   6 C      2.743     0.262    22.584     7.781
   705   8 O      0.858    -0.510    24.017     6.571
   706   7 N      2.674    -0.183    24.958     7.420
   707   1 H      0.860     0.227     0.976     1.548
   708   6 C      3.775     0.018    20.297     6.419
   709   1 H      0.925     0.079     1.993     2.208
   710   6 C      3.669     0.067    19.695     6.362
   711   1 H      0.925     0.052     2.300     2.372
   712   1 H      0.925     0.063     2.166     2.302
   713   8 O      1.652    -0.479    22.454     6.397
   714   1 H      0.805     0.348     0.593     1.210
   715   6 C      2.746     0.267    22.491     7.765
   716   8 O      0.861    -0.513    24.084     6.580
   717   7 N      2.689    -0.185    25.018     7.429
   718   1 H      0.860     0.225     0.987     1.556
   719   6 C      3.790     0.045    19.835     6.343
   720   1 H      0.925     0.058     2.218     2.329
   721   6 C      3.801    -0.041    21.311     6.572
   722   1 H      0.925     0.046     2.366     2.405
   723   1 H      0.924     0.047     2.362     2.403
   724   6 C      3.801    -0.095    22.320     6.726
   725   1 H      0.925     0.037     2.492     2.468
   726   1 H      0.924     0.035     2.510     2.478
   727   6 C      2.686     0.366    20.793     7.463
   728   8 O      0.857    -0.623    26.691     6.927
   729   8 O      0.856    -0.670    27.900     7.082
   730   6 C      2.758     0.269    22.458     7.760
   731   8 O      0.861    -0.506    23.908     6.556
   732   7 N      2.694    -0.183    24.972     7.422
   733   1 H      0.860     0.217     1.023     1.584
   734   6 C      3.795     0.019    20.260     6.409
   735   1 H      0.924     0.095     1.827     2.114
   736   6 C      3.802    -0.090    22.208     6.709
   737   1 H      0.925     0.061     2.189     2.313
   738   1 H      0.925     0.085     1.927     2.171
   739   6 C      3.843    -0.016    20.823     6.491
   740   1 H      0.925     0.028     2.622     2.532
   741   6 C      3.751    -0.128    23.010     6.841
   742   1 H      0.924     0.047     2.357     2.401
   743   1 H      0.924     0.058     2.218     2.329
   744   1 H      0.925     0.025     2.664     2.553
   745   6 C      3.755    -0.136    23.168     6.863
   746   1 H      0.925     0.068     2.105     2.269
   747   1 H      0.925     0.076     2.022     2.224
   748   1 H      0.925     0.054     2.270     2.356
   749   6 C      2.748     0.271    22.422     7.753
   750   8 O      0.864    -0.527    24.394     6.622
   751   7 N      2.690    -0.181    24.927     7.415
   752   1 H      0.860     0.220     1.007     1.572
   753   6 C      3.784     0.050    19.752     6.331
   754   1 H      0.925     0.080     1.977     2.199
   755   6 C      3.815    -0.081    22.042     6.682
   756   1 H      0.925     0.035     2.523     2.484
   757   1 H      0.924     0.050     2.314     2.379
   758   6 C      2.690     0.369    20.749     7.455
   759   8 O      0.856    -0.668    27.845     7.075
   760   8 O      0.858    -0.636    27.014     6.968
   761   6 C      2.742     0.283    22.210     7.716
   762   8 O      0.859    -0.482    23.397     6.485
   763   7 N      2.676    -0.212    25.628     7.519
   764   1 H      0.860     0.203     1.092     1.637
   765   6 C      3.770     0.026    20.173     6.401
   766   1 H      0.925     0.072     2.067     2.248
   767   6 C      3.793    -0.060    21.653     6.626
   768   1 H      0.925     0.063     2.161     2.299
   769   1 H      0.925     0.044     2.393     2.419
   770   6 C      3.805    -0.069    21.822     6.650
   771   1 H      0.925     0.053     2.277     2.360
   772   1 H      0.925     0.051     2.303     2.373
   773   6 C      3.803    -0.081    22.045     6.685
   774   1 H      0.925     0.078     1.996     2.210
   775   1 H      0.924     0.069     2.098     2.265
   776   6 C      3.735    -0.045    21.463     6.612
   777   1 H      0.925     0.093     1.846     2.125
   778   1 H      0.924     0.125     1.575     1.963
   779   7 N      3.485    -0.151    24.254     7.315
   780   1 H      0.860     0.298     0.718     1.327
   781   1 H      0.860     0.310     0.685     1.297
   782   1 H      0.860     0.296     0.725     1.334
   783   6 C      2.737     0.260    22.626     7.788
   784   8 O      0.857    -0.506    23.911     6.556
   785   7 N      2.676    -0.196    25.259     7.464
   786   1 H      0.860     0.206     1.075     1.624
   787   6 C      3.776     0.018    20.297     6.419
   788   1 H      0.924     0.093     1.851     2.128
   789   6 C      3.744    -0.129    23.059     6.850
   790   1 H      0.925     0.085     1.924     2.169
   791   1 H      0.924     0.072     2.064     2.247
   792   1 H      0.925     0.076     2.024     2.225
   793   6 C      2.752     0.264    22.546     7.775
   794   8 O      0.858    -0.499    23.768     6.536
   795   7 N      2.690    -0.156    24.378     7.333
   796   1 H      0.860     0.206     1.075     1.624
   797   6 C      3.783     0.009    20.448     6.441
   798   1 H      0.924     0.105     1.740     2.063
   799   6 C      3.841    -0.025    20.988     6.517
   800   1 H      0.925     0.071     2.076     2.253
   801   6 C      3.749    -0.112    22.706     6.796
   802   1 H      0.925     0.029     2.596     2.520
   803   1 H      0.925     0.065     2.138     2.286
   804   1 H      0.924     0.032     2.556     2.500
   805   6 C      3.806    -0.062    21.678     6.628
   806   1 H      0.925     0.039     2.468     2.457
   807   1 H      0.925     0.048     2.344     2.394
   808   6 C      3.749    -0.112    22.707     6.796
   809   1 H      0.925     0.040     2.455     2.450
   810   1 H      0.925     0.056     2.248     2.345
   811   1 H      0.924     0.030     2.581     2.512
   812   6 C      2.749     0.275    22.345     7.740
   813   8 O      0.857    -0.467    23.076     6.441
   814   7 N      2.686    -0.182    24.940     7.417
   815   1 H      0.860     0.198     1.117     1.655
   816   6 C      3.742    -0.024    21.069     6.549
   817   1 H      0.925     0.094     1.837     2.119
   818   1 H      0.925     0.077     2.006     2.215
   819   6 C      2.747     0.272    22.407     7.751
   820   8 O      0.858    -0.504    23.869     6.550
   821   7 N      2.687    -0.163    24.536     7.357
   822   1 H      0.860     0.196     1.126     1.662
   823   6 C      3.801     0.032    20.041     6.374
   824   1 H      0.925     0.079     1.988     2.205
   825   6 C      3.822    -0.083    22.058     6.684
   826   1 H      0.924     0.083     1.946     2.182
   827   1 H      0.925     0.070     2.082     2.256
   828   6 C      3.803    -0.068    21.791     6.646
   829   1 H      0.925     0.052     2.289     2.366
   830   1 H      0.925     0.057     2.240     2.341
   831   6 C      3.740    -0.017    20.948     6.530
   832   1 H      0.924     0.077     2.009     2.216
   833   1 H      0.925     0.081     1.972     2.196
   834   7 N      2.739    -0.198    25.302     7.471
   835   1 H      0.861     0.250     0.882     1.471
   836   6 C      2.734     0.254    22.722     7.804
   837   7 N      2.717    -0.293    27.533     7.793
   838   1 H      0.860     0.241     0.921     1.503
   839   1 H      0.860     0.220     1.011     1.575
   840   7 N      2.744    -0.244    26.363     7.626
   841   1 H      0.860     0.257     0.858     1.451
   842   1 H      0.861     0.256     0.861     1.454
   843   6 C      2.769     0.276    22.338     7.741
   844   8 O      0.858    -0.475    23.243     6.464
   845   7 N      2.693    -0.201    25.378     7.482
   846   1 H      0.860     0.211     1.052     1.607
   847   6 C      3.788     0.033    20.039     6.376
   848   1 H      0.925     0.068     2.105     2.269
   849   6 C      3.815    -0.098    22.354     6.729
   850   1 H      0.925     0.082     1.957     2.188
   851   1 H      0.925     0.083     1.947     2.182
   852   6 C      2.753     0.290    22.080     7.694
   853   8 O      0.872    -0.550    24.906     6.691
   854   7 N      2.652    -0.269    26.968     7.713
   855   1 H      0.860     0.253     0.870     1.461
   856   1 H      0.860     0.234     0.949     1.526
   857   6 C      2.745     0.257    22.671     7.796
   858   8 O      0.858    -0.491    23.577     6.510
   859   7 N      2.697    -0.161    24.476     7.348
   860   1 H      0.861     0.221     1.004     1.570
   861   6 C      3.811     0.006    20.462     6.439
   862   1 H      0.925     0.097     1.815     2.107
   863   6 C      3.797    -0.033    21.165     6.551
   864   1 H      0.925     0.061     2.183     2.311
   865   1 H      0.925     0.113     1.667     2.019
   866  16 S      1.924    -0.270   152.677    20.797
   867   1 H      0.923     0.171     1.258     1.754
   868   6 C      2.758     0.277    22.312     7.735
   869   8 O      0.858    -0.414    21.966     6.284
   870   7 N      2.688    -0.169    24.647     7.373
   871   1 H      0.860     0.190     1.158     1.686
   872   6 C      3.795     0.024    20.182     6.397
   873   1 H      0.925     0.079     1.994     2.208
   874   6 C      3.804    -0.105    22.499     6.753
   875   1 H      0.925     0.099     1.794     2.095
   876   1 H      0.925     0.071     2.077     2.254
   877   6 C      2.740     0.288    22.125     7.701
   878   8 O      0.863    -0.483    23.412     6.487
   879   7 N      2.642    -0.272    27.031     7.722
   880   1 H      0.860     0.257     0.857     1.450
   881   1 H      0.860     0.216     1.026     1.587
   882   6 C      2.748     0.250    22.805     7.819
   883   8 O      0.863    -0.449    22.682     6.386
   884   7 N      2.688    -0.148    24.195     7.305
   885   1 H      0.860     0.182     1.202     1.717
   886   6 C      3.752    -0.037    21.294     6.581
   887   1 H      0.924     0.126     1.569     1.959
   888   1 H      0.925     0.105     1.737     2.061
   889   6 C      2.745     0.276    22.332     7.738
   890   8 O      0.863    -0.470    23.130     6.448
   891   7 N      2.697    -0.170    24.679     7.378
   892   1 H      0.860     0.192     1.147     1.678
   893   6 C      3.819     0.016    20.287     6.410
   894   1 H      0.925     0.080     1.978     2.200
   895   6 C      3.858    -0.016    20.827     6.490
   896   1 H      0.925     0.040     2.454     2.450
   897   6 C      3.761    -0.121    22.870     6.817
   898   1 H      0.925     0.023     2.693     2.566
   899   1 H      0.924     0.054     2.275     2.359
   900   1 H      0.925     0.063     2.159     2.298
   901   6 C      3.760    -0.127    22.983     6.834
   902   1 H      0.925     0.060     2.203     2.321
   903   1 H      0.925     0.038     2.481     2.463
   904   1 H      0.925     0.064     2.147     2.292
   905   6 C      2.776     0.280    22.257     7.727
   906   8 O      0.869    -0.548    24.862     6.685
   907   7 N      2.694    -0.142    24.079     7.288
   908   1 H      0.860     0.237     0.935     1.515
   909   6 C      3.784    -0.001    20.610     6.467
   910   1 H      0.925     0.073     2.051     2.239
   911   6 C      3.831    -0.024    20.981     6.517
   912   1 H      0.924     0.035     2.518     2.481
   913   6 C      3.739    -0.119    22.874     6.824
   914   1 H      0.924     0.054     2.265     2.353
   915   1 H      0.925     0.035     2.513     2.479
   916   1 H      0.925     0.056     2.246     2.344
   917   6 C      3.797    -0.071    21.864     6.658
   918   1 H      0.924     0.038     2.477     2.461
   919   1 H      0.924     0.060     2.198     2.318
   920   6 C      3.745    -0.119    22.860     6.820
   921   1 H      0.925     0.049     2.329     2.387
   922   1 H      0.924     0.058     2.228     2.334
   923   1 H      0.924     0.030     2.586     2.515
   924   6 C      2.746     0.271    22.419     7.753
   925   8 O      0.860    -0.478    23.301     6.472
   926   7 N      2.685    -0.175    24.798     7.396
   927   1 H      0.860     0.219     1.014     1.577
   928   6 C      3.783     0.004    20.538     6.456
   929   1 H      0.924     0.089     1.885     2.147
   930   6 C      3.728     0.115    18.789     6.188
   931   1 H      0.924     0.047     2.360     2.402
   932   6 C      3.749    -0.146    23.377     6.896
   933   1 H      0.925     0.061     2.185     2.312
   934   1 H      0.924     0.071     2.071     2.250
   935   1 H      0.925     0.052     2.291     2.367
   936   8 O      1.657    -0.516    23.231     6.507
   937   1 H      0.805     0.333     0.630     1.246
   938   6 C      2.741     0.263    22.570     7.779
   939   8 O      0.858    -0.493    23.627     6.517
   940   7 N      2.684    -0.173    24.753     7.389
   941   1 H      0.860     0.216     1.026     1.587
   942   6 C      3.779     0.013    20.380     6.432
   943   1 H      0.924     0.119     1.619     1.990
   944   6 C      3.797    -0.098    22.370     6.735
   945   1 H      0.925     0.068     2.112     2.273
   946   1 H      0.925     0.095     1.828     2.114
   947   6 C      3.805    -0.081    22.034     6.682
   948   1 H      0.924     0.087     1.908     2.160
   949   1 H      0.925     0.048     2.344     2.394
   950   6 C      3.800    -0.101    22.421     6.742
   951   1 H      0.925     0.096     1.825     2.113
   952   1 H      0.924     0.089     1.892     2.151
   953   6 C      3.724    -0.057    21.706     6.653
   954   1 H      0.925     0.108     1.712     2.046
   955   1 H      0.924     0.121     1.602     1.980
   956   7 N      3.486    -0.147    24.168     7.301
   957   1 H      0.860     0.303     0.703     1.314
   958   1 H      0.860     0.292     0.737     1.345
   959   1 H      0.860     0.292     0.738     1.346
   960   6 C      2.741     0.267    22.500     7.766
   961   8 O      0.858    -0.501    23.797     6.540
   962   7 N      2.682    -0.188    25.068     7.436
   963   1 H      0.860     0.206     1.076     1.625
   964   6 C      3.781     0.033    20.040     6.377
   965   1 H      0.925     0.063     2.169     2.303
   966   6 C      3.800    -0.100    22.402     6.739
   967   1 H      0.924     0.031     2.577     2.510
   968   1 H      0.925     0.052     2.300     2.372
   969   6 C      2.685     0.378    20.601     7.428
   970   8 O      0.856    -0.653    27.458     7.026
   971   8 O      0.857    -0.641    27.143     6.985
   972   6 C      2.756     0.272    22.410     7.752
   973   8 O      0.858    -0.512    24.046     6.575
   974   7 N      2.686    -0.174    24.774     7.392
   975   1 H      0.860     0.224     0.993     1.561
   976   6 C      3.796     0.025    20.155     6.393
   977   1 H      0.924     0.063     2.163     2.300
   978   6 C      3.801    -0.070    21.848     6.655
   979   1 H      0.925     0.066     2.128     2.281
   980   1 H      0.924     0.088     1.896     2.153
   981   6 C      3.802    -0.096    22.336     6.729
   982   1 H      0.925     0.044     2.394     2.420
   983   1 H      0.924     0.045     2.383     2.414
   984   6 C      2.693     0.370    20.720     7.450
   985   8 O      0.857    -0.612    26.410     6.890
   986   8 O      0.858    -0.564    25.250     6.737
   987   6 C      2.750     0.258    22.649     7.793
   988   8 O      0.858    -0.491    23.585     6.511
   989   7 N      2.687    -0.171    24.708     7.383
   990   1 H      0.860     0.215     1.034     1.593
   991   6 C      3.789     0.026    20.153     6.393
   992   1 H      0.925     0.095     1.828     2.114
   993   6 C      3.759    -0.135    23.145     6.859
   994   1 H      0.925     0.064     2.150     2.293
   995   1 H      0.925     0.087     1.908     2.160
   996   1 H      0.925     0.088     1.898     2.155
   997   6 C      2.748     0.257    22.677     7.797
   998   8 O      0.863    -0.490    23.556     6.507
   999   7 N      2.693    -0.158    24.421     7.340
  1000   1 H      0.860     0.190     1.157     1.685
  1001   6 C      3.791     0.028    20.112     6.387
  1002   1 H      0.924     0.088     1.896     2.154
  1003   6 C      3.801    -0.048    21.430     6.591
  1004   1 H      0.925     0.025     2.664     2.553
  1005   1 H      0.925     0.063     2.163     2.300
  1006   6 C      3.800    -0.088    22.177     6.705
  1007   1 H      0.925     0.047     2.364     2.404
  1008   1 H      0.925     0.015     2.810     2.621
  1009   6 C      2.685     0.363    20.838     7.471
  1010   8 O      0.856    -0.679    28.133     7.111
  1011   8 O      0.856    -0.632    26.913     6.955
  1012   6 C      2.749     0.257    22.678     7.798
  1013   8 O      0.857    -0.521    24.250     6.602
  1014   7 N      2.690    -0.169    24.651     7.374
  1015   1 H      0.860     0.210     1.057     1.610
  1016   6 C      3.791     0.014    20.346     6.424
  1017   1 H      0.925     0.084     1.938     2.177
  1018   6 C      3.811    -0.083    22.081     6.689
  1019   1 H      0.925     0.061     2.185     2.312
  1020   1 H      0.924     0.070     2.086     2.259
  1021   6 C      3.813    -0.082    22.060     6.685
  1022   1 H      0.924     0.062     2.180     2.309
  1023   1 H      0.925     0.069     2.097     2.264
  1024   6 C      3.806    -0.099    22.376     6.734
  1025   1 H      0.924     0.071     2.074     2.252
  1026   1 H      0.924     0.067     2.118     2.276
  1027   6 C      3.739    -0.059    21.726     6.651
  1028   1 H      0.925     0.125     1.576     1.963
  1029   1 H      0.924     0.133     1.511     1.922
  1030   7 N      3.488    -0.151    24.254     7.314
  1031   1 H      0.860     0.297     0.721     1.330
  1032   1 H      0.860     0.308     0.690     1.301
  1033   1 H      0.860     0.301     0.709     1.319
  1034   6 C      2.748     0.266    22.506     7.768
  1035   8 O      0.861    -0.491    23.589     6.512
  1036   7 N      2.699    -0.186    25.025     7.430
  1037   1 H      0.860     0.219     1.015     1.578
  1038   6 C      3.797     0.027    20.116     6.386
  1039   1 H      0.925     0.092     1.858     2.132
  1040   6 C      3.843    -0.086    22.098     6.687
  1041   1 H      0.924     0.056     2.250     2.346
  1042   1 H      0.925     0.071     2.073     2.251
  1043   6 C      3.849    -0.023    20.949     6.510
  1044   1 H      0.925     0.034     2.530     2.488
  1045   6 C      3.757    -0.135    23.146     6.859
  1046   1 H      0.925     0.059     2.210     2.325
  1047   1 H      0.925     0.064     2.153     2.295
  1048   1 H      0.925     0.032     2.561     2.503
  1049   6 C      3.768    -0.132    23.073     6.846
  1050   1 H      0.924     0.063     2.165     2.301
  1051   1 H      0.925     0.053     2.277     2.360
  1052   1 H      0.924     0.040     2.450     2.448
  1053   6 C      2.765     0.276    22.326     7.738
  1054   8 O      0.859    -0.464    22.995     6.429
  1055   7 N      2.690    -0.204    25.433     7.490
  1056   1 H      0.860     0.213     1.042     1.599
  1057   6 C      3.784     0.025    20.175     6.398
  1058   1 H      0.924     0.072     2.059     2.244
  1059   6 C      3.802    -0.094    22.290     6.722
  1060   1 H      0.925     0.070     2.082     2.257
  1061   1 H      0.925     0.091     1.869     2.138
  1062   6 C      2.951     0.012    27.753     8.641
  1063   6 C      2.898    -0.039    28.957     8.823
  1064   1 H      0.925     0.037     2.492     2.469
  1065   6 C      2.902    -0.035    28.870     8.810
  1066   1 H      0.926     0.042     2.424     2.434
  1067   6 C      2.894    -0.046    29.142     8.851
  1068   1 H      0.926     0.062     2.178     2.308
  1069   6 C      2.893    -0.050    29.249     8.867
  1070   1 H      0.926     0.061     2.181     2.310
  1071   6 C      2.898    -0.050    29.236     8.865
  1072   1 H      0.926     0.048     2.345     2.395
  1073   6 C      2.748     0.271    22.420     7.753
  1074   8 O      0.860    -0.500    23.778     6.538
  1075   7 N      2.683    -0.160    24.463     7.346
  1076   1 H      0.860     0.210     1.058     1.611
  1077   6 C      3.784     0.020    20.262     6.412
  1078   1 H      0.925     0.084     1.942     2.179
  1079   6 C      3.807    -0.113    22.652     6.775
  1080   1 H      0.925     0.082     1.961     2.190
  1081   1 H      0.924     0.094     1.839     2.121
  1082   6 C      2.745     0.307    21.790     7.643
  1083   8 O      0.872    -0.494    23.645     6.520
  1084   7 N      2.653    -0.275    27.111     7.733
  1085   1 H      0.860     0.232     0.955     1.531
  1086   1 H      0.860     0.208     1.068     1.619
  1087   6 C      2.744     0.275    22.350     7.741
  1088   8 O      0.860    -0.479    23.314     6.474
  1089   7 N      2.689    -0.184    24.993     7.425
  1090   1 H      0.860     0.221     1.005     1.571
  1091   6 C      3.783     0.026    20.158     6.396
  1092   1 H      0.925     0.085     1.928     2.171
  1093   6 C      3.796    -0.080    22.027     6.683
  1094   1 H      0.925     0.081     1.965     2.192
  1095   1 H      0.925     0.076     2.020     2.223
  1096   6 C      3.804    -0.119    22.775     6.794
  1097   1 H      0.925     0.102     1.764     2.077
  1098   1 H      0.924     0.088     1.900     2.156
  1099   6 C      2.744     0.280    22.258     7.725
  1100   8 O      0.861    -0.505    23.896     6.554
  1101   7 N      2.637    -0.282    27.272     7.756
  1102   1 H      0.860     0.221     1.003     1.569
  1103   1 H      0.860     0.238     0.929     1.510
  1104   6 C      2.749     0.250    22.793     7.817
  1105   8 O      0.856    -0.510    24.013     6.570
  1106   7 N      2.682    -0.180    24.896     7.410
  1107   1 H      0.860     0.203     1.092     1.637
  1108   6 C      3.787     0.030    20.077     6.382
  1109   1 H      0.924     0.079     1.989     2.206
  1110   6 C      3.800    -0.092    22.246     6.715
  1111   1 H      0.924     0.050     2.319     2.381
  1112   1 H      0.925     0.047     2.355     2.400
  1113   6 C      2.684     0.353    21.000     7.499
  1114   8 O      0.856    -0.590    25.875     6.820
  1115   8 O      0.855    -0.649    27.363     7.013
  1116   6 C      2.778     0.255    22.711     7.805
  1117   8 O      0.857    -0.532    24.514     6.638
  1118   7 N      2.695    -0.161    24.489     7.350
  1119   1 H      0.860     0.238     0.930     1.511
  1120   6 C      3.841     0.030    20.044     6.369
  1121   1 H      0.925     0.085     1.931     2.173
  1122   6 C      3.857    -0.021    20.914     6.504
  1123   1 H      0.924     0.042     2.421     2.433
  1124   6 C      3.756    -0.127    22.992     6.837
  1125   1 H      0.924     0.059     2.206     2.323
  1126   1 H      0.925     0.046     2.371     2.408
  1127   1 H      0.924     0.070     2.085     2.258
  1128   6 C      3.762    -0.126    22.967     6.832
  1129   1 H      0.924     0.068     2.113     2.273
  1130   1 H      0.925     0.039     2.461     2.453
  1131   1 H      0.925     0.053     2.281     2.362
  1132   6 C      2.755     0.281    22.248     7.724
  1133   8 O      0.862    -0.476    23.262     6.467
  1134   7 N      2.687    -0.219    25.784     7.541
  1135   1 H      0.860     0.209     1.062     1.614
  1136   6 C      3.779     0.039    19.939     6.362
  1137   1 H      0.925     0.064     2.149     2.292
  1138   6 C      3.806    -0.101    22.415     6.740
  1139   1 H      0.925     0.029     2.597     2.520
  1140   1 H      0.925     0.051     2.307     2.375
  1141   6 C      2.689     0.370    20.728     7.451
  1142   8 O      0.858    -0.661    27.659     7.051
  1143   8 O      0.859    -0.543    24.759     6.671
  1144   6 C      2.740     0.273    22.386     7.747
  1145   8 O      0.860    -0.459    22.898     6.416
  1146   7 N      2.686    -0.169    24.655     7.375
  1147   1 H      0.860     0.195     1.134     1.668
  1148   6 C      3.791     0.023    20.197     6.400
  1149   1 H      0.924     0.095     1.834     2.118
  1150   6 C      3.751    -0.139    23.244     6.875
  1151   1 H      0.925     0.086     1.916     2.165
  1152   1 H      0.924     0.085     1.927     2.171
  1153   1 H      0.925     0.059     2.209     2.324
  1154   6 C      2.754     0.274    22.368     7.745
  1155   8 O      0.861    -0.489    23.537     6.505
  1156   7 N      2.687    -0.185    25.017     7.428
  1157   1 H      0.860     0.197     1.123     1.660
  1158   6 C      3.771     0.021    20.260     6.414
  1159   1 H      0.925     0.076     2.023     2.224
  1160   6 C      3.749    -0.125    22.954     6.833
  1161   1 H      0.925     0.058     2.225     2.333
[...]
  2294  H   0.987        C 2293 0.948
  2295  C   3.979        C 2298 0.996    C 2293 0.977    H 2297 0.972    H 2296 0.970
  2296  H   0.997        C 2295 0.970
  2297  H   0.995        C 2295 0.972
  2298  C   3.981        C 2301 1.010    C 2295 0.996    H 2300 0.972    H 2299 0.961
  2299  H   0.990        C 2298 0.961
  2300  H   0.995        C 2298 0.972
  2301  C   3.954        C 2298 1.010    N 2304 0.972    H 2302 0.958    H 2303 0.958
  2302  H   0.993        C 2301 0.958
  2303  H   0.997        C 2301 0.958
  2304  N   3.458        C 2306 1.326    C 2301 0.972    H 2305 0.885    N 2310 0.104
  2305  H   0.938        N 2304 0.885
  2306  C   3.979        N 2304 1.326    N 2310 1.326    N 2307 1.297
  2307  N   3.379        C 2306 1.297    H 2308 0.919    H 2309 0.912
  2308  H   0.949        N 2307 0.919
  2309  H   0.945        N 2307 0.912
  2310  N   3.391        C 2306 1.326    H 2311 0.912    H 2312 0.878    N 2304 0.104
  2311  H   0.952        N 2310 0.912
  2312  H   0.929        N 2310 0.878
  2313  C   3.950        O 2314 1.635    N 2315 1.297    C 2293 0.936
  2314  O   1.986        C 2313 1.635    N 2315 0.200
  2315  N   3.468        C 2313 1.297    C 2317 0.971    H 2316 0.914    O 2314 0.200
  2316  H   0.958        N 2315 0.914
  2317  C   3.957        C 2319 0.992    N 2315 0.971    H 2318 0.952    C 2323 0.937
  2318  H   0.992        C 2317 0.952
  2319  C   3.983        C 2317 0.992    H 2322 0.979    H 2321 0.978    H 2320 0.978
  2320  H   0.995        C 2319 0.978
  2321  H   0.996        C 2319 0.978
  2322  H   0.996        C 2319 0.979
  2323  C   3.957        O 2324 1.584    N 2325 1.362    C 2317 0.937
  2324  O   1.919        C 2323 1.584    N 2325 0.198
  2325  N   3.499        C 2323 1.362    C 2327 0.946    H 2326 0.911    O 2324 0.198
  2326  H   0.953        N 2325 0.911
  2327  C   3.948        C 2329 0.975    C 2345 0.970    N 2325 0.946    H 2328 0.943
  2328  H   0.985        C 2327 0.943
  2329  C   3.977        C 2332 0.998    C 2327 0.975    H 2330 0.970    H 2331 0.965
  2330  H   0.995        C 2329 0.970
  2331  H   0.992        C 2329 0.965
  2332  C   3.987        C 2335 1.014    C 2329 0.998    H 2334 0.972    H 2333 0.970
  2333  H   0.994        C 2332 0.970
  2334  H   0.998        C 2332 0.972
  2335  C   3.977        C 2332 1.014    C 2338 1.002    H 2336 0.967    H 2337 0.957
  2336  H   0.993        C 2335 0.967
  2337  H   0.991        C 2335 0.957
  2338  C   3.903        C 2335 1.002    H 2339 0.968    H 2340 0.961    N 2341 0.952
  2339  H   0.986        C 2338 0.968
  2340  H   0.982        C 2338 0.961
  2341  N   3.656        C 2338 0.952    H 2343 0.899    H 2342 0.893    H 2344 0.892
  2342  H   0.915        N 2341 0.893
  2343  H   0.913        N 2341 0.899
  2344  H   0.914        N 2341 0.892
  2345  C   3.943        O 2346 1.578    N 2347 1.286    C 2327 0.970
  2346  O   1.979        C 2345 1.578    N 2347 0.186
  2347  N   3.476        C 2345 1.286    C 2349 1.000    H 2348 0.904    O 2346 0.186
  2348  H   0.950        N 2347 0.904
  2349  C   3.967        N 2347 1.000    C 2351 0.989    H 2350 0.943    C 2369 0.912
  2350  H   0.992        C 2349 0.943
  2351  C   3.988        C 2354 0.999    C 2349 0.989    H 2353 0.968    H 2352 0.965
  2352  H   0.996        C 2351 0.965
  2353  H   0.995        C 2351 0.968
  2354  C   3.986        C 2357 1.004    C 2351 0.999    H 2356 0.966    H 2355 0.964
  2355  H   0.992        C 2354 0.964
  2356  H   0.994        C 2354 0.966
  2357  C   3.951        C 2354 1.004    N 2360 0.971    H 2358 0.966    H 2359 0.961
  2358  H   0.992        C 2357 0.966
  2359  H   0.994        C 2357 0.961
  2360  N   3.453        C 2362 1.305    C 2357 0.971    H 2361 0.901    N 2366 0.102
  2361  H   0.951        N 2360 0.901
  2362  C   3.977        N 2366 1.331    N 2363 1.312    N 2360 1.305
  2363  N   3.383        C 2362 1.312    H 2365 0.915    H 2364 0.913    N 2366 0.101
  2364  H   0.939        N 2363 0.913
  2365  H   0.939        N 2363 0.915
  2366  N   3.395        C 2362 1.331    H 2367 0.915    H 2368 0.870    N 2360 0.102    N 2363 0.101
  2367  H   0.943        N 2366 0.915
  2368  H   0.943        N 2366 0.870
  2369  C   3.944        O 2370 1.617    N 2371 1.323    C 2349 0.912
  2370  O   1.970        C 2369 1.617    N 2371 0.194
  2371  N   3.466        C 2369 1.323    C 2373 0.958    H 2372 0.895    O 2370 0.194
  2372  H   0.949        N 2371 0.895
  2373  C   3.960        C 2375 0.971    N 2371 0.958    C 2385 0.955    H 2374 0.945
  2374  H   0.994        C 2373 0.945
  2375  C   3.986        C 2377 1.010    C 2381 0.993    C 2373 0.971    H 2376 0.960
  2376  H   0.997        C 2375 0.960
  2377  C   3.992        C 2375 1.010    H 2380 0.983    H 2378 0.983    H 2379 0.981
  2378  H   0.999        C 2377 0.983
  2379  H   0.996        C 2377 0.981
  2380  H   0.998        C 2377 0.983
  2381  C   3.986        C 2375 0.993    H 2382 0.985    H 2383 0.984    H 2384 0.977
  2382  H   0.997        C 2381 0.985
  2383  H   0.996        C 2381 0.984
  2384  H   0.997        C 2381 0.977
  2385  C   3.953        O 2386 1.618    N 2387 1.303    C 2373 0.955
  2386  O   1.972        C 2385 1.618    N 2387 0.202
  2387  N   3.456        C 2385 1.303    C 2389 0.953    H 2388 0.905    O 2386 0.202
  2388  H   0.949        N 2387 0.905
  2389  C   3.950        C 2391 0.957    N 2387 0.953    C 2404 0.951    H 2390 0.948
  2390  H   0.991        C 2389 0.948
  2391  C   3.981        C 2393 1.005    C 2397 0.995    H 2392 0.966    C 2389 0.957
  2392  H   0.996        C 2391 0.966
  2393  C   3.982        C 2391 1.005    H 2396 0.983    H 2395 0.979    H 2394 0.966
  2394  H   0.993        C 2393 0.966
  2395  H   0.997        C 2393 0.979
  2396  H   0.996        C 2393 0.983
  2397  C   3.992        C 2400 1.008    C 2391 0.995    H 2399 0.976    H 2398 0.976
  2398  H   0.998        C 2397 0.976
  2399  H   0.998        C 2397 0.976
  2400  C   3.993        C 2397 1.008    H 2401 0.988    H 2402 0.987    H 2403 0.977
  2401  H   0.998        C 2400 0.988
  2402  H   0.998        C 2400 0.987
  2403  H   0.997        C 2400 0.977
  2404  C   3.945        O 2405 1.649    N 2406 1.263    C 2389 0.951
  2405  O   1.985        C 2404 1.649    N 2406 0.190
  2406  N   3.424        C 2404 1.263    C 2408 0.986    H 2407 0.865    O 2405 0.190
  2407  H   0.942        N 2406 0.865
  2408  C   3.967        N 2406 0.986    C 2410 0.955    C 2418 0.943    H 2409 0.942
  2409  H   0.989        C 2408 0.942
  2410  C   3.961        C 2412 0.998    O 2416 0.995    H 2411 0.962    C 2408 0.955
  2411  H   0.999        C 2410 0.962
  2412  C   3.985        C 2410 0.998    H 2415 0.982    H 2414 0.982    H 2413 0.981
  2413  H   0.997        C 2412 0.981
  2414  H   0.993        C 2412 0.982
  2415  H   0.998        C 2412 0.982
  2416  O   1.941        C 2410 0.995    H 2417 0.848
  2417  H   0.892        O 2416 0.848
  2418  C   3.939        O 2419 1.594    N 2420 1.302    C 2408 0.943
  2419  O   1.981        C 2418 1.594    N 2420 0.187
  2420  N   3.460        C 2418 1.302    C 2422 0.958    H 2421 0.911    O 2419 0.187
  2421  H   0.955        N 2420 0.911
  2422  C   3.952        N 2420 0.958    H 2423 0.952    C 2424 0.950    C 2432 0.941
  2423  H   0.990        C 2422 0.952
  2424  C   3.956        C 2426 1.012    O 2430 0.988    H 2425 0.955    C 2422 0.950
  2425  H   0.997        C 2424 0.955
  2426  C   3.986        C 2424 1.012    H 2427 0.979    H 2429 0.977    H 2428 0.972
  2427  H   0.998        C 2426 0.979
  2428  H   0.995        C 2426 0.972
  2429  H   0.996        C 2426 0.977
  2430  O   1.935        C 2424 0.988    H 2431 0.847
  2431  H   0.897        O 2430 0.847
  2432  C   3.958        O 2433 1.548    N 2434 1.395    C 2422 0.941
  2433  O   1.900        C 2432 1.548    N 2434 0.199
  2434  N   3.510        C 2432 1.395    C 2436 0.930    H 2435 0.890    O 2433 0.199
  2435  H   0.946        N 2434 0.890
  2436  C   3.949        C 2438 0.999    C 2452 0.952    H 2437 0.936    N 2434 0.930
  2437  H   0.987        C 2436 0.936
  2438  C   3.983        C 2436 0.999    C 2441 0.982    H 2440 0.964    H 2439 0.949
  2439  H   0.991        C 2438 0.949
  2440  H   0.995        C 2438 0.964
  2441  C   3.979        C 2442 1.426    C 2450 1.397    C 2438 0.982    C 2446 0.121
  2442  C   3.987        C 2444 1.444    C 2441 1.426    H 2443 0.967    C 2448 0.101
  2443  H   0.998        C 2442 0.967
  2444  C   3.986        C 2442 1.444    C 2446 1.429    H 2445 0.971    C 2450 0.113
  2445  H   0.997        C 2444 0.971
  2446  C   3.987        C 2448 1.429    C 2444 1.429    H 2447 0.967    C 2441 0.121
  2447  H   0.998        C 2446 0.967
  2448  C   3.988        C 2450 1.460    C 2446 1.429    H 2449 0.967    C 2442 0.101
  2449  H   0.997        C 2448 0.967
  2450  C   3.988        C 2448 1.460    C 2441 1.397    H 2451 0.964    C 2444 0.113
  2451  H   0.998        C 2450 0.964
  2452  C   3.955        O 2453 1.599    N 2454 1.318    C 2436 0.952
  2453  O   1.956        C 2452 1.599    N 2454 0.193
  2454  N   3.483        C 2452 1.318    C 2456 0.982    H 2455 0.896    O 2453 0.193
  2455  H   0.948        N 2454 0.896
  2456  C   3.961        N 2454 0.982    C 2458 0.976    H 2457 0.950    C 2476 0.937
  2457  H   0.990        C 2456 0.950
  2458  C   3.982        C 2461 1.013    C 2456 0.976    H 2459 0.966    H 2460 0.963
  2459  H   0.994        C 2458 0.966
  2460  H   0.991        C 2458 0.963
  2461  C   3.986        C 2458 1.013    C 2464 0.988    H 2462 0.974    H 2463 0.969
  2462  H   0.996        C 2461 0.974
  2463  H   0.996        C 2461 0.969
  2464  C   3.953        C 2461 0.988    N 2467 0.978    H 2465 0.972    H 2466 0.962
  2465  H   0.992        C 2464 0.972
  2466  H   0.992        C 2464 0.962
  2467  N   3.469        C 2469 1.316    C 2464 0.978    H 2468 0.916    N 2473 0.100
  2468  H   0.947        N 2467 0.916
  2469  C   3.981        N 2470 1.321    N 2467 1.316    N 2473 1.315
  2470  N   3.392        C 2469 1.321    H 2472 0.913    H 2471 0.907    N 2473 0.101
  2471  H   0.934        N 2470 0.907
  2472  H   0.945        N 2470 0.913
  2473  N   3.389        C 2469 1.315    H 2475 0.917    H 2474 0.906    N 2470 0.101    N 2467 0.100
  2474  H   0.932        N 2473 0.906
  2475  H   0.939        N 2473 0.917
  2476  C   3.949        O 2477 1.576    N 2478 1.352    C 2456 0.937
  2477  O   1.909        C 2476 1.576    N 2478 0.190
  2478  N   3.498        C 2476 1.352    C 2480 0.983    H 2479 0.883    O 2477 0.190
  2479  H   0.944        N 2478 0.883
  2480  C   3.964        N 2478 0.983    H 2481 0.948    C 2482 0.947    C 2490 0.934
  2481  H   0.992        C 2480 0.948
  2482  C   3.959        C 2484 1.005    O 2488 0.999    H 2483 0.950    C 2480 0.947
  2483  H   0.995        C 2482 0.950
  2484  C   3.983        C 2482 1.005    H 2487 0.981    H 2486 0.979    H 2485 0.974
  2485  H   0.995        C 2484 0.974
  2486  H   0.997        C 2484 0.979
  2487  H   0.996        C 2484 0.981
  2488  O   1.933        C 2482 0.999    H 2489 0.803
  2489  H   0.880        O 2488 0.803
  2490  C   3.952        O 2491 1.580    N 2492 1.346    C 2480 0.934
  2491  O   1.888        C 2490 1.580    N 2492 0.188
  2492  N   3.498        C 2490 1.346    C 2494 0.995    H 2493 0.896    O 2491 0.188
  2493  H   0.948        N 2492 0.896
  2494  C   3.956        N 2492 0.995    H 2495 0.952    H 2496 0.945    C 2497 0.941
  2495  H   0.987        C 2494 0.952
  2496  H   0.988        C 2494 0.945
  2497  C   3.946        O 2498 1.692    N 2499 1.250    C 2494 0.941
  2498  O   2.002        C 2497 1.692    N 2499 0.193
  2499  N   3.428        C 2497 1.250    C 2501 0.979    H 2500 0.921    O 2498 0.193
  2500  H   0.960        N 2499 0.921
  2501  C   3.968        N 2499 0.979    C 2511 0.954    C 2503 0.953    H 2502 0.945
  2502  H   0.992        C 2501 0.945
  2503  C   3.951        C 2505 1.002    O 2509 0.972    H 2504 0.962    C 2501 0.953
  2504  H   0.998        C 2503 0.962
  2505  C   3.986        C 2503 1.002    H 2506 0.984    H 2507 0.981    H 2508 0.981
  2506  H   0.996        C 2505 0.984
  2507  H   0.996        C 2505 0.981
  2508  H   0.995        C 2505 0.981
  2509  O   1.924        C 2503 0.972    H 2510 0.868
  2510  H   0.898        O 2509 0.868
  2511  C   3.958        O 2512 1.581    N 2513 1.340    C 2501 0.954
  2512  O   1.907        C 2511 1.581    N 2513 0.196
  2513  N   3.502        C 2511 1.340    C 2515 0.978    H 2514 0.913    O 2512 0.196
  2514  H   0.953        N 2513 0.913
  2515  C   3.953        C 2517 0.983    N 2513 0.978    H 2516 0.933    C 2535 0.917
  2516  H   0.990        C 2515 0.933
  2517  C   3.978        C 2520 1.002    C 2515 0.983    H 2519 0.970    H 2518 0.955
  2518  H   0.996        C 2517 0.955
  2519  H   0.996        C 2517 0.970
  2520  C   3.964        C 2521 1.574    C 2534 1.195    C 2517 1.002
  2521  C   3.955        C 2520 1.574    N 2523 1.213    H 2522 0.966
  2522  H   0.996        C 2521 0.966
  2523  N   3.564        C 2521 1.213    C 2525 1.196    H 2524 0.929
  2524  H   0.959        N 2523 0.929
  2525  C   3.962        C 2526 1.353    C 2534 1.212    N 2523 1.196
  2526  C   3.986        C 2528 1.462    C 2525 1.353    H 2527 0.965    C 2532 0.117
  2527  H   0.997        C 2526 0.965
  2528  C   3.988        C 2526 1.462    C 2530 1.407    H 2529 0.961
  2529  H   0.997        C 2528 0.961
  2530  C   3.983        C 2532 1.442    C 2528 1.407    H 2531 0.967
  2531  H   0.998        C 2530 0.967
  2532  C   3.987        C 2530 1.442    C 2534 1.377    H 2533 0.970    C 2526 0.117
  2533  H   0.999        C 2532 0.970
  2534  C   3.982        C 2532 1.377    C 2525 1.212    C 2520 1.195
  2535  C   3.937        O 2536 1.621    N 2537 1.313    C 2515 0.917
  2536  O   1.957        C 2535 1.621    N 2537 0.190
  2537  N   3.466        C 2535 1.313    C 2539 0.958    H 2538 0.913    O 2536 0.190
  2538  H   0.956        N 2537 0.913
  2539  C   3.960        C 2541 0.980    N 2537 0.958    H 2540 0.956    C 2547 0.933
  2540  H   0.997        C 2539 0.956
  2541  C   3.979        C 2539 0.980    H 2542 0.975    H 2543 0.973    C 2544 0.893
  2542  H   0.998        C 2541 0.975
  2543  H   0.998        C 2541 0.973
  2544  C   3.936        O 2546 1.532    O 2545 1.494    C 2541 0.893
  2545  O   1.791        C 2544 1.494    O 2546 0.223
  2546  O   1.832        C 2544 1.532    O 2545 0.223
  2547  C   3.947        O 2548 1.632    N 2549 1.301    C 2539 0.933
  2548  O   1.939        C 2547 1.632    N 2549 0.189
  2549  N   3.469        C 2547 1.301    C 2551 0.979    H 2550 0.914    O 2548 0.189
  2550  H   0.949        N 2549 0.914
  2551  C   3.948        C 2553 0.998    N 2549 0.979    H 2552 0.948    C 2557 0.898
  2552  H   0.992        C 2551 0.948
  2553  C   3.971        C 2551 0.998    H 2554 0.980    H 2556 0.975    H 2555 0.970
  2554  H   0.994        C 2553 0.980
  2555  H   0.991        C 2553 0.970
  2556  H   0.993        C 2553 0.975
  2557  C   3.938        O 2558 1.638    N 2559 1.318    C 2551 0.898
  2558  O   1.950        C 2557 1.638    N 2559 0.195
  2559  N   3.469        C 2557 1.318    C 2561 0.962    H 2560 0.899    O 2558 0.195
  2560  H   0.958        N 2559 0.899
  2561  C   3.955        C 2563 0.974    N 2559 0.962    C 2578 0.945    H 2562 0.938
  2562  H   0.994        C 2561 0.938
  2563  C   3.979        C 2566 0.995    C 2561 0.974    H 2565 0.969    H 2564 0.964
  2564  H   0.996        C 2563 0.964
  2565  H   0.997        C 2563 0.969
  2566  C   3.976        C 2576 1.441    C 2567 1.344    C 2563 0.995    C 2571 0.110
  2567  C   3.988        C 2569 1.536    C 2566 1.344    H 2568 0.964
  2568  H   0.996        C 2567 0.964
  2569  C   3.982        C 2567 1.536    C 2571 1.292    H 2570 0.958
  2570  H   0.994        C 2569 0.958
  2571  C   3.940        C 2574 1.389    C 2569 1.292    O 2572 1.102    C 2566 0.110
  2572  O   2.111        C 2571 1.102    H 2573 0.795
  2573  H   0.880        O 2572 0.795
  2574  C   3.984        C 2576 1.427    C 2571 1.389    H 2575 0.967
  2575  H   0.998        C 2574 0.967
  2576  C   3.988        C 2566 1.441    C 2574 1.427    H 2577 0.966
  2577  H   0.999        C 2576 0.966
  2578  C   3.941        O 2579 1.591    N 2580 1.312    C 2561 0.945
  2579  O   1.904        C 2578 1.591    N 2580 0.192
  2580  N   3.484        C 2578 1.312    C 2582 0.979    H 2581 0.926    O 2579 0.192
  2581  H   0.965        N 2580 0.926
  2582  C   3.951        N 2580 0.979    C 2584 0.971    H 2583 0.960    C 2600 0.901
  2583  H   0.998        C 2582 0.960
  2584  C   3.991        C 2587 1.017    H 2585 0.975    C 2582 0.971    H 2586 0.970
  2585  H   0.999        C 2584 0.975
  2586  H   0.998        C 2584 0.970
  2587  C   3.991        C 2584 1.017    C 2590 0.998    H 2589 0.974    H 2588 0.969
  2588  H   0.997        C 2587 0.969
  2589  H   0.998        C 2587 0.974
  2590  C   3.984        C 2593 1.004    C 2587 0.998    H 2591 0.974    H 2592 0.973
  2591  H   0.994        C 2590 0.974
  2592  H   0.993        C 2590 0.973
  2593  C   3.911        C 2590 1.004    H 2595 0.972    H 2594 0.968    N 2596 0.948
  2594  H   0.987        C 2593 0.968
  2595  H   0.989        C 2593 0.972
  2596  N   3.656        C 2593 0.948    H 2598 0.898    H 2597 0.896    H 2599 0.893
  2597  H   0.906        N 2596 0.896
  2598  H   0.910        N 2596 0.898
  2599  H   0.909        N 2596 0.893
  2600  C   3.935        O 2601 1.538    O 2602 1.453    C 2582 0.901
  2601  O   1.831        C 2600 1.538    O 2602 0.218
  2602  O   1.750        C 2600 1.453    O 2601 0.218
  2603  C   3.987        C 2605 1.462    C 2613 1.401    H 2604 0.964    C 2609 0.102
  2604  H   0.998        C 2603 0.964
  2605  C   3.988        C 2603 1.462    C 2607 1.404    H 2606 0.969    C 2611 0.119
  2606  H   0.997        C 2605 0.969
  2607  C   3.990        C 2609 1.471    C 2605 1.404    H 2608 0.966    C 2613 0.111
  2608  H   0.997        C 2607 0.966
  2609  C   3.993        C 2607 1.471    C 2611 1.424    H 2610 0.965    C 2603 0.102
  2610  H   1.000        C 2609 0.965
  2611  C   3.989        C 2609 1.424    C 2613 1.422    H 2612 0.969    C 2605 0.119
  2612  H   0.999        C 2611 0.969
  2613  C   3.984        C 2611 1.422    C 2603 1.401    C 2614 1.013    C 2607 0.111
  2614  C   3.992        C 2613 1.013    H 2615 0.979    H 2616 0.968    H 2617 0.964
  2615  H   0.997        C 2614 0.979
  2616  H   0.997        C 2614 0.968
  2617  H   0.998        C 2614 0.964

molecular dipole:
                 x           y           z       tot (Debye)
 q only:      599.301     675.562     669.247
   full:      600.221     676.674     676.237    2870.542
molecular quadrupole (traceless):
                xx          xy          yy          xz          yz          zz
 q only:   -10789.357   71417.894    7535.731   70068.782   79868.851    3253.625
  q+dip:   -11384.299   71242.608    6904.263   70816.316   80680.390    4480.036
   full:   -11367.623   71239.092    6886.338   70821.608   80677.473    4481.285


           -------------------------------------------------
          | TOTAL ENERGY            -4104.077900736313 Eh   |
          | GRADIENT NORM               1.400564822087 Eh/α |
          | HOMO-LUMO GAP               1.565099910440 eV   |
           -------------------------------------------------

------------------------------------------------------------------------
 * finished run on 2020/07/25 at 04:50:46.048     
------------------------------------------------------------------------
 total:
 * wall-time:     0 d,  0 h,  6 min, 58.810 sec
 *  cpu-time:     0 d,  5 h,  8 min, 47.253 sec
 * ratio c/w:    44.238 speedup
 SCF:
 * wall-time:     0 d,  0 h,  6 min, 27.201 sec
 *  cpu-time:     0 d,  4 h, 56 min, 43.630 sec
 * ratio c/w:    45.980 speedup

