      -----------------------------------------------------------      
     |                   =====================                   |     
     |                           x T B                           |     
     |                   =====================                   |     
     |                         S. Grimme                         |     
     |          Mulliken Center for Theoretical Chemistry        |     
     |                    University of Bonn                     |     
      -----------------------------------------------------------      

   * xtb version 6.2.3 (d7bf61a) compiled by 'conda@06d140edd85e' on 2020-05-12

   xtb is free software: you can redistribute it and/or modify it under
   the terms of the GNU Lesser General Public License as published by
   the Free Software Foundation, either version 3 of the License, or
   (at your option) any later version.
   
   xtb is distributed in the hope that it will be useful,
   but WITHOUT ANY WARRANTY; without even the implied warranty of
   MERCHANTABILITY or FITNESS FOR A PARTICULAR PURPOSE.  See the
   GNU Lesser General Public License for more details.
   
   Cite this work as:
   * S. Grimme, C. Bannwarth, P. Shushkov, J. Chem. Theory Comput., 2017,
     13, 1989-2009. DOI: 10.1021/acs.jctc.7b00118
   * C. Bannwarth, S. Ehlert and S. Grimme., J. Chem. Theory Comput., 2019,
     15, 1652-1671. DOI: 10.1021/acs.jctc.8b01176
   * P. Pracht, E. Caldeweyher, S. Ehlert, S. Grimme, ChemRxiv, 2019, preprint.
     DOI: 10.26434/chemrxiv.8326202.v1
   
   for DFT-D4:
   * E. Caldeweyher, C. Bannwarth and S. Grimme, J. Chem. Phys., 2017,
     147, 034112. DOI: 10.1063/1.4993215
   * E. Caldeweyher, S. Ehlert, A. Hansen, H. Neugebauer, S. Spicher,
     C. Bannwarth and S. Grimme, J. Chem. Phys., 2019, 150, 154122.
     DOI: 10.1063/1.5090222
   
   for sTDA-xTB:
   * S. Grimme and C. Bannwarth, J. Chem. Phys., 2016, 145, 054103.
     DOI: 10.1063/1.4959605
   
   in the mass-spec context:
   * V. Asgeirsson, C. Bauer and S. Grimme, Chem. Sci., 2017, 8, 4879.
     DOI: 10.1039/c7sc00601b
   
   for metadynamics refer to:
   * S. Grimme, J. Chem. Theory Comput., 2019, 155, 2847-2862
     DOI: 10.1021/acs.jctc.9b00143
   
   with help from (in alphabetical order)
   C. Bannwarth, F. Bohle, G. Brandenburg, E. Caldeweyher, M. Checinski,
   S. Dohm, S. Ehlert, S. Ehrlich, F. März, H. Neugebauer, J. Pisarek,
   P. Pracht, P. Shushkov, and S. Spicher.
   
 * started run on 2020/07/25 at 01:59:06.284     

           -------------------------------------------------
          |                Calculation Setup                |
           -------------------------------------------------

          program call               : xtb complex_9981.xyz --chrg +9 --uhf 0 --gbsa water
          hostname                   : gold54.cluster.local
          coordinate file            : complex_9981.xyz
          omp threads                :                    64
          number of atoms            :                  2617
          number of electrons        :                  7228
          charge                     :                     9
          spin                       :                   0.0
          first test random number   :      0.20170412177855


molecular fragmentation (1/2 indicates fragments):
111111111111111111111111111111111111111111111111111111111111111111111111
111111111111111111111111111111111111111111111111111111111111111111111111
111111111111111111111111111111111111111111111111111111111111111111111111
111111111111111111111111111111111111111111111111111111111111111111111111
111111111111111111111111111111111111111111111111111111111111111111111111
111111111111111111111111111111111111111111111111111111111111111111111111
111111111111111111111111111111111111111111111111111111111111111111111111
111111111111111111111111111111111111111111111111111111111111111111111111
111111111111111111111111111111111111111111111111111111111111111111111111
111111111111111111111111111111111111111111111111111111111111111111111111
111111111111111111111111111111111111111111111111111111111111111111111111
111111111111111111111111111111111111111111111111111111111111111111111111
111111111111111111111111111111111111111111111111111111111111111111111111
111111111111111111111111111111111111111111111111111111111111111111111111
111111111111111111111111111111111111111111111111111111111111111111111111
111111111111111111111111111111111111111111111111111111111111111111111111
111111111111111111111111111111111111111111111111111111111111111111111111
111111111111111111111111111111111111111111111111111111111111111111111111
111111111111111111111111111111111111111111111111111111111111111111111111
111111111111111111111111111111111111111111111111111111111111111111111111
111111111111111111111111111111111111111111111111111111111111111111111111
111111111111111111111111111111111111111111111111111111111111111111111111
111111111111111111111111111111111111111111111111111111111111111111111111
111111111111111111111111111111111111111111111111111111111111111111111111
111111111111111111111111111111111111111111111111111111111111111111111111
111111111111111111111111111111111111111111111111111111111111111111111111
111111111111111111111111111111111111111111111111111111111111111111111111
111111111111111111111111111111111111111111111111111111111111111111111111
111111111111111111111111111111111111111111111111111111111111111111111111
111111111111111111111111111111111111111111111111111111111111111111111111
111111111111111111111111111111111111111111111111111111111111111111111111
111111111111111111111111111111111111111111111111111111111111111111111111
111111111111111111111111111111111111111111111111111111111111111111111111
111111111111111111111111111111111111111111111111111111111111111111111111
111111111111111111111111111111111111111111111111111111111111111111111111
111111111111111111111111111111111111111111111111111111111111111111111111
1111111111222222222222222
# atoms in fragment 1/2:  2602    15
 fragment masses (1/2) :    18371.93       92.14
CMA distance (Bohr)    :  19.258
constraining FC (au)   :  0.0500
########################################################################
[WARNING] Please study the warnings concerning your input carefully
-2- prog_main: XTBPATH is not set, using XTBHOME instead
-1- prog_main: XTBHOME is not set, using HOME instead
########################################################################
           ------------------------------------------------- 
          |                 G F N 2 - x T B                 |
          | Geometry, Frequencies, Noncovalent interactions |
          |            JCTC 2019 parametrisation            |
           ------------------------------------------------- 
             k(s)              :                1.8500
             k(p)              :                2.2300
             k(d)              :                2.2300
             k(f)              :                2.0000
             kEN (H0ij)        :               -2.0000
             D4 a1             :                0.5200
             D4 a2             :                5.0000
             D4 s6             :                1.0000
             D4 s8             :                2.7000
             D4 s9             :                5.0000
             alphaj            :                2.0000

  Z AO/shell   Hii/eV     exponent
  1     Wed Apr 25 08:07:45 CEST 2018   EN: 2.200 GM2: 0.406  GM3: 0.0800  RAES: 1.40
     1s    -10.707211    1.230000
  6     Wed Apr 25 08:07:45 CEST 2018   EN: 2.550 GM2: 0.538  GM3: 0.1500  RAES: 3.00
     2s    -13.970922    2.096432
     2p    -10.063292    1.800000
  7     Wed Apr 25 08:07:45 CEST 2018   EN: 3.040 GM2: 0.461  GM3:-0.0640  RAES: 1.90
     2s    -16.686243    2.339881
     2p    -12.523956    2.014332
  8     Wed Apr 25 08:07:45 CEST 2018   EN: 3.440 GM2: 0.452  GM3:-0.0517  RAES: 1.80
     2s    -20.229985    2.439742
     2p    -15.503117    2.137023
 16     Tue Apr 24 11:44:34 CEST 2018   EN: 2.580 GM2: 0.340  GM3:-0.0502  RAES: 3.10
     3s    -20.029654    1.981333
     3p    -11.377694    2.025643
     3d     -0.420282    1.702555

 Solvent             : water
 Using internal parameter file: .param_gbsa2_water
 Gsolv ref. state (COSMO-RS): gsolv [1 M gas/solution]
 temperature (mdtemp)       :    298.14999999999998     
 dielectric constant        :    80.200000000000003     
 rho                        :    1.0000000000000000     
 mass                       :    18.000000000000000     
 surface tension            :    15.568945408385856     
 probe radius               :   0.97531378999999996     
 Gshift (Eh)                :    1.8574431267947933E-003
 c1                         :    1.5524381700000001     
 soset                      :   0.13032636000000000     
 HB correction              :  T
           ------------------------------------------------- 
          |        Self-Consistent Charge Iterations        |
           ------------------------------------------------- 

          ...................................................
          :                      SETUP                      :
          :.................................................:
          :  # basis functions                6547          :
          :  # atomic orbitals                6541          :
          :  # shells                         3921          :
          :  # electrons                      7228          :
          :  max. iterations                   250          :
          :  Hamiltonian                  GFN2-xTB          :
          :  restarted?                      false          :
          :  GBSA solvation                   true          :
          :  PC potential                    false          :
          :  electronic temp.          300.0000000     K    :
          :  accuracy                    1.0000000          :
          :  -> integral cutoff          0.2500000E+02      :
          :  -> integral neglect         0.1000000E-07      :
          :  -> SCF convergence          0.1000000E-05 Eh   :
          :  -> wf. convergence          0.1000000E-03 e    :
          :  Broyden damping             0.4000000          :
          ...................................................

 iter      E             dE          RMSdq      gap      omega  full diag
   1  -4139.7265279 -0.413973E+04  0.428E+00    2.32       0.0  T
   2  -4152.0001806 -0.122737E+02  0.226E+00    2.34       1.0  T
   3  -4152.4789530 -0.478772E+00  0.119E+00    2.20       1.0  T
   4  -4152.5409148 -0.619618E-01  0.300E-01    1.88       1.0  T
   5  -4152.6601049 -0.119190E+00  0.147E-01    1.83       1.0  T
   6  -4152.6761287 -0.160239E-01  0.760E-02    1.92       1.0  T
   7  -4152.6787770 -0.264822E-02  0.400E-02    1.93       1.0  T
   8  -4152.6799656 -0.118867E-02  0.182E-02    1.91       1.0  T
   9  -4152.6801779 -0.212235E-03  0.113E-02    1.89       1.0  T
  10  -4152.6802902 -0.112351E-03  0.597E-03    1.87       1.0  T
  11  -4152.6803215 -0.312356E-04  0.301E-03    1.86       1.0  T
  12  -4152.6803300 -0.854255E-05  0.165E-03    1.86       1.2  T
  13  -4152.6803326 -0.255389E-05  0.896E-04    1.86       2.2  T
  14  -4152.6803333 -0.723322E-06  0.473E-04    1.85       4.1  T
  15  -4152.6803335 -0.229547E-06  0.252E-04    1.85       7.7  T

   *** convergence criteria satisfied after 15 iterations ***

         #    Occupation            Energy/Eh            Energy/eV
      -------------------------------------------------------------
         1        2.0000           -0.7610193             -20.7084
       ...           ...                  ...                  ...
      3608        2.0000           -0.3620530              -9.8520
      3609        2.0000           -0.3612434              -9.8299
      3610        2.0000           -0.3606780              -9.8145
      3611        2.0000           -0.3576172              -9.7313
      3612        2.0000           -0.3565240              -9.7015
      3613        2.0000           -0.3562980              -9.6954
      3614        2.0000           -0.3552359              -9.6665 (HOMO)
      3615                         -0.2870924              -7.8122 (LUMO)
      3616                         -0.2733754              -7.4389
      3617                         -0.2699578              -7.3459
      3618                         -0.2674711              -7.2783
      3619                         -0.2659732              -7.2375
       ...                                ...                  ...
      6541                          0.7266319              19.7727
      -------------------------------------------------------------
                  HL-Gap            0.0681435 Eh            1.8543 eV
             Fermi-level           -0.3211642 Eh           -8.7393 eV

 SCC (total)                   0 d,  0 h,  6 min, 18.331 sec
 SCC setup                      ...        0 min,  3.164 sec (  0.836%)
 Dispersion                     ...        0 min,  2.006 sec (  0.530%)
 integral evaluation            ...        0 min, 11.702 sec (  3.093%)
 zeroth order Hamiltonian       ...        0 min,  0.347 sec (  0.092%)
 iterations                     ...        5 min, 43.216 sec ( 90.719%)
 molecular gradient             ...        0 min, 17.189 sec (  4.543%)
 printout                       ...        0 min,  0.706 sec (  0.187%)

         :::::::::::::::::::::::::::::::::::::::::::::::::::::
         ::                     SUMMARY                     ::
         :::::::::::::::::::::::::::::::::::::::::::::::::::::
         :: total energy           -4104.316219308295 Eh    ::
         :: total w/o Gsasa/hb     -4103.910588637431 Eh    ::
         :: gradient norm              1.302793750834 Eh/a0 ::
         :: HOMO-LUMO gap              1.854279328908 eV    ::
         ::.................................................::
         :: SCC energy             -4152.745326477022 Eh    ::
         :: -> isotropic ES           14.301589136531 Eh    ::
         :: -> anisotropic ES         -0.772245955958 Eh    ::
         :: -> anisotropic XC          1.174282831095 Eh    ::
         :: -> dispersion             -3.949724838492 Eh    ::
         :: -> Gsolv                  -4.109288691878 Eh    ::
         ::    -> Gborn               -3.703658021013 Eh    ::
         ::    -> Gsasa               -0.066850411608 Eh    ::
         ::    -> Ghb                 -0.340637702384 Eh    ::
         ::    -> Gshift               0.001857443127 Eh    ::
         :: repulsion energy          47.874402256797 Eh    ::
         :: add. restraining           0.000000000000 Eh    ::
         :::::::::::::::::::::::::::::::::::::::::::::::::::::

           -------------------------------------------------
          |                Property Printout                |
           -------------------------------------------------

    * Orbital Energies and Occupations

         #    Occupation            Energy/Eh            Energy/eV
      -------------------------------------------------------------
         1        2.0000           -0.7610193             -20.7084
       ...           ...                  ...                  ...
      3602        2.0000           -0.3652282              -9.9384
      3603        2.0000           -0.3647166              -9.9244
      3604        2.0000           -0.3645011              -9.9186
      3605        2.0000           -0.3636438              -9.8953
      3606        2.0000           -0.3625096              -9.8644
      3607        2.0000           -0.3622489              -9.8573
      3608        2.0000           -0.3620530              -9.8520
      3609        2.0000           -0.3612434              -9.8299
      3610        2.0000           -0.3606780              -9.8145
      3611        2.0000           -0.3576172              -9.7313
      3612        2.0000           -0.3565240              -9.7015
      3613        2.0000           -0.3562980              -9.6954
      3614        2.0000           -0.3552359              -9.6665 (HOMO)
      3615                         -0.2870924              -7.8122 (LUMO)
      3616                         -0.2733754              -7.4389
      3617                         -0.2699578              -7.3459
      3618                         -0.2674711              -7.2783
      3619                         -0.2659732              -7.2375
      3620                         -0.2657236              -7.2307
      3621                         -0.2650253              -7.2117
      3622                         -0.2646823              -7.2024
      3623                         -0.2635070              -7.1704
      3624                         -0.2629935              -7.1564
      3625                         -0.2620208              -7.1299
       ...                                ...                  ...
      6541                          0.7266319              19.7727
      -------------------------------------------------------------
                  HL-Gap            0.0681435 Eh            1.8543 eV
             Fermi-level           -0.3211642 Eh           -8.7393 eV

     #   Z        covCN         q      C6AA      α(0)
     1   7 N      3.490    -0.148    24.187     7.304
     2   1 H      0.860     0.316     0.668     1.280
     3   1 H      0.860     0.299     0.716     1.326
     4   1 H      0.860     0.317     0.666     1.278
     5   6 C      3.784    -0.032    21.167     6.553
     6   1 H      0.924     0.121     1.602     1.979
     7   6 C      3.875    -0.104    22.424     6.733
     8   1 H      0.924     0.098     1.801     2.099
     9   1 H      0.925     0.103     1.760     2.074
    10   6 C      3.796    -0.022    20.973     6.521
    11   1 H      0.925     0.053     2.283     2.363
    12   1 H      0.925     0.076     2.024     2.225
    13  16 S      2.013    -0.204   149.737    20.595
    14   6 C      3.741    -0.063    21.795     6.661
    15   1 H      0.924     0.053     2.284     2.364
    16   1 H      0.925     0.041     2.439     2.442
    17   1 H      0.924     0.048     2.350     2.397
    18   6 C      2.747     0.287    22.135     7.704
    19   8 O      0.863    -0.436    22.420     6.348
    20   7 N      2.687    -0.157    24.401     7.336
    21   1 H      0.860     0.204     1.084     1.631
    22   6 C      3.787     0.016    20.314     6.419
    23   1 H      0.925     0.100     1.789     2.092
    24   6 C      3.807    -0.107    22.541     6.759
    25   1 H      0.925     0.093     1.852     2.128
    26   1 H      0.924     0.102     1.768     2.079
    27   6 C      2.744     0.293    22.022     7.684
    28   8 O      0.859    -0.486    23.473     6.496
    29   7 N      2.634    -0.277    27.160     7.740
    30   1 H      0.860     0.214     1.037     1.595
    31   1 H      0.860     0.233     0.953     1.529
    32   6 C      2.752     0.286    22.154     7.707
    33   8 O      0.861    -0.482    23.387     6.484
    34   7 N      2.696    -0.190    25.117     7.443
    35   1 H      0.860     0.223     0.997     1.564
    36   6 C      3.795     0.016    20.320     6.419
    37   1 H      0.925     0.090     1.884     2.146
    38   6 C      3.854    -0.042    21.281     6.561
    39   1 H      0.925     0.073     2.052     2.240
    40   6 C      3.752    -0.137    23.202     6.869
    41   1 H      0.925     0.066     2.135     2.285
    42   1 H      0.925     0.042     2.423     2.434
    43   1 H      0.925     0.056     2.249     2.345
    44   6 C      3.802    -0.074    21.914     6.665
    45   1 H      0.925     0.037     2.492     2.469
    46   1 H      0.925     0.054     2.270     2.356
    47   6 C      3.745    -0.119    22.849     6.819
    48   1 H      0.924     0.044     2.398     2.422
    49   1 H      0.924     0.059     2.206     2.323
    50   1 H      0.925     0.034     2.531     2.488
    51   6 C      2.754     0.281    22.247     7.724
    52   8 O      0.862    -0.509    23.992     6.567
    53   7 N      2.681    -0.172    24.719     7.384
    54   1 H      0.860     0.225     0.987     1.556
    55   6 C      3.782     0.023    20.201     6.403
    56   1 H      0.925     0.087     1.909     2.161
    57   6 C      3.802    -0.079    22.006     6.679
    58   1 H      0.925     0.062     2.180     2.309
    59   1 H      0.924     0.063     2.159     2.298
    60   6 C      2.952     0.013    27.721     8.636
    61   6 C      2.908    -0.046    29.142     8.852
    62   1 H      0.926     0.059     2.208     2.324
    63   6 C      2.908    -0.039    28.969     8.825
    64   1 H      0.926     0.054     2.272     2.357
    65   6 C      2.906    -0.031    28.762     8.794
    66   1 H      0.926     0.038     2.479     2.462
    67   6 C      2.903    -0.033    28.820     8.802
    68   1 H      0.926     0.021     2.713     2.576
    69   6 C      2.902    -0.041    29.025     8.834
    70   1 H      0.926     0.033     2.537     2.491
    71   6 C      2.756     0.262    22.587     7.783
    72   8 O      0.859    -0.501    23.809     6.542
    73   7 N      2.685    -0.188    25.073     7.437
    74   1 H      0.860     0.223     0.994     1.562
    75   6 C      3.794     0.022    20.218     6.403
    76   1 H      0.924     0.082     1.958     2.188
    77   6 C      3.802    -0.057    21.606     6.618
    78   1 H      0.925     0.045     2.380     2.413
    79   1 H      0.925     0.071     2.070     2.250
    80   6 C      3.787    -0.103    22.488     6.754
    81   1 H      0.925     0.030     2.585     2.514
    82   1 H      0.925     0.034     2.524     2.484
    83   6 C      2.671     0.349    21.066     7.510
    84   8 O      0.857    -0.640    27.113     6.981
    85   8 O      0.857    -0.625    26.730     6.932
    86   6 C      2.750     0.270    22.433     7.756
    87   8 O      0.861    -0.478    23.300     6.472
    88   7 N      2.707    -0.204    25.423     7.489
    89   1 H      0.860     0.221     1.007     1.572
    90   6 C      3.804     0.036    19.970     6.362
    91   1 H      0.925     0.066     2.132     2.283
    92   6 C      3.903    -0.069    21.755     6.630
    93   1 H      0.925     0.062     2.173     2.306
    94   1 H      0.925     0.069     2.102     2.267
    95   6 C      3.799    -0.018    20.899     6.509
    96   1 H      0.924     0.051     2.311     2.377
    97   1 H      0.925     0.044     2.393     2.419
    98  16 S      2.006    -0.191   149.174    20.557
    99   6 C      3.743    -0.069    21.896     6.676
   100   1 H      0.925     0.077     2.007     2.215
   101   1 H      0.925     0.065     2.143     2.289
   102   1 H      0.925     0.050     2.320     2.382
   103   6 C      2.778     0.277    22.323     7.739
   104   8 O      0.858    -0.479    23.323     6.475
   105   7 N      2.695    -0.192    25.174     7.452
   106   1 H      0.860     0.222     1.000     1.567
   107   6 C      3.802     0.031    20.057     6.376
   108   1 H      0.925     0.069     2.097     2.265
   109   6 C      3.815    -0.078    21.977     6.672
   110   1 H      0.924     0.044     2.394     2.419
   111   1 H      0.924     0.073     2.050     2.239
   112   6 C      3.841    -0.018    20.860     6.497
   113   1 H      0.924     0.051     2.306     2.375
   114   6 C      3.748    -0.119    22.852     6.818
   115   1 H      0.925     0.045     2.384     2.415
   116   1 H      0.924     0.031     2.571     2.508
   117   1 H      0.925     0.061     2.186     2.312
   118   6 C      3.748    -0.118    22.821     6.813
   119   1 H      0.925     0.039     2.464     2.455
   120   1 H      0.925     0.042     2.421     2.433
   121   1 H      0.924     0.026     2.645     2.543
   122   6 C      2.757     0.270    22.445     7.758
   123   8 O      0.858    -0.514    24.088     6.580
   124   7 N      2.695    -0.192    25.174     7.452
   125   1 H      0.860     0.234     0.948     1.525
   126   6 C      3.794     0.025    20.153     6.393
   127   1 H      0.925     0.070     2.084     2.257
   128   6 C      3.804    -0.090    22.223     6.711
   129   1 H      0.925     0.083     1.945     2.181
   130   1 H      0.925     0.083     1.944     2.181
   131   6 C      3.793    -0.093    22.285     6.722
   132   1 H      0.924     0.088     1.899     2.155
   133   1 H      0.924     0.080     1.978     2.199
   134   6 C      3.727    -0.035    21.307     6.590
   135   1 H      0.924     0.108     1.711     2.045
   136   1 H      0.925     0.074     2.045     2.236
   137   7 N      2.724    -0.162    24.494     7.351
   138   1 H      0.860     0.233     0.953     1.530
   139   6 C      2.735     0.253    22.743     7.808
   140   7 N      2.708    -0.252    26.550     7.653
   141   1 H      0.860     0.259     0.850     1.444
   142   1 H      0.860     0.231     0.962     1.537
   143   7 N      2.727    -0.262    26.798     7.688
   144   1 H      0.860     0.253     0.874     1.464
   145   1 H      0.860     0.247     0.895     1.482
   146   6 C      2.751     0.270    22.437     7.756
   147   8 O      0.859    -0.499    23.768     6.536
   148   7 N      2.679    -0.196    25.259     7.464
   149   1 H      0.860     0.223     0.994     1.562
   150   6 C      3.770     0.017    20.314     6.423
   151   1 H      0.925     0.091     1.871     2.139
   152   6 C      3.842    -0.017    20.842     6.494
   153   1 H      0.924     0.039     2.465     2.455
   154   6 C      3.756    -0.115    22.749     6.801
   155   1 H      0.925     0.056     2.251     2.346
   156   1 H      0.925     0.037     2.495     2.470
   157   1 H      0.924     0.052     2.299     2.371
   158   6 C      3.796    -0.077    21.982     6.676
   159   1 H      0.925     0.048     2.347     2.396
   160   1 H      0.925     0.047     2.362     2.403
   161   6 C      3.741    -0.102    22.521     6.771
   162   1 H      0.924     0.042     2.422     2.434
   163   1 H      0.925     0.052     2.289     2.366
   164   1 H      0.925     0.027     2.626     2.534
   165   6 C      2.734     0.268    22.476     7.762
   166   8 O      0.863    -0.501    23.795     6.540
   167   7 N      2.683    -0.183    24.975     7.422
   168   1 H      0.860     0.184     1.192     1.710
   169   6 C      3.782     0.033    20.038     6.377
   170   1 H      0.925     0.103     1.762     2.076
   171   6 C      3.802    -0.100    22.411     6.740
   172   1 H      0.925     0.046     2.371     2.408
   173   1 H      0.925     0.039     2.465     2.455
   174   6 C      2.683     0.360    20.887     7.479
   175   8 O      0.856    -0.562    25.200     6.730
   176   8 O      0.856    -0.624    26.715     6.930
   177   6 C      2.749     0.269    22.453     7.759
   178   8 O      0.858    -0.478    23.308     6.473
   179   7 N      2.683    -0.190    25.111     7.442
   180   1 H      0.860     0.207     1.073     1.623
   181   6 C      3.791     0.028    20.113     6.387
   182   1 H      0.925     0.088     1.897     2.154
   183   6 C      3.801    -0.044    21.368     6.581
   184   1 H      0.925     0.045     2.385     2.415
   185   1 H      0.924     0.041     2.435     2.440
   186   6 C      3.794    -0.092    22.252     6.717
   187   1 H      0.925     0.009     2.904     2.665
   188   1 H      0.924     0.019     2.752     2.594
   189   6 C      2.683     0.354    20.988     7.497
   190   8 O      0.856    -0.648    27.330     7.009
   191   8 O      0.856    -0.634    26.964     6.962
   192   6 C      2.749     0.277    22.306     7.733
   193   8 O      0.859    -0.474    23.225     6.461
   194   7 N      2.679    -0.173    24.748     7.388
   195   1 H      0.860     0.201     1.100     1.643
   196   6 C      3.730    -0.050    21.564     6.629
   197   1 H      0.925     0.106     1.733     2.059
   198   1 H      0.924     0.108     1.715     2.048
   199   6 C      2.743     0.272    22.401     7.749
   200   8 O      0.860    -0.505    23.894     6.554
   201   7 N      2.687    -0.152    24.299     7.321
   202   1 H      0.860     0.216     1.027     1.587
   203   6 C      3.762    -0.007    20.750     6.493
   204   1 H      0.925     0.079     1.992     2.207
   205   6 C      3.794    -0.075    21.944     6.671
   206   1 H      0.924     0.066     2.126     2.280
   207   1 H      0.925     0.051     2.310     2.377
   208   6 C      3.841    -0.016    20.831     6.493
   209   1 H      0.924     0.055     2.263     2.352
   210   6 C      3.749    -0.131    23.091     6.854
   211   1 H      0.925     0.036     2.497     2.471
   212   1 H      0.925     0.047     2.353     2.399
   213   1 H      0.925     0.036     2.501     2.473
   214   6 C      3.759    -0.119    22.839     6.813
   215   1 H      0.925     0.043     2.405     2.425
   216   1 H      0.925     0.046     2.376     2.410
   217   1 H      0.924     0.034     2.524     2.485
   218   6 C      2.726     0.266    22.515     7.768
   219   8 O      0.858    -0.454    22.795     6.401
   220   7 N      2.685    -0.141    24.058     7.285
   221   1 H      0.860     0.201     1.102     1.645
   222   6 C      3.785     0.011    20.412     6.435
   223   1 H      0.925     0.092     1.861     2.134
   224   6 C      3.807    -0.093    22.270     6.718
   225   1 H      0.924     0.085     1.926     2.170
   226   1 H      0.924     0.064     2.157     2.297
   227   6 C      3.803    -0.091    22.225     6.712
   228   1 H      0.925     0.063     2.160     2.298
   229   1 H      0.925     0.092     1.858     2.132
   230   6 C      3.733    -0.039    21.360     6.596
   231   1 H      0.925     0.101     1.774     2.083
   232   1 H      0.924     0.098     1.807     2.102
   233   7 N      2.721    -0.164    24.539     7.357
   234   1 H      0.860     0.221     1.003     1.569
   235   6 C      2.737     0.246    22.871     7.830
   236   7 N      2.717    -0.257    26.673     7.670
   237   1 H      0.860     0.259     0.850     1.444
   238   1 H      0.860     0.257     0.855     1.449
   239   7 N      2.749    -0.250    26.501     7.646
   240   1 H      0.860     0.240     0.923     1.505
   241   1 H      0.861     0.218     1.016     1.579
   242   6 C      2.738     0.254    22.725     7.805
   243   8 O      0.858    -0.490    23.570     6.509
   244   7 N      2.674    -0.174    24.762     7.391
   245   1 H      0.860     0.215     1.035     1.594
   246   6 C      3.765    -0.006    20.732     6.490
   247   1 H      0.925     0.103     1.762     2.076
   248   6 C      3.789    -0.082    22.081     6.692
   249   1 H      0.925     0.079     1.992     2.207
   250   1 H      0.925     0.066     2.127     2.281
   251   6 C      3.848    -0.012    20.765     6.482
   252   1 H      0.925     0.043     2.405     2.425
   253   6 C      3.758    -0.125    22.945     6.829
   254   1 H      0.925     0.050     2.319     2.382
   255   1 H      0.925     0.040     2.445     2.445
   256   1 H      0.924     0.047     2.360     2.403
   257   6 C      3.753    -0.116    22.777     6.806
   258   1 H      0.925     0.034     2.534     2.489
   259   1 H      0.925     0.031     2.571     2.508
   260   1 H      0.925     0.040     2.443     2.444
   261   6 C      2.740     0.269    22.447     7.757
   262   8 O      0.858    -0.451    22.718     6.390
   263   7 N      2.686    -0.164    24.549     7.359
   264   1 H      0.860     0.207     1.073     1.623
   265   6 C      3.774     0.002    20.572     6.463
   266   1 H      0.925     0.088     1.899     2.155
   267   6 C      3.804    -0.081    22.041     6.684
   268   1 H      0.924     0.060     2.202     2.320
   269   1 H      0.925     0.064     2.150     2.293
   270   6 C      3.798    -0.090    22.226     6.713
   271   1 H      0.924     0.071     2.079     2.255
   272   1 H      0.924     0.058     2.226     2.333
   273   6 C      3.791    -0.098    22.386     6.738
   274   1 H      0.924     0.078     1.998     2.210
   275   1 H      0.925     0.085     1.926     2.170
   276   6 C      3.726    -0.060    21.753     6.659
   277   1 H      0.925     0.129     1.539     1.940
   278   1 H      0.924     0.114     1.662     2.016
   279   7 N      3.487    -0.140    24.031     7.281
   280   1 H      0.860     0.295     0.729     1.338
   281   1 H      0.860     0.304     0.700     1.311
   282   1 H      0.860     0.292     0.737     1.344
   283   6 C      2.744     0.266    22.502     7.767
   284   8 O      0.861    -0.502    23.834     6.546
   285   7 N      2.685    -0.158    24.429     7.341
   286   1 H      0.860     0.234     0.950     1.527
   287   6 C      3.780    -0.006    20.715     6.484
   288   1 H      0.924     0.065     2.145     2.291
   289   6 C      3.841    -0.032    21.123     6.538
   290   1 H      0.925     0.079     1.994     2.208
   291   6 C      3.753    -0.133    23.125     6.857
   292   1 H      0.925     0.044     2.399     2.422
   293   1 H      0.925     0.039     2.456     2.451
   294   1 H      0.924     0.089     1.893     2.151
   295   6 C      3.800    -0.087    22.156     6.702
   296   1 H      0.925     0.065     2.139     2.287
   297   1 H      0.925     0.033     2.547     2.496
   298   6 C      3.747    -0.137    23.208     6.871
   299   1 H      0.924     0.067     2.120     2.277
   300   1 H      0.925     0.036     2.501     2.473
   301   1 H      0.925     0.055     2.261     2.351
   302   6 C      2.761     0.274    22.375     7.746
   303   8 O      0.857    -0.475    23.239     6.463
   304   7 N      2.687    -0.147    24.184     7.304
   305   1 H      0.860     0.227     0.977     1.548
   306   6 C      3.790     0.012    20.384     6.430
   307   1 H      0.924     0.108     1.712     2.046
   308   6 C      3.792    -0.102    22.447     6.747
   309   1 H      0.924     0.091     1.869     2.138
   310   1 H      0.925     0.065     2.136     2.286
   311   6 C      2.951    -0.005    28.152     8.702
   312   6 C      2.905    -0.042    29.033     8.835
   313   1 H      0.926     0.043     2.415     2.430
   314   6 C      2.908    -0.079    29.973     8.977
   315   1 H      0.926     0.015     2.806     2.620
   316   6 C      2.839     0.133    25.078     8.207
   317   8 O      1.662    -0.424    21.326     6.234
   318   1 H      0.806     0.305     0.704     1.318
   319   6 C      2.900    -0.071    29.774     8.947
   320   1 H      0.926     0.066     2.127     2.281
   321   6 C      2.912    -0.053    29.310     8.878
   322   1 H      0.926     0.088     1.902     2.157
   323   6 C      2.749     0.261    22.606     7.785
   324   8 O      0.858    -0.472    23.181     6.455
   325   7 N      2.680    -0.180    24.910     7.413
   326   1 H      0.860     0.212     1.047     1.603
   327   6 C      3.793     0.012    20.390     6.430
   328   1 H      0.925     0.083     1.948     2.182
   329   6 C      3.807    -0.074    21.902     6.662
   330   1 H      0.924     0.039     2.460     2.453
   331   1 H      0.924     0.081     1.969     2.194
   332   6 C      3.820    -0.087    22.147     6.697
   333   1 H      0.925     0.088     1.896     2.153
   334   1 H      0.924     0.064     2.150     2.293
   335   6 C      3.805    -0.096    22.331     6.727
   336   1 H      0.925     0.092     1.860     2.133
   337   1 H      0.925     0.090     1.883     2.146
   338   6 C      3.741    -0.056    21.651     6.639
   339   1 H      0.924     0.112     1.682     2.028
   340   1 H      0.925     0.103     1.757     2.073
   341   7 N      3.484    -0.157    24.374     7.333
   342   1 H      0.860     0.293     0.733     1.341
   343   1 H      0.860     0.304     0.700     1.311
   344   1 H      0.860     0.299     0.716     1.325
   345   6 C      2.747     0.269    22.449     7.758
   346   8 O      0.868    -0.515    24.117     6.584
   347   7 N      2.708    -0.177    24.829     7.401
   348   1 H      0.860     0.213     1.043     1.600
   349   6 C      3.783     0.039    19.933     6.360
   350   1 H      0.925     0.058     2.220     2.330
   351   6 C      3.808    -0.102    22.431     6.742
   352   1 H      0.925     0.038     2.477     2.461
   353   1 H      0.925     0.050     2.322     2.383
   354   6 C      2.686     0.366    20.795     7.463
   355   8 O      0.856    -0.655    27.510     7.032
   356   8 O      0.857    -0.614    26.453     6.896
   357   6 C      2.738     0.265    22.530     7.772
   358   8 O      0.856    -0.495    23.666     6.522
   359   7 N      2.681    -0.183    24.970     7.422
   360   1 H      0.860     0.205     1.081     1.628
   361   6 C      3.777     0.014    20.369     6.430
   362   1 H      0.924     0.096     1.824     2.112
   363   6 C      3.725     0.119    18.738     6.181
   364   1 H      0.925     0.029     2.607     2.525
   365   6 C      3.745    -0.135    23.181     6.868
   366   1 H      0.925     0.043     2.407     2.426
   367   1 H      0.924     0.067     2.124     2.279
   368   1 H      0.925     0.075     2.036     2.231
   369   8 O      1.657    -0.487    22.621     6.421
   370   1 H      0.805     0.355     0.577     1.193
   371   6 C      2.743     0.272    22.408     7.751
   372   8 O      0.858    -0.509    23.992     6.567
   373   7 N      2.684    -0.162    24.515     7.354
   374   1 H      0.860     0.208     1.065     1.616
   375   6 C      3.777     0.023    20.205     6.404
   376   1 H      0.924     0.089     1.893     2.152
   377   6 C      3.807    -0.048    21.432     6.590
   378   1 H      0.925     0.057     2.232     2.337
   379   1 H      0.925     0.049     2.337     2.391
   380   6 C      3.798    -0.100    22.406     6.740
   381   1 H      0.925     0.068     2.112     2.273
   382   1 H      0.925     0.029     2.595     2.519
   383   6 C      2.683     0.351    21.042     7.507
   384   8 O      0.856    -0.602    26.158     6.857
   385   8 O      0.857    -0.619    26.593     6.914
   386   6 C      2.731     0.258    22.661     7.794
   387   8 O      0.857    -0.464    23.008     6.431
   388   7 N      2.680    -0.198    25.305     7.471
   389   1 H      0.860     0.205     1.080     1.628
   390   6 C      3.736    -0.029    21.178     6.567
   391   1 H      0.925     0.124     1.585     1.969
   392   1 H      0.924     0.114     1.663     2.017
   393   6 C      2.749     0.265    22.526     7.771
   394   8 O      0.860    -0.483    23.405     6.486
   395   7 N      2.687    -0.163    24.518     7.354
   396   1 H      0.860     0.174     1.249     1.751
   397   6 C      3.786     0.038    19.958     6.363
   398   1 H      0.925     0.066     2.133     2.284
   399   6 C      3.808    -0.068    21.792     6.645
   400   1 H      0.925     0.066     2.132     2.283
   401   1 H      0.924     0.041     2.434     2.440
   402   6 C      2.950    -0.012    28.311     8.727
   403   6 C      2.911    -0.045    29.124     8.849
   404   1 H      0.926     0.033     2.546     2.495
   405   6 C      2.895    -0.070    29.749     8.943
   406   1 H      0.926     0.062     2.177     2.307
   407   6 C      2.832     0.149    24.767     8.155
   408   8 O      1.663    -0.408    21.010     6.188
   409   1 H      0.805     0.353     0.581     1.198
   410   6 C      2.900    -0.081    30.030     8.985
   411   1 H      0.926     0.057     2.240     2.340
   412   6 C      2.903    -0.044    29.093     8.844
   413   1 H      0.926     0.043     2.411     2.428
   414   6 C      2.756     0.274    22.369     7.745
   415   8 O      0.862    -0.519    24.212     6.597
   416   7 N      2.692    -0.146    24.154     7.299
   417   1 H      0.860     0.225     0.989     1.558
   418   6 C      3.795     0.017    20.295     6.415
   419   1 H      0.925     0.095     1.834     2.118
   420   6 C      3.817    -0.090    22.198     6.705
   421   1 H      0.925     0.083     1.951     2.184
   422   1 H      0.925     0.056     2.249     2.345
   423   6 C      2.970    -0.004    28.112     8.697
   424   6 C      2.900    -0.039    28.963     8.824
   425   1 H      0.926     0.033     2.550     2.497
   426   6 C      2.917    -0.067    29.665     8.931
   427   1 H      0.926     0.017     2.772     2.604
   428   6 C      2.827     0.136    25.026     8.197
   429   8 O      1.659    -0.415    21.133     6.206
   430   1 H      0.805     0.323     0.655     1.271
   431   6 C      2.891    -0.063    29.576     8.916
   432   1 H      0.926     0.086     1.913     2.163
   433   6 C      2.905    -0.052    29.292     8.874
   434   1 H      0.926     0.069     2.096     2.264
   435   6 C      2.745     0.266    22.506     7.768
   436   8 O      0.859    -0.517    24.158     6.590
   437   7 N      2.686    -0.148    24.204     7.307
   438   1 H      0.860     0.244     0.906     1.491
   439   6 C      3.778    -0.014    20.849     6.505
   440   1 H      0.925     0.089     1.888     2.149
   441   6 C      3.717     0.125    18.655     6.170
   442   1 H      0.924     0.027     2.630     2.536
   443   6 C      3.751    -0.117    22.796     6.809
   444   1 H      0.925     0.053     2.288     2.365
   445   1 H      0.924     0.053     2.288     2.365
   446   1 H      0.925     0.043     2.412     2.429
   447   8 O      1.659    -0.466    22.162     6.355
   448   1 H      0.805     0.313     0.684     1.299
   449   6 C      2.744     0.260    22.624     7.788
   450   8 O      0.862    -0.436    22.403     6.346
   451   7 N      2.691    -0.161    24.479     7.348
   452   1 H      0.860     0.209     1.063     1.615
   453   6 C      3.791     0.009    20.434     6.438
   454   1 H      0.925     0.090     1.879     2.144
   455   6 C      3.856    -0.037    21.197     6.548
   456   1 H      0.924     0.087     1.909     2.161
   457   6 C      3.756    -0.137    23.186     6.866
   458   1 H      0.925     0.052     2.294     2.369
   459   1 H      0.925     0.043     2.403     2.424
   460   1 H      0.925     0.070     2.080     2.256
   461   6 C      3.803    -0.081    22.043     6.684
   462   1 H      0.925     0.043     2.415     2.430
   463   1 H      0.924     0.047     2.356     2.401
   464   6 C      3.753    -0.131    23.067     6.849
   465   1 H      0.925     0.066     2.126     2.280
   466   1 H      0.925     0.043     2.411     2.428
   467   1 H      0.925     0.049     2.328     2.386
   468   6 C      2.746     0.272    22.408     7.751
   469   8 O      0.859    -0.498    23.748     6.534
   470   7 N      2.675    -0.159    24.437     7.342
   471   1 H      0.860     0.233     0.951     1.528
   472   6 C      3.731    -0.037    21.335     6.593
   473   1 H      0.924     0.072     2.068     2.249
   474   1 H      0.924     0.128     1.553     1.949
   475   6 C      2.749     0.267    22.488     7.765
   476   8 O      0.857    -0.484    23.438     6.491
   477   7 N      2.686    -0.179    24.877     7.408
   478   1 H      0.860     0.196     1.127     1.663
   479   6 C      3.790     0.018    20.279     6.413
   480   1 H      0.925     0.096     1.820     2.110
   481   6 C      3.844    -0.017    20.852     6.496
   482   1 H      0.924     0.033     2.540     2.492
   483   6 C      3.753    -0.101    22.495     6.763
   484   1 H      0.924     0.052     2.295     2.369
   485   1 H      0.924     0.047     2.361     2.403
   486   1 H      0.925     0.018     2.770     2.603
   487   6 C      3.797    -0.083    22.081     6.691
   488   1 H      0.924     0.041     2.440     2.443
   489   1 H      0.925     0.054     2.265     2.353
   490   6 C      3.743    -0.125    22.975     6.838
   491   1 H      0.924     0.046     2.366     2.405
   492   1 H      0.924     0.064     2.152     2.294
   493   1 H      0.925     0.051     2.303     2.373
   494   6 C      2.747     0.267    22.486     7.765
   495   8 O      0.857    -0.495    23.675     6.524
   496   7 N      2.677    -0.177    24.825     7.400
   497   1 H      0.860     0.219     1.013     1.577
   498   6 C      3.736    -0.024    21.092     6.554
   499   1 H      0.924     0.078     1.997     2.210
   500   1 H      0.925     0.088     1.899     2.155
   501   6 C      2.746     0.278    22.303     7.733
   502   8 O      0.857    -0.518    24.183     6.593
   503   7 N      2.687    -0.178    24.857     7.405
   504   1 H      0.860     0.246     0.901     1.487
   505   6 C      3.782     0.023    20.202     6.403
   506   1 H      0.924     0.055     2.264     2.353
   507   6 C      3.798    -0.096    22.325     6.728
   508   1 H      0.925     0.134     1.505     1.918
   509   1 H      0.924     0.104     1.746     2.067
   510   6 C      3.193     0.055    26.281     8.360
   511   7 N      2.784    -0.027    21.769     6.930
   512   1 H      0.860     0.264     0.832     1.428
   513   6 C      3.049     0.064    26.530     8.448
   514   1 H      0.926     0.143     1.441     1.877
   515   7 N      2.849    -0.021    21.649     6.911
   516   1 H      0.860     0.256     0.862     1.455
   517   6 C      2.965    -0.029    28.731     8.792
   518   1 H      0.926     0.151     1.387     1.842
   519   6 C      2.747     0.252    22.759     7.811
   520   8 O      0.858    -0.470    23.121     6.447
   521   7 N      2.686    -0.159    24.439     7.342
   522   1 H      0.860     0.197     1.121     1.659
   523   6 C      3.798     0.022    20.204     6.400
   524   1 H      0.924     0.088     1.894     2.152
   525   6 C      3.808    -0.072    21.869     6.657
   526   1 H      0.924     0.048     2.341     2.393
   527   1 H      0.925     0.037     2.494     2.470
   528   6 C      3.853    -0.009    20.694     6.470
   529   1 H      0.925     0.029     2.607     2.525
   530   6 C      3.764    -0.121    22.864     6.816
   531   1 H      0.924     0.058     2.226     2.333
   532   1 H      0.924     0.050     2.325     2.385
   533   1 H      0.925     0.033     2.543     2.494
   534   6 C      3.762    -0.124    22.929     6.826
   535   1 H      0.924     0.055     2.260     2.351
   536   1 H      0.924     0.040     2.454     2.450
   537   1 H      0.924     0.050     2.314     2.379
   538   6 C      2.751     0.270    22.431     7.755
   539   8 O      0.856    -0.505    23.895     6.554
   540   7 N      2.688    -0.180    24.893     7.410
   541   1 H      0.860     0.237     0.935     1.515
   542   6 C      3.781     0.006    20.491     6.449
   543   1 H      0.925     0.070     2.090     2.261
   544   6 C      3.813    -0.086    22.125     6.695
   545   1 H      0.925     0.058     2.226     2.333
   546   1 H      0.925     0.063     2.161     2.299
   547   6 C      3.847    -0.032    21.105     6.535
   548   1 H      0.925     0.049     2.331     2.388
   549   6 C      3.762    -0.134    23.115     6.853
   550   1 H      0.925     0.060     2.203     2.321
   551   1 H      0.924     0.044     2.396     2.421
   552   1 H      0.924     0.085     1.925     2.170
   553   6 C      3.759    -0.131    23.062     6.846
   554   1 H      0.924     0.057     2.237     2.339
   555   1 H      0.925     0.064     2.157     2.297
   556   1 H      0.925     0.022     2.703     2.571
   557   6 C      2.750     0.274    22.358     7.743
   558   8 O      0.857    -0.479    23.326     6.475
   559   7 N      2.684    -0.180    24.898     7.411
   560   1 H      0.860     0.228     0.973     1.545
   561   6 C      3.794     0.017    20.293     6.415
   562   1 H      0.925     0.070     2.085     2.258
   563   6 C      3.728     0.113    18.827     6.195
   564   1 H      0.925     0.021     2.718     2.578
   565   6 C      3.747    -0.127    22.997     6.840
   566   1 H      0.924     0.049     2.337     2.391
   567   1 H      0.924     0.062     2.175     2.306
   568   1 H      0.925     0.051     2.304     2.374
   569   8 O      1.656    -0.483    22.536     6.409
   570   1 H      0.805     0.340     0.613     1.230
   571   6 C      2.749     0.278    22.302     7.733
   572   8 O      0.861    -0.455    22.812     6.404
   573   7 N      2.682    -0.178    24.858     7.405
   574   1 H      0.860     0.214     1.036     1.594
   575   6 C      3.772     0.008    20.473     6.448
   576   1 H      0.925     0.093     1.849     2.126
   577   6 C      3.798    -0.089    22.193     6.708
   578   1 H      0.924     0.085     1.931     2.173
   579   1 H      0.925     0.074     2.043     2.235
   580   6 C      3.805    -0.079    21.998     6.677
   581   1 H      0.925     0.064     2.158     2.297
   582   1 H      0.925     0.044     2.390     2.418
   583   6 C      3.806    -0.096    22.322     6.726
   584   1 H      0.924     0.078     2.003     2.213
   585   1 H      0.925     0.073     2.051     2.239
   586   6 C      3.736    -0.062    21.781     6.660
   587   1 H      0.925     0.122     1.600     1.978
   588   1 H      0.925     0.111     1.689     2.033
   589   7 N      3.490    -0.149    24.207     7.307
   590   1 H      0.860     0.310     0.684     1.296
   591   1 H      0.860     0.298     0.719     1.328
   592   1 H      0.860     0.304     0.702     1.313
   593   6 C      2.734     0.267    22.487     7.764
   594   8 O      0.856    -0.492    23.614     6.515
   595   7 N      2.678    -0.182    24.938     7.417
   596   1 H      0.860     0.212     1.047     1.603
   597   6 C      3.776     0.015    20.343     6.426
   598   1 H      0.925     0.077     2.015     2.220
   599   6 C      3.671     0.064    19.735     6.368
   600   1 H      0.925     0.057     2.239     2.340
   601   1 H      0.924     0.057     2.234     2.338
   602   8 O      1.653    -0.468    22.220     6.363
   603   1 H      0.805     0.336     0.622     1.239
   604   6 C      2.755     0.273    22.379     7.747
   605   8 O      0.861    -0.493    23.634     6.518
   606   7 N      2.759    -0.092    23.038     7.129
   607   6 C      3.775    -0.026    21.058     6.538
   608   1 H      0.925     0.083     1.949     2.183
   609   1 H      0.924     0.070     2.090     2.261
   610   6 C      3.813    -0.077    21.964     6.671
   611   1 H      0.925     0.084     1.940     2.178
   612   1 H      0.924     0.071     2.079     2.255
   613   6 C      3.858    -0.073    21.845     6.647
   614   1 H      0.925     0.068     2.110     2.272
   615   1 H      0.924     0.072     2.059     2.244
   616   6 C      3.805     0.025    20.143     6.389
   617   1 H      0.925     0.089     1.892     2.151
   618   6 C      2.739     0.264    22.543     7.774
   619   8 O      0.858    -0.481    23.363     6.480
   620   7 N      2.684    -0.165    24.560     7.360
   621   1 H      0.860     0.205     1.079     1.627
   622   6 C      3.783     0.010    20.427     6.438
   623   1 H      0.925     0.086     1.917     2.165
   624   6 C      3.674     0.057    19.841     6.383
   625   1 H      0.925     0.073     2.054     2.241
   626   1 H      0.924     0.062     2.175     2.306
   627   8 O      1.654    -0.488    22.643     6.424
   628   1 H      0.805     0.349     0.591     1.207
   629   6 C      2.747     0.258    22.651     7.793
   630   8 O      0.858    -0.494    23.644     6.519
   631   7 N      2.691    -0.164    24.557     7.360
   632   1 H      0.860     0.221     1.006     1.571
   633   6 C      3.781    -0.000    20.606     6.467
   634   1 H      0.924     0.106     1.732     2.058
   635   6 C      3.788    -0.087    22.164     6.705
   636   1 H      0.924     0.061     2.182     2.310
   637   1 H      0.925     0.079     1.985     2.203
   638   6 C      3.842    -0.024    20.972     6.514
   639   1 H      0.925     0.058     2.222     2.331
   640   6 C      3.760    -0.143    23.304     6.882
   641   1 H      0.924     0.057     2.235     2.338
   642   1 H      0.924     0.042     2.428     2.437
   643   1 H      0.924     0.072     2.064     2.247
   644   6 C      3.763    -0.134    23.125     6.855
   645   1 H      0.925     0.042     2.428     2.437
   646   1 H      0.925     0.045     2.386     2.415
   647   1 H      0.924     0.071     2.074     2.252
   648   6 C      2.770     0.267    22.492     7.767
   649   8 O      0.865    -0.478    23.301     6.472
   650   7 N      2.698    -0.150    24.248     7.313
   651   1 H      0.860     0.212     1.045     1.601
   652   6 C      3.811     0.023    20.177     6.394
   653   1 H      0.925     0.111     1.687     2.031
   654   6 C      3.808    -0.121    22.807     6.798
   655   1 H      0.924     0.089     1.887     2.148
   656   1 H      0.925     0.101     1.777     2.085
   657   6 C      2.747     0.288    22.117     7.701
   658   8 O      0.865    -0.550    24.916     6.693
   659   7 N      2.642    -0.275    27.119     7.734
   660   1 H      0.860     0.248     0.891     1.479
   661   1 H      0.860     0.254     0.867     1.459
   662   6 C      2.758     0.278    22.300     7.733
   663   8 O      0.862    -0.498    23.740     6.533
   664   7 N      2.687    -0.183    24.971     7.422
   665   1 H      0.860     0.221     1.003     1.569
   666   6 C      3.794     0.033    20.020     6.372
   667   1 H      0.925     0.069     2.095     2.263
   668   6 C      3.756    -0.130    23.054     6.846
   669   1 H      0.924     0.051     2.313     2.379
   670   1 H      0.924     0.090     1.880     2.144
   671   1 H      0.924     0.064     2.156     2.296
   672   6 C      2.749     0.262    22.577     7.780
   673   8 O      0.859    -0.510    24.012     6.570
   674   7 N      2.687    -0.194    25.200     7.456
   675   1 H      0.860     0.228     0.972     1.545
   676   6 C      3.771     0.027    20.156     6.398
   677   1 H      0.925     0.067     2.114     2.274
   678   6 C      3.763    -0.147    23.385     6.893
   679   1 H      0.925     0.104     1.747     2.067
   680   1 H      0.924     0.073     2.052     2.240
   681   1 H      0.925     0.085     1.925     2.170
   682   6 C      2.736     0.262    22.573     7.779
   683   8 O      0.857    -0.492    23.613     6.515
   684   7 N      2.679    -0.185    25.012     7.428
   685   1 H      0.860     0.247     0.897     1.484
   686   6 C      3.795     0.016    20.304     6.416
   687   1 H      0.925     0.108     1.714     2.047
   688   6 C      3.804    -0.086    22.142     6.699
   689   1 H      0.924     0.066     2.125     2.279
   690   1 H      0.925     0.072     2.063     2.246
   691   6 C      3.790    -0.097    22.356     6.734
   692   1 H      0.924     0.105     1.737     2.061
   693   1 H      0.924     0.075     2.036     2.231
   694   6 C      3.796    -0.101    22.428     6.743
   695   1 H      0.925     0.074     2.044     2.236
   696   1 H      0.925     0.081     1.967     2.193
   697   6 C      3.732    -0.057    21.696     6.649
   698   1 H      0.924     0.127     1.559     1.952
   699   1 H      0.925     0.104     1.750     2.069
   700   7 N      3.487    -0.156    24.365     7.331
   701   1 H      0.860     0.285     0.759     1.365
   702   1 H      0.860     0.293     0.735     1.343
   703   1 H      0.860     0.306     0.694     1.305
   704   6 C      2.759     0.271    22.425     7.755
   705   8 O      0.859    -0.561    25.186     6.729
   706   7 N      2.680    -0.189    25.104     7.441
   707   1 H      0.860     0.234     0.947     1.525
   708   6 C      3.787     0.016    20.318     6.420
   709   1 H      0.925     0.088     1.898     2.154
   710   6 C      3.685     0.078    19.477     6.318
   711   1 H      0.924     0.053     2.279     2.361
   712   1 H      0.925     0.042     2.421     2.433
   713   8 O      1.656    -0.460    22.049     6.339
   714   1 H      0.805     0.337     0.620     1.237
   715   6 C      2.764     0.268    22.479     7.765
   716   8 O      0.859    -0.536    24.605     6.650
   717   7 N      2.687    -0.172    24.733     7.386
   718   1 H      0.860     0.243     0.909     1.494
   719   6 C      3.800     0.038    19.929     6.356
   720   1 H      0.925     0.059     2.207     2.323
   721   6 C      3.798    -0.047    21.426     6.591
   722   1 H      0.924     0.047     2.355     2.400
   723   1 H      0.925     0.057     2.230     2.335
   724   6 C      3.804    -0.088    22.181     6.705
   725   1 H      0.924     0.022     2.699     2.569
   726   1 H      0.925     0.024     2.671     2.556
   727   6 C      2.688     0.373    20.674     7.441
   728   8 O      0.856    -0.686    28.341     7.137
   729   8 O      0.858    -0.628    26.817     6.943
   730   6 C      2.753     0.274    22.368     7.745
   731   8 O      0.859    -0.494    23.659     6.521
   732   7 N      2.688    -0.212    25.626     7.518
   733   1 H      0.860     0.226     0.984     1.554
   734   6 C      3.785     0.009    20.446     6.441
   735   1 H      0.925     0.087     1.907     2.160
   736   6 C      3.808    -0.089    22.191     6.706
   737   1 H      0.925     0.055     2.261     2.352
   738   1 H      0.924     0.091     1.870     2.139
   739   6 C      3.852    -0.012    20.746     6.478
   740   1 H      0.925     0.031     2.576     2.510
   741   6 C      3.759    -0.129    23.025     6.841
   742   1 H      0.924     0.057     2.229     2.335
   743   1 H      0.925     0.027     2.636     2.539
   744   1 H      0.925     0.064     2.156     2.296
   745   6 C      3.766    -0.127    22.983     6.833
   746   1 H      0.925     0.075     2.034     2.230
   747   1 H      0.924     0.055     2.254     2.348
   748   1 H      0.925     0.044     2.393     2.419
   749   6 C      2.746     0.278    22.296     7.732
   750   8 O      0.859    -0.477    23.285     6.470
   751   7 N      2.686    -0.192    25.165     7.450
   752   1 H      0.860     0.208     1.069     1.619
   753   6 C      3.782     0.048    19.790     6.337
   754   1 H      0.925     0.063     2.170     2.303
   755   6 C      3.809    -0.091    22.227     6.711
   756   1 H      0.925     0.028     2.618     2.530
   757   1 H      0.925     0.051     2.307     2.375
   758   6 C      2.688     0.369    20.747     7.454
   759   8 O      0.857    -0.637    27.057     6.974
   760   8 O      0.857    -0.654    27.494     7.030
   761   6 C      2.741     0.270    22.430     7.754
   762   8 O      0.859    -0.534    24.539     6.642
   763   7 N      2.681    -0.159    24.439     7.342
   764   1 H      0.860     0.199     1.110     1.650
   765   6 C      3.785     0.016    20.327     6.422
   766   1 H      0.924     0.090     1.875     2.141
   767   6 C      3.795    -0.077    21.977     6.676
   768   1 H      0.924     0.068     2.105     2.269
   769   1 H      0.925     0.058     2.218     2.329
   770   6 C      3.796    -0.085    22.132     6.699
   771   1 H      0.925     0.066     2.130     2.282
   772   1 H      0.925     0.081     1.973     2.196
   773   6 C      3.796    -0.078    21.999     6.679
   774   1 H      0.925     0.068     2.106     2.270
   775   1 H      0.924     0.051     2.311     2.377
   776   6 C      3.731    -0.050    21.576     6.630
   777   1 H      0.925     0.117     1.638     2.001
   778   1 H      0.925     0.127     1.559     1.953
   779   7 N      3.486    -0.146    24.142     7.298
   780   1 H      0.860     0.295     0.727     1.336
   781   1 H      0.860     0.286     0.756     1.362
   782   1 H      0.860     0.315     0.671     1.283
   783   6 C      2.747     0.261    22.594     7.783
   784   8 O      0.857    -0.522    24.281     6.607
   785   7 N      2.687    -0.168    24.627     7.370
   786   1 H      0.860     0.221     1.005     1.570
   787   6 C      3.787     0.024    20.192     6.400
   788   1 H      0.925     0.087     1.913     2.163
   789   6 C      3.753    -0.139    23.232     6.873
   790   1 H      0.925     0.089     1.885     2.147
   791   1 H      0.925     0.078     2.004     2.214
   792   1 H      0.924     0.085     1.926     2.170
   793   6 C      2.747     0.269    22.462     7.760
   794   8 O      0.856    -0.506    23.921     6.557
   795   7 N      2.682    -0.184    24.992     7.425
   796   1 H      0.860     0.196     1.129     1.664
   797   6 C      3.775     0.019    20.287     6.418
   798   1 H      0.924     0.088     1.900     2.156
   799   6 C      3.851    -0.018    20.855     6.495
   800   1 H      0.925     0.044     2.395     2.420
   801   6 C      3.756    -0.116    22.768     6.803
   802   1 H      0.925     0.074     2.038     2.233
   803   1 H      0.925     0.038     2.475     2.460
   804   1 H      0.924     0.034     2.531     2.488
   805   6 C      3.800    -0.074    21.911     6.665
   806   1 H      0.925     0.073     2.057     2.243
   807   1 H      0.924     0.046     2.371     2.408
   808   6 C      3.748    -0.107    22.612     6.782
   809   1 H      0.925     0.063     2.167     2.302
   810   1 H      0.925     0.021     2.721     2.580
   811   1 H      0.925     0.033     2.550     2.497
   812   6 C      2.751     0.265    22.536     7.773
   813   8 O      0.874    -0.517    24.157     6.590
   814   7 N      2.700    -0.133    23.884     7.258
   815   1 H      0.860     0.194     1.136     1.670
   816   6 C      3.748    -0.022    21.039     6.542
   817   1 H      0.925     0.083     1.948     2.183
   818   1 H      0.925     0.079     1.987     2.204
   819   6 C      2.742     0.284    22.193     7.713
   820   8 O      0.858    -0.465    23.020     6.433
   821   7 N      2.690    -0.166    24.600     7.366
   822   1 H      0.860     0.190     1.160     1.687
   823   6 C      3.791     0.029    20.097     6.384
   824   1 H      0.924     0.072     2.068     2.249
   825   6 C      3.813    -0.082    22.049     6.683
   826   1 H      0.924     0.078     1.997     2.210
   827   1 H      0.924     0.072     2.069     2.249
   828   6 C      3.804    -0.073    21.886     6.660
   829   1 H      0.924     0.056     2.243     2.342
   830   1 H      0.925     0.061     2.191     2.315
   831   6 C      3.739    -0.012    20.874     6.519
   832   1 H      0.924     0.077     2.014     2.219
   833   1 H      0.924     0.073     2.058     2.243
   834   7 N      2.710    -0.171    24.707     7.382
   835   1 H      0.860     0.235     0.943     1.521
   836   6 C      2.734     0.246    22.872     7.830
   837   7 N      2.673    -0.281    27.243     7.752
   838   1 H      0.860     0.247     0.895     1.482
   839   1 H      0.860     0.238     0.931     1.512
   840   7 N      2.695    -0.260    26.748     7.681
   841   1 H      0.860     0.240     0.923     1.505
   842   1 H      0.860     0.246     0.898     1.485
   843   6 C      2.745     0.270    22.436     7.756
   844   8 O      0.859    -0.507    23.941     6.560
   845   7 N      2.677    -0.174    24.765     7.391
   846   1 H      0.860     0.214     1.035     1.594
   847   6 C      3.776     0.026    20.171     6.399
   848   1 H      0.924     0.067     2.123     2.278
   849   6 C      3.792    -0.114    22.693     6.784
   850   1 H      0.924     0.092     1.856     2.130
   851   1 H      0.924     0.081     1.972     2.196
   852   6 C      2.734     0.293    22.036     7.686
   853   8 O      0.875    -0.473    23.177     6.455
   854   7 N      2.652    -0.286    27.374     7.771
   855   1 H      0.860     0.252     0.876     1.466
   856   1 H      0.860     0.217     1.022     1.583
   857   6 C      2.750     0.290    22.086     7.695
   858   8 O      0.862    -0.466    23.039     6.436
   859   7 N      2.689    -0.147    24.176     7.303
   860   1 H      0.860     0.201     1.098     1.642
   861   6 C      3.798     0.003    20.525     6.451
   862   1 H      0.925     0.119     1.620     1.991
   863   6 C      3.782    -0.030    21.131     6.548
   864   1 H      0.925     0.119     1.622     1.992
   865   1 H      0.925     0.067     2.121     2.277
   866  16 S      1.893    -0.301   154.115    20.895
   867   1 H      0.923     0.165     1.294     1.779
   868   6 C      2.746     0.264    22.542     7.774
   869   8 O      0.857    -0.440    22.495     6.359
   870   7 N      2.685    -0.171    24.696     7.381
   871   1 H      0.860     0.208     1.065     1.617
   872   6 C      3.794     0.011    20.401     6.432
   873   1 H      0.925     0.107     1.723     2.053
   874   6 C      3.812    -0.113    22.644     6.773
   875   1 H      0.925     0.094     1.843     2.123
   876   1 H      0.925     0.085     1.932     2.174
   877   6 C      2.741     0.279    22.281     7.729
   878   8 O      0.859    -0.509    23.976     6.565
   879   7 N      2.641    -0.264    26.846     7.695
   880   1 H      0.860     0.262     0.839     1.435
   881   1 H      0.860     0.243     0.912     1.496
   882   6 C      2.748     0.266    22.517     7.770
   883   8 O      0.857    -0.428    22.249     6.324
   884   7 N      2.684    -0.171    24.697     7.381
   885   1 H      0.860     0.186     1.182     1.703
   886   6 C      3.739    -0.059    21.719     6.650
   887   1 H      0.924     0.142     1.450     1.883
   888   1 H      0.925     0.100     1.785     2.090
   889   6 C      2.745     0.273    22.378     7.746
   890   8 O      0.862    -0.446    22.615     6.376
   891   7 N      2.686    -0.181    24.915     7.413
   892   1 H      0.860     0.210     1.057     1.611
   893   6 C      3.789     0.020    20.249     6.409
   894   1 H      0.925     0.081     1.966     2.193
   895   6 C      3.845    -0.022    20.940     6.509
   896   1 H      0.925     0.028     2.620     2.531
   897   6 C      3.748    -0.128    23.020     6.843
   898   1 H      0.925     0.028     2.609     2.526
   899   1 H      0.924     0.054     2.274     2.358
   900   1 H      0.925     0.051     2.308     2.376
   901   6 C      3.749    -0.133    23.114     6.857
   902   1 H      0.925     0.061     2.189     2.314
   903   1 H      0.925     0.053     2.278     2.360
   904   1 H      0.925     0.068     2.107     2.270
   905   6 C      2.752     0.268    22.474     7.763
   906   8 O      0.863    -0.500    23.786     6.539
   907   7 N      2.688    -0.193    25.187     7.454
   908   1 H      0.860     0.239     0.926     1.508
   909   6 C      3.784     0.019    20.280     6.415
   910   1 H      0.925     0.065     2.145     2.290
   911   6 C      3.827    -0.025    21.008     6.522
   912   1 H      0.925     0.022     2.701     2.570
   913   6 C      3.740    -0.122    22.916     6.830
   914   1 H      0.925     0.067     2.118     2.276
   915   1 H      0.925     0.038     2.473     2.459
   916   1 H      0.925     0.052     2.293     2.368
   917   6 C      3.794    -0.061    21.684     6.631
   918   1 H      0.925     0.025     2.652     2.546
   919   1 H      0.925     0.071     2.070     2.250
   920   6 C      3.755    -0.121    22.871     6.819
   921   1 H      0.925     0.026     2.646     2.544
   922   1 H      0.925     0.039     2.461     2.453
   923   1 H      0.925     0.066     2.135     2.285
   924   6 C      2.750     0.263    22.560     7.778
   925   8 O      0.858    -0.483    23.406     6.487
   926   7 N      2.686    -0.177    24.838     7.402
   927   1 H      0.860     0.213     1.043     1.600
   928   6 C      3.796    -0.000    20.593     6.462
   929   1 H      0.925     0.093     1.854     2.129
   930   6 C      3.727     0.113    18.820     6.194
   931   1 H      0.924     0.047     2.355     2.400
   932   6 C      3.760    -0.139    23.229     6.871
   933   1 H      0.925     0.065     2.143     2.289
   934   1 H      0.925     0.061     2.186     2.312
   935   1 H      0.924     0.057     2.234     2.337
   936   8 O      1.663    -0.518    23.276     6.513
   937   1 H      0.806     0.340     0.612     1.229
   938   6 C      2.758     0.270    22.440     7.757
   939   8 O      0.857    -0.475    23.229     6.462
   940   7 N      2.691    -0.208    25.527     7.504
   941   1 H      0.860     0.233     0.953     1.529
   942   6 C      3.800     0.012    20.377     6.427
   943   1 H      0.925     0.096     1.823     2.112
   944   6 C      3.805    -0.093    22.270     6.718
   945   1 H      0.925     0.075     2.028     2.227
   946   1 H      0.925     0.065     2.143     2.289
   947   6 C      3.786    -0.087    22.179     6.708
   948   1 H      0.925     0.073     2.057     2.243
   949   1 H      0.925     0.075     2.031     2.229
   950   6 C      3.798    -0.106    22.525     6.758
   951   1 H      0.925     0.098     1.803     2.100
   952   1 H      0.924     0.085     1.931     2.173
   953   6 C      3.730    -0.051    21.584     6.632
   954   1 H      0.925     0.111     1.692     2.034
   955   1 H      0.924     0.125     1.576     1.963
   956   7 N      3.487    -0.154    24.322     7.325
   957   1 H      0.860     0.298     0.719     1.328
   958   1 H      0.860     0.303     0.704     1.315
   959   1 H      0.860     0.300     0.713     1.323
   960   6 C      2.764     0.274    22.373     7.746
   961   8 O      0.859    -0.508    23.957     6.562
   962   7 N      2.695    -0.181    24.918     7.414
   963   1 H      0.860     0.214     1.037     1.595
   964   6 C      3.796     0.046    19.811     6.338
   965   1 H      0.925     0.061     2.185     2.312
   966   6 C      3.806    -0.100    22.403     6.738
   967   1 H      0.925     0.047     2.354     2.399
   968   1 H      0.924     0.054     2.276     2.359
   969   6 C      2.690     0.370    20.733     7.452
   970   8 O      0.859    -0.647    27.303     7.006
   971   8 O      0.859    -0.620    26.615     6.917
   972   6 C      2.762     0.286    22.159     7.709
   973   8 O      0.879    -0.505    23.877     6.552
   974   7 N      2.711    -0.179    24.873     7.407
   975   1 H      0.860     0.198     1.114     1.653
   976   6 C      3.789     0.023    20.203     6.401
   977   1 H      0.925     0.068     2.106     2.269
   978   6 C      3.796    -0.059    21.649     6.625
   979   1 H      0.925     0.051     2.303     2.373
   980   1 H      0.925     0.063     2.169     2.303
   981   6 C      3.797    -0.097    22.345     6.731
   982   1 H      0.924     0.051     2.306     2.375
   983   1 H      0.925     0.043     2.408     2.427
   984   6 C      2.685     0.361    20.874     7.477
   985   8 O      0.856    -0.580    25.644     6.789
   986   8 O      0.856    -0.595    26.006     6.837
   987   6 C      2.747     0.270    22.442     7.757
   988   8 O      0.860    -0.469    23.102     6.444
   989   7 N      2.686    -0.215    25.686     7.527
   990   1 H      0.860     0.232     0.955     1.531
   991   6 C      3.784     0.024    20.185     6.400
   992   1 H      0.925     0.089     1.887     2.148
   993   6 C      3.768    -0.133    23.095     6.849
   994   1 H      0.925     0.074     2.039     2.233
   995   1 H      0.925     0.066     2.132     2.284
   996   1 H      0.925     0.093     1.852     2.128
   997   6 C      2.765     0.275    22.342     7.741
   998   8 O      0.862    -0.474    23.224     6.461
   999   7 N      2.685    -0.210    25.574     7.511
  1000   1 H      0.860     0.207     1.070     1.620
  1001   6 C      3.786     0.021    20.228     6.406
  1002   1 H      0.925     0.086     1.916     2.165
  1003   6 C      3.803    -0.056    21.583     6.614
  1004   1 H      0.924     0.071     2.071     2.251
  1005   1 H      0.925     0.050     2.325     2.385
  1006   6 C      3.805    -0.081    22.048     6.685
  1007   1 H      0.925     0.016     2.798     2.616
  1008   1 H      0.924     0.039     2.464     2.455
  1009   6 C      2.691     0.369    20.752     7.455
  1010   8 O      0.858    -0.651    27.416     7.020
  1011   8 O      0.857    -0.673    27.971     7.091
  1012   6 C      2.746     0.270    22.433     7.755
  1013   8 O      0.858    -0.504    23.882     6.552
  1014   7 N      2.690    -0.175    24.786     7.394
  1015   1 H      0.860     0.208     1.064     1.616
  1016   6 C      3.788     0.018    20.285     6.415
  1017   1 H      0.925     0.089     1.889     2.149
  1018   6 C      3.804    -0.083    22.074     6.689
  1019   1 H      0.925     0.073     2.053     2.241
  1020   1 H      0.924     0.066     2.128     2.281
  1021   6 C      3.801    -0.078    21.980     6.675
  1022   1 H      0.925     0.050     2.314     2.379
  1023   1 H      0.925     0.065     2.147     2.291
  1024   6 C      3.804    -0.083    22.081     6.690
  1025   1 H      0.925     0.081     1.968     2.194
  1026   1 H      0.924     0.063     2.168     2.302
  1027   6 C      3.735    -0.050    21.558     6.627
  1028   1 H      0.924     0.116     1.649     2.008
  1029   1 H      0.925     0.119     1.620     1.990
  1030   7 N      3.488    -0.134    23.885     7.259
  1031   1 H      0.860     0.293     0.736     1.343
  1032   1 H      0.860     0.284     0.764     1.369
  1033   1 H      0.860     0.267     0.821     1.419
  1034   6 C      2.752     0.266    22.515     7.770
  1035   8 O      0.860    -0.505    23.903     6.555
  1036   7 N      2.691    -0.179    24.873     7.407
  1037   1 H      0.860     0.217     1.023     1.585
  1038   6 C      3.781     0.028    20.118     6.389
  1039   1 H      0.925     0.078     1.997     2.210
  1040   6 C      3.806    -0.086    22.130     6.697
  1041   1 H      0.924     0.061     2.182     2.310
  1042   1 H      0.925     0.063     2.167     2.302
  1043   6 C      3.854    -0.011    20.740     6.477
  1044   1 H      0.924     0.028     2.616     2.529
  1045   6 C      3.766    -0.122    22.870     6.816
  1046   1 H      0.924     0.053     2.286     2.364
  1047   1 H      0.925     0.021     2.715     2.577
  1048   1 H      0.925     0.053     2.282     2.362
  1049   6 C      3.764    -0.137    23.182     6.863
  1050   1 H      0.924     0.071     2.073     2.252
  1051   1 H      0.924     0.045     2.386     2.416
  1052   1 H      0.925     0.066     2.134     2.284
  1053   6 C      2.741     0.275    22.354     7.741
  1054   8 O      0.857    -0.490    23.558     6.507
  1055   7 N      2.677    -0.211    25.605     7.515
  1056   1 H      0.860     0.219     1.012     1.576
  1057   6 C      3.775     0.035    20.019     6.375
  1058   1 H      0.925     0.065     2.147     2.291
  1059   6 C      3.800    -0.074    21.919     6.666
  1060   1 H      0.924     0.054     2.270     2.356
  1061   1 H      0.925     0.072     2.068     2.249
  1062   6 C      2.952     0.007    27.860     8.657
  1063   6 C      2.898    -0.033    28.833     8.804
  1064   1 H      0.926     0.025     2.665     2.553
  1065   6 C      2.904    -0.029    28.712     8.786
  1066   1 H      0.926     0.031     2.572     2.508
  1067   6 C      2.899    -0.043    29.060     8.839
  1068   1 H      0.926     0.056     2.244     2.342
  1069   6 C      2.907    -0.039    28.969     8.825
  1070   1 H      0.926     0.056     2.240     2.341
  1071   6 C      2.904    -0.042    29.055     8.838
  1072   1 H      0.926     0.046     2.365     2.405
  1073   6 C      2.746     0.270    22.442     7.757
  1074   8 O      0.858    -0.524    24.321     6.612
  1075   7 N      2.674    -0.196    25.260     7.464
  1076   1 H      0.860     0.230     0.963     1.537
  1077   6 C      3.773     0.023    20.221     6.408
  1078   1 H      0.924     0.089     1.891     2.150
  1079   6 C      3.798    -0.108    22.557     6.763
  1080   1 H      0.924     0.068     2.108     2.271
  1081   1 H      0.925     0.099     1.790     2.093
  1082   6 C      2.740     0.291    22.073     7.692
  1083   8 O      0.868    -0.479    23.326     6.476
  1084   7 N      2.647    -0.288    27.428     7.778
  1085   1 H      0.860     0.253     0.873     1.464
  1086   1 H      0.860     0.218     1.016     1.579
  1087   6 C      2.743     0.283    22.211     7.717
  1088   8 O      0.858    -0.464    22.998     6.430
  1089   7 N      2.695    -0.177    24.837     7.402
  1090   1 H      0.860     0.211     1.053     1.608
  1091   6 C      3.794     0.033    20.019     6.371
  1092   1 H      0.924     0.088     1.896     2.153
  1093   6 C      3.805    -0.073    21.890     6.661
  1094   1 H      0.925     0.082     1.957     2.187
  1095   1 H      0.924     0.067     2.120     2.277
  1096   6 C      3.798    -0.113    22.667     6.779
  1097   1 H      0.924     0.101     1.780     2.086
  1098   1 H      0.925     0.070     2.090     2.261
  1099   6 C      2.741     0.289    22.101     7.697
  1100   8 O      0.866    -0.498    23.739     6.533
  1101   7 N      2.643    -0.285    27.346     7.766
  1102   1 H      0.860     0.240     0.925     1.506
  1103   1 H      0.860     0.212     1.047     1.603
  1104   6 C      2.748     0.256    22.689     7.800
  1105   8 O      0.859    -0.483    23.417     6.488
  1106   7 N      2.689    -0.175    24.793     7.395
  1107   1 H      0.860     0.199     1.109     1.650
  1108   6 C      3.789     0.043    19.861     6.347
  1109   1 H      0.924     0.083     1.952     2.185
  1110   6 C      3.812    -0.078    21.975     6.672
  1111   1 H      0.925     0.043     2.405     2.425
  1112   1 H      0.924     0.024     2.679     2.559
  1113   6 C      2.691     0.370    20.731     7.452
  1114   8 O      0.864    -0.614    26.452     6.896
  1115   8 O      0.864    -0.621    26.633     6.919
  1116   6 C      2.755     0.263    22.565     7.779
  1117   8 O      0.860    -0.513    24.063     6.577
  1118   7 N      2.690    -0.168    24.633     7.371
  1119   1 H      0.860     0.191     1.153     1.682
  1120   6 C      3.801     0.022    20.212     6.401
  1121   1 H      0.925     0.080     1.983     2.202
  1122   6 C      3.856    -0.010    20.725     6.475
  1123   1 H      0.925     0.038     2.481     2.463
  1124   6 C      3.760    -0.120    22.839     6.813
  1125   1 H      0.924     0.067     2.119     2.277
  1126   1 H      0.924     0.043     2.416     2.431
  1127   1 H      0.924     0.063     2.167     2.302
  1128   6 C      3.762    -0.116    22.764     6.801
  1129   1 H      0.924     0.032     2.557     2.501
  1130   1 H      0.925     0.053     2.280     2.361
  1131   1 H      0.925     0.056     2.245     2.343
  1132   6 C      2.747     0.279    22.276     7.728
  1133   8 O      0.862    -0.480    23.355     6.479
  1134   7 N      2.691    -0.187    25.049     7.433
  1135   1 H      0.860     0.196     1.127     1.663
  1136   6 C      3.783     0.042    19.885     6.352
  1137   1 H      0.925     0.081     1.972     2.196
  1138   6 C      3.809    -0.097    22.344     6.729
  1139   1 H      0.925     0.031     2.570     2.507
  1140   1 H      0.925     0.037     2.492     2.469
  1141   6 C      2.696     0.380    20.573     7.424
  1142   8 O      0.861    -0.626    26.753     6.935
  1143   8 O      0.858    -0.604    26.216     6.865
  1144   6 C      2.735     0.266    22.517     7.769
  1145   8 O      0.861    -0.475    23.244     6.464
  1146   7 N      2.685    -0.193    25.186     7.453
  1147   1 H      0.860     0.209     1.061     1.614
  1148   6 C      3.786     0.026    20.147     6.393
  1149   1 H      0.925     0.095     1.829     2.115
  1150   6 C      3.753    -0.134    23.129     6.858
  1151   1 H      0.925     0.079     1.994     2.208
  1152   1 H      0.925     0.090     1.875     2.141
  1153   1 H      0.924     0.047     2.355     2.400
  1154   6 C      2.758     0.284    22.182     7.713
  1155   8 O      0.865    -0.477    23.269     6.468
  1156   7 N      2.694    -0.181    24.913     7.413
  1157   1 H      0.860     0.189     1.164     1.690
  1158   6 C      3.792     0.021    20.235     6.406
  1159   1 H      0.924     0.077     2.015     2.220
  1160   6 C      3.747    -0.127    23.000     6.840
  1161   1 H      0.924     0.075     2.037     2.232
  1162   1 H      0.925     0.070     2.085     2.258
[...]
  2292  H   0.954        N 2291 0.922
  2293  C   3.957        C 2295 0.977    N 2291 0.963    H 2294 0.948    C 2313 0.944
  2294  H   0.989        C 2293 0.948
  2295  C   3.979        C 2298 0.992    C 2293 0.977    H 2296 0.970    H 2297 0.969
  2296  H   0.993        C 2295 0.970
  2297  H   0.992        C 2295 0.969
  2298  C   3.981        C 2301 1.021    C 2295 0.992    H 2300 0.972    H 2299 0.969
  2299  H   0.995        C 2298 0.969
  2300  H   0.994        C 2298 0.972
  2301  C   3.938        C 2298 1.021    H 2303 0.965    H 2302 0.964    N 2304 0.935
  2302  H   0.992        C 2301 0.964
  2303  H   0.995        C 2301 0.965
  2304  N   3.467        C 2306 1.364    C 2301 0.935    H 2305 0.896    N 2310 0.114
  2305  H   0.941        N 2304 0.896
  2306  C   3.975        N 2304 1.364    N 2310 1.327    N 2307 1.261
  2307  N   3.355        C 2306 1.261    H 2308 0.933    H 2309 0.921
  2308  H   0.959        N 2307 0.933
  2309  H   0.947        N 2307 0.921
  2310  N   3.396        C 2306 1.327    H 2311 0.924    H 2312 0.865    N 2304 0.114
  2311  H   0.953        N 2310 0.924
  2312  H   0.929        N 2310 0.865
  2313  C   3.957        O 2314 1.604    N 2315 1.338    C 2293 0.944
  2314  O   1.953        C 2313 1.604    N 2315 0.205
  2315  N   3.486        C 2313 1.338    C 2317 0.961    H 2316 0.882    O 2314 0.205
  2316  H   0.946        N 2315 0.882
  2317  C   3.960        C 2319 0.999    N 2315 0.961    C 2323 0.959    H 2318 0.945
  2318  H   0.992        C 2317 0.945
  2319  C   3.985        C 2317 0.999    H 2320 0.977    H 2322 0.977    H 2321 0.971
  2320  H   0.995        C 2319 0.977
  2321  H   0.994        C 2319 0.971
  2322  H   0.996        C 2319 0.977
  2323  C   3.954        O 2324 1.598    N 2325 1.312    C 2317 0.959
  2324  O   1.930        C 2323 1.598    N 2325 0.197
  2325  N   3.466        C 2323 1.312    C 2327 0.957    H 2326 0.899    O 2324 0.197
  2326  H   0.953        N 2325 0.899
  2327  C   3.951        C 2329 0.991    N 2325 0.957    H 2328 0.949    C 2345 0.935
  2328  H   0.988        C 2327 0.949
  2329  C   3.976        C 2327 0.991    C 2332 0.988    H 2330 0.968    H 2331 0.965
  2330  H   0.994        C 2329 0.968
  2331  H   0.990        C 2329 0.965
  2332  C   3.987        C 2335 1.004    C 2329 0.988    H 2334 0.977    H 2333 0.971
  2333  H   0.995        C 2332 0.971
  2334  H   0.997        C 2332 0.977
  2335  C   3.983        C 2338 1.011    C 2332 1.004    H 2336 0.973    H 2337 0.963
  2336  H   0.993        C 2335 0.973
  2337  H   0.991        C 2335 0.963
  2338  C   3.900        C 2335 1.011    H 2340 0.966    H 2339 0.960    N 2341 0.943
  2339  H   0.981        C 2338 0.960
  2340  H   0.986        C 2338 0.966
  2341  N   3.657        C 2338 0.943    H 2344 0.900    H 2342 0.898    H 2343 0.897
  2342  H   0.913        N 2341 0.898
  2343  H   0.911        N 2341 0.897
  2344  H   0.913        N 2341 0.900
  2345  C   3.939        O 2346 1.551    N 2347 1.351    C 2327 0.935
  2346  O   1.941        C 2345 1.551    N 2347 0.187
  2347  N   3.501        C 2345 1.351    C 2349 0.973    H 2348 0.896    O 2346 0.187
  2348  H   0.945        N 2347 0.896
  2349  C   3.962        C 2351 0.975    N 2347 0.973    C 2369 0.950    H 2350 0.947
  2350  H   0.991        C 2349 0.947
  2351  C   3.985        C 2354 1.002    C 2349 0.975    H 2352 0.971    H 2353 0.970
  2352  H   0.996        C 2351 0.971
  2353  H   0.995        C 2351 0.970
  2354  C   3.985        C 2351 1.002    C 2357 0.995    H 2355 0.969    H 2356 0.964
  2355  H   0.991        C 2354 0.969
  2356  H   0.994        C 2354 0.964
  2357  C   3.943        C 2354 0.995    N 2360 0.969    H 2359 0.964    H 2358 0.962
  2358  H   0.991        C 2357 0.962
  2359  H   0.993        C 2357 0.964
  2360  N   3.508        C 2362 1.364    C 2357 0.969    H 2361 0.903    N 2366 0.105    N 2363 0.105
  2361  H   0.947        N 2360 0.903
  2362  C   3.977        N 2360 1.364    N 2363 1.296    N 2366 1.282
  2363  N   3.371        C 2362 1.296    H 2364 0.918    H 2365 0.918    N 2360 0.105
  2364  H   0.940        N 2363 0.918
  2365  H   0.943        N 2363 0.918
  2366  N   3.346        C 2362 1.282    H 2367 0.917    H 2368 0.878    N 2360 0.105
  2367  H   0.939        N 2366 0.917
  2368  H   0.940        N 2366 0.878
  2369  C   3.949        O 2370 1.553    N 2371 1.354    C 2349 0.950
  2370  O   1.935        C 2369 1.553    N 2371 0.194
  2371  N   3.503        C 2369 1.354    C 2373 0.972    H 2372 0.892    O 2370 0.194
  2372  H   0.942        N 2371 0.892
  2373  C   3.955        N 2371 0.972    C 2375 0.971    H 2374 0.953    C 2385 0.923
  2374  H   0.993        C 2373 0.953
  2375  C   3.986        C 2377 1.009    C 2381 1.003    C 2373 0.971    H 2376 0.960
  2376  H   0.996        C 2375 0.960
  2377  C   3.990        C 2375 1.009    H 2379 0.980    H 2378 0.979    H 2380 0.977
  2378  H   0.997        C 2377 0.979
  2379  H   0.997        C 2377 0.980
  2380  H   0.998        C 2377 0.977
  2381  C   3.989        C 2375 1.003    H 2384 0.986    H 2382 0.982    H 2383 0.979
  2382  H   0.996        C 2381 0.982
  2383  H   0.997        C 2381 0.979
  2384  H   0.998        C 2381 0.986
  2385  C   3.950        O 2386 1.588    N 2387 1.357    C 2373 0.923
  2386  O   1.941        C 2385 1.588    N 2387 0.197
  2387  N   3.492        C 2385 1.357    C 2389 0.950    H 2388 0.896    O 2386 0.197
  2388  H   0.948        N 2387 0.896
  2389  C   3.948        C 2391 0.966    N 2387 0.950    H 2390 0.945    C 2404 0.944
  2390  H   0.992        C 2389 0.945
  2391  C   3.978        C 2393 1.008    C 2397 0.980    C 2389 0.966    H 2392 0.965
  2392  H   0.994        C 2391 0.965
  2393  C   3.988        C 2391 1.008    H 2395 0.980    H 2394 0.980    H 2396 0.977
  2394  H   0.998        C 2393 0.980
  2395  H   0.994        C 2393 0.980
  2396  H   0.997        C 2393 0.977
  2397  C   3.989        C 2400 1.016    C 2391 0.980    H 2399 0.980    H 2398 0.976
  2398  H   0.998        C 2397 0.976
  2399  H   0.998        C 2397 0.980
  2400  C   3.991        C 2397 1.016    H 2403 0.982    H 2402 0.981    H 2401 0.979
  2401  H   0.998        C 2400 0.979
  2402  H   0.997        C 2400 0.981
  2403  H   0.997        C 2400 0.982
  2404  C   3.948        O 2405 1.588    N 2406 1.328    C 2389 0.944
  2405  O   1.953        C 2404 1.588    N 2406 0.194
  2406  N   3.480        C 2404 1.328    C 2408 0.975    H 2407 0.881    O 2405 0.194
  2407  H   0.948        N 2406 0.881
  2408  C   3.961        N 2406 0.975    C 2410 0.961    H 2409 0.948    C 2418 0.932
  2409  H   0.989        C 2408 0.948
  2410  C   3.967        O 2416 1.005    C 2412 0.993    H 2411 0.961    C 2408 0.961
  2411  H   0.999        C 2410 0.961
  2412  C   3.985        C 2410 0.993    H 2413 0.986    H 2414 0.984    H 2415 0.983
  2413  H   0.999        C 2412 0.986
  2414  H   0.996        C 2412 0.984
  2415  H   0.995        C 2412 0.983
  2416  O   1.928        C 2410 1.005    H 2417 0.822
  2417  H   0.878        O 2416 0.822
  2418  C   3.944        O 2419 1.625    N 2420 1.300    C 2408 0.932
  2419  O   1.961        C 2418 1.625    N 2420 0.189
  2420  N   3.460        C 2418 1.300    C 2422 0.972    H 2421 0.889    O 2419 0.189
  2421  H   0.953        N 2420 0.889
  2422  C   3.961        N 2420 0.972    C 2424 0.967    H 2423 0.948    C 2432 0.924
  2423  H   0.993        C 2422 0.948
  2424  C   3.964        O 2430 1.024    C 2426 0.977    C 2422 0.967    H 2425 0.954
  2425  H   1.000        C 2424 0.954
  2426  C   3.980        H 2428 0.987    H 2427 0.984    H 2429 0.982    C 2424 0.977
  2427  H   0.998        C 2426 0.984
  2428  H   0.999        C 2426 0.987
  2429  H   0.996        C 2426 0.982
  2430  O   1.951        C 2424 1.024    H 2431 0.817
  2431  H   0.882        O 2430 0.817
  2432  C   3.953        O 2433 1.590    N 2434 1.359    C 2422 0.924
  2433  O   1.932        C 2432 1.590    N 2434 0.200
  2434  N   3.493        C 2432 1.359    C 2436 0.956    H 2435 0.884    O 2433 0.200
  2435  H   0.944        N 2434 0.884
  2436  C   3.954        C 2438 0.992    N 2434 0.956    H 2437 0.945    C 2452 0.924
  2437  H   0.992        C 2436 0.945
  2438  C   3.985        C 2441 0.997    C 2436 0.992    H 2440 0.962    H 2439 0.954
  2439  H   0.993        C 2438 0.954
  2440  H   0.995        C 2438 0.962
  2441  C   3.979        C 2450 1.428    C 2442 1.385    C 2438 0.997    C 2446 0.120
  2442  C   3.987        C 2444 1.461    C 2441 1.385    H 2443 0.969    C 2448 0.114
  2443  H   0.999        C 2442 0.969
  2444  C   3.987        C 2442 1.461    C 2446 1.431    H 2445 0.968
  2445  H   0.997        C 2444 0.968
  2446  C   3.984        C 2444 1.431    C 2448 1.426    H 2447 0.967    C 2441 0.120
  2447  H   0.997        C 2446 0.967
  2448  C   3.988        C 2450 1.446    C 2446 1.426    H 2449 0.965    C 2442 0.114
  2449  H   0.997        C 2448 0.965
  2450  C   3.988        C 2448 1.446    C 2441 1.428    H 2451 0.963
  2451  H   0.998        C 2450 0.963
  2452  C   3.950        O 2453 1.582    N 2454 1.358    C 2436 0.924
  2453  O   1.956        C 2452 1.582    N 2454 0.195
  2454  N   3.497        C 2452 1.358    C 2456 0.975    H 2455 0.878    O 2453 0.195
  2455  H   0.941        N 2454 0.878
  2456  C   3.960        C 2458 0.983    N 2454 0.975    H 2457 0.952    C 2476 0.919
  2457  H   0.993        C 2456 0.952
  2458  C   3.985        C 2461 1.018    C 2456 0.983    H 2459 0.967    H 2460 0.965
  2459  H   0.994        C 2458 0.967
  2460  H   0.994        C 2458 0.965
  2461  C   3.988        C 2458 1.018    C 2464 0.983    H 2463 0.974    H 2462 0.968
  2462  H   0.994        C 2461 0.968
  2463  H   0.997        C 2461 0.974
  2464  C   3.954        N 2467 0.996    C 2461 0.983    H 2466 0.962    H 2465 0.961
  2465  H   0.994        C 2464 0.961
  2466  H   0.992        C 2464 0.962
  2467  N   3.473        C 2469 1.300    C 2464 0.996    H 2468 0.918    N 2470 0.103
  2468  H   0.955        N 2467 0.918
  2469  C   3.978        N 2470 1.360    N 2467 1.300    N 2473 1.285
  2470  N   3.402        C 2469 1.360    H 2472 0.903    H 2471 0.894    N 2467 0.103    N 2473 0.101
  2471  H   0.921        N 2470 0.894
  2472  H   0.935        N 2470 0.903
  2473  N   3.370        C 2469 1.285    H 2475 0.928    H 2474 0.906    N 2470 0.101
  2474  H   0.927        N 2473 0.906
  2475  H   0.951        N 2473 0.928
  2476  C   3.945        O 2477 1.647    N 2478 1.301    C 2456 0.919
  2477  O   1.962        C 2476 1.647    N 2478 0.199
  2478  N   3.459        C 2476 1.301    C 2480 0.970    H 2479 0.903    O 2477 0.199
  2479  H   0.949        N 2478 0.903
  2480  C   3.963        N 2478 0.970    C 2482 0.965    H 2481 0.954    C 2490 0.931
  2481  H   0.991        C 2480 0.954
  2482  C   3.960        O 2488 0.999    C 2484 0.987    C 2480 0.965    H 2483 0.960
  2483  H   0.999        C 2482 0.960
  2484  C   3.986        C 2482 0.987    H 2487 0.983    H 2486 0.983    H 2485 0.982
  2485  H   0.997        C 2484 0.982
  2486  H   0.995        C 2484 0.983
  2487  H   0.997        C 2484 0.983
  2488  O   1.961        C 2482 0.999    H 2489 0.848
  2489  H   0.886        O 2488 0.848
  2490  C   3.954        O 2491 1.628    N 2492 1.320    C 2480 0.931
  2491  O   1.944        C 2490 1.628    N 2492 0.199
  2492  N   3.487        C 2490 1.320    C 2494 0.988    H 2493 0.904    O 2491 0.199
  2493  H   0.948        N 2492 0.904
  2494  C   3.962        N 2492 0.988    C 2497 0.978    H 2495 0.944    H 2496 0.943
  2495  H   0.989        C 2494 0.944
  2496  H   0.989        C 2494 0.943
  2497  C   3.955        O 2498 1.624    N 2499 1.294    C 2494 0.978
  2498  O   1.934        C 2497 1.624    N 2499 0.198
  2499  N   3.448        C 2497 1.294    C 2501 0.960    H 2500 0.904    O 2498 0.198
  2500  H   0.953        N 2499 0.904
  2501  C   3.971        C 2511 0.974    C 2503 0.964    N 2499 0.960    H 2502 0.942
  2502  H   0.990        C 2501 0.942
  2503  C   3.954        C 2505 0.996    O 2509 0.977    C 2501 0.964    H 2504 0.959
  2504  H   0.998        C 2503 0.959
  2505  C   3.985        C 2503 0.996    H 2506 0.983    H 2508 0.982    H 2507 0.979
  2506  H   0.996        C 2505 0.983
  2507  H   0.994        C 2505 0.979
  2508  H   0.996        C 2505 0.982
  2509  O   1.945        C 2503 0.977    H 2510 0.868
  2510  H   0.887        O 2509 0.868
  2511  C   3.959        O 2512 1.657    N 2513 1.261    C 2501 0.974
  2512  O   1.967        C 2511 1.657    N 2513 0.199
  2513  N   3.435        C 2511 1.261    C 2515 0.963    H 2514 0.924    O 2512 0.199
  2514  H   0.954        N 2513 0.924
  2515  C   3.953        C 2517 0.972    N 2513 0.963    C 2535 0.940    H 2516 0.933
  2516  H   0.990        C 2515 0.933
  2517  C   3.980        C 2520 1.008    C 2515 0.972    H 2519 0.972    H 2518 0.955
  2518  H   0.994        C 2517 0.955
  2519  H   0.996        C 2517 0.972
  2520  C   3.972        C 2521 1.596    C 2534 1.199    C 2517 1.008
  2521  C   3.953        C 2520 1.596    N 2523 1.193    H 2522 0.965
  2522  H   0.995        C 2521 0.965
  2523  N   3.538        C 2521 1.193    C 2525 1.188    H 2524 0.930
  2524  H   0.957        N 2523 0.930
  2525  C   3.956        C 2526 1.315    C 2534 1.258    N 2523 1.188
  2526  C   3.985        C 2528 1.498    C 2525 1.315    H 2527 0.969    C 2532 0.119
  2527  H   0.997        C 2526 0.969
  2528  C   3.982        C 2526 1.498    C 2530 1.359    H 2529 0.966
  2529  H   0.997        C 2528 0.966
  2530  C   3.988        C 2532 1.513    C 2528 1.359    H 2531 0.969
  2531  H   0.999        C 2530 0.969
  2532  C   3.989        C 2530 1.513    C 2534 1.309    H 2533 0.965    C 2526 0.119
  2533  H   0.999        C 2532 0.965
  2534  C   3.979        C 2532 1.309    C 2525 1.258    C 2520 1.199
  2535  C   3.937        O 2536 1.578    N 2537 1.332    C 2515 0.940
  2536  O   1.927        C 2535 1.578    N 2537 0.180
  2537  N   3.462        C 2535 1.332    C 2539 0.955    H 2538 0.908    O 2536 0.180
  2538  H   0.954        N 2537 0.908
  2539  C   3.963        C 2541 0.978    N 2537 0.955    C 2547 0.949    H 2540 0.945
  2540  H   0.996        C 2539 0.945
  2541  C   3.984        C 2539 0.978    H 2542 0.978    H 2543 0.964    C 2544 0.929
  2542  H   0.998        C 2541 0.978
  2543  H   0.997        C 2541 0.964
  2544  C   3.939        O 2546 1.508    O 2545 1.483    C 2541 0.929
  2545  O   1.771        C 2544 1.483    O 2546 0.222
  2546  O   1.801        C 2544 1.508    O 2545 0.222
  2547  C   3.946        O 2548 1.642    N 2549 1.289    C 2539 0.949
  2548  O   1.953        C 2547 1.642    N 2549 0.197
  2549  N   3.448        C 2547 1.289    C 2551 0.955    H 2550 0.927    O 2548 0.197
  2550  H   0.960        N 2549 0.927
  2551  C   3.945        C 2553 0.985    C 2557 0.958    N 2549 0.955    H 2552 0.937
  2552  H   0.990        C 2551 0.937
  2553  C   3.974        C 2551 0.985    H 2556 0.983    H 2554 0.981    H 2555 0.970
  2554  H   0.993        C 2553 0.981
  2555  H   0.992        C 2553 0.970
  2556  H   0.994        C 2553 0.983
  2557  C   3.951        O 2558 1.597    N 2559 1.312    C 2551 0.958
  2558  O   1.909        C 2557 1.597    N 2559 0.190
  2559  N   3.476        C 2557 1.312    C 2561 0.973    H 2560 0.898    O 2558 0.190
  2560  H   0.960        N 2559 0.898
  2561  C   3.957        N 2559 0.973    C 2563 0.958    C 2578 0.944    H 2562 0.943
  2562  H   0.993        C 2561 0.943
  2563  C   3.986        C 2566 1.005    H 2565 0.970    H 2564 0.963    C 2561 0.958
  2564  H   0.995        C 2563 0.963
  2565  H   0.996        C 2563 0.970
  2566  C   3.980        C 2567 1.422    C 2576 1.371    C 2563 1.005
  2567  C   3.988        C 2569 1.437    C 2566 1.422    H 2568 0.970    C 2574 0.103
  2568  H   0.999        C 2567 0.970
  2569  C   3.984        C 2567 1.437    C 2571 1.373    H 2570 0.962
  2570  H   0.995        C 2569 0.962
  2571  C   3.945        C 2569 1.373    C 2574 1.319    O 2572 1.114
  2572  O   2.147        C 2571 1.114    H 2573 0.845
  2573  H   0.888        O 2572 0.845
  2574  C   3.987        C 2576 1.495    C 2571 1.319    H 2575 0.962    C 2567 0.103
  2575  H   0.998        C 2574 0.962
  2576  C   3.989        C 2574 1.495    C 2566 1.371    H 2577 0.965
  2577  H   0.999        C 2576 0.965
  2578  C   3.951        O 2579 1.632    N 2580 1.291    C 2561 0.944
  2579  O   1.948        C 2578 1.632    N 2580 0.194
  2580  N   3.441        C 2578 1.291    C 2582 0.959    H 2581 0.906    O 2579 0.194
  2581  H   0.960        N 2580 0.906
  2582  C   3.950        C 2584 1.001    H 2583 0.963    N 2580 0.959    C 2600 0.884
  2583  H   0.998        C 2582 0.963
  2584  C   3.990        C 2587 1.002    C 2582 1.001    H 2585 0.973    H 2586 0.968
  2585  H   1.000        C 2584 0.973
  2586  H   0.998        C 2584 0.968
  2587  C   3.992        C 2590 1.007    C 2584 1.002    H 2589 0.974    H 2588 0.972
  2588  H   0.996        C 2587 0.972
  2589  H   0.998        C 2587 0.974
  2590  C   3.988        C 2593 1.014    C 2587 1.007    H 2592 0.969    H 2591 0.966
  2591  H   0.996        C 2590 0.966
  2592  H   0.992        C 2590 0.969
  2593  C   3.920        C 2590 1.014    H 2594 0.964    H 2595 0.962    N 2596 0.960
  2594  H   0.989        C 2593 0.964
  2595  H   0.983        C 2593 0.962
  2596  N   3.659        C 2593 0.960    H 2599 0.898    H 2597 0.890    H 2598 0.887
  2597  H   0.906        N 2596 0.890
  2598  H   0.906        N 2596 0.887
  2599  H   0.917        N 2596 0.898
  2600  C   3.931        O 2602 1.537    O 2601 1.468    C 2582 0.884
  2601  O   1.764        C 2600 1.468    O 2602 0.223
  2602  O   1.836        C 2600 1.537    O 2601 0.223
  2603  C   3.987        C 2605 1.465    C 2613 1.372    H 2604 0.966    C 2609 0.125
  2604  H   0.997        C 2603 0.966
  2605  C   3.990        C 2603 1.465    C 2607 1.428    H 2606 0.964
  2606  H   0.998        C 2605 0.964
  2607  C   3.991        C 2609 1.441    C 2605 1.428    H 2608 0.966    C 2613 0.109
  2608  H   0.998        C 2607 0.966
  2609  C   3.992        C 2607 1.441    C 2611 1.421    H 2610 0.966    C 2603 0.125
  2610  H   0.999        C 2609 0.966
  2611  C   3.992        C 2613 1.458    C 2609 1.421    H 2612 0.960
  2612  H   0.999        C 2611 0.960
  2613  C   3.988        C 2611 1.458    C 2603 1.372    C 2614 1.016    C 2607 0.109
  2614  C   3.991        C 2613 1.016    H 2615 0.980    H 2616 0.976    H 2617 0.964
  2615  H   0.997        C 2614 0.980
  2616  H   0.998        C 2614 0.976
  2617  H   0.997        C 2614 0.964

molecular dipole:
                 x           y           z       tot (Debye)
 q only:      600.538     682.298     689.527
   full:      600.576     681.906     695.926    2909.164
molecular quadrupole (traceless):
                xx          xy          yy          xz          yz          zz
 q only:   -13075.767   71769.698    6813.890   73417.217   84264.063    6261.877
  q+dip:   -13676.946   71322.863    6187.561   73917.418   84865.091    7489.385
   full:   -13664.581   71323.133    6170.732   73919.559   84863.711    7493.850


           -------------------------------------------------
          | TOTAL ENERGY            -4104.316219308295 Eh   |
          | GRADIENT NORM               1.302793750834 Eh/α |
          | HOMO-LUMO GAP               1.854279328908 eV   |
           -------------------------------------------------

------------------------------------------------------------------------
 * finished run on 2020/07/25 at 02:05:56.509     
------------------------------------------------------------------------
 total:
 * wall-time:     0 d,  0 h,  6 min, 50.225 sec
 *  cpu-time:     0 d,  4 h, 58 min, 10.784 sec
 * ratio c/w:    43.612 speedup
 SCF:
 * wall-time:     0 d,  0 h,  6 min, 18.397 sec
 *  cpu-time:     0 d,  4 h, 45 min, 45.813 sec
 * ratio c/w:    45.312 speedup

