      -----------------------------------------------------------      
     |                   =====================                   |     
     |                           x T B                           |     
     |                   =====================                   |     
     |                         S. Grimme                         |     
     |          Mulliken Center for Theoretical Chemistry        |     
     |                    University of Bonn                     |     
      -----------------------------------------------------------      

   * xtb version 6.2.3 (d7bf61a) compiled by 'conda@06d140edd85e' on 2020-05-12

   xtb is free software: you can redistribute it and/or modify it under
   the terms of the GNU Lesser General Public License as published by
   the Free Software Foundation, either version 3 of the License, or
   (at your option) any later version.
   
   xtb is distributed in the hope that it will be useful,
   but WITHOUT ANY WARRANTY; without even the implied warranty of
   MERCHANTABILITY or FITNESS FOR A PARTICULAR PURPOSE.  See the
   GNU Lesser General Public License for more details.
   
   Cite this work as:
   * S. Grimme, C. Bannwarth, P. Shushkov, J. Chem. Theory Comput., 2017,
     13, 1989-2009. DOI: 10.1021/acs.jctc.7b00118
   * C. Bannwarth, S. Ehlert and S. Grimme., J. Chem. Theory Comput., 2019,
     15, 1652-1671. DOI: 10.1021/acs.jctc.8b01176
   * P. Pracht, E. Caldeweyher, S. Ehlert, S. Grimme, ChemRxiv, 2019, preprint.
     DOI: 10.26434/chemrxiv.8326202.v1
   
   for DFT-D4:
   * E. Caldeweyher, C. Bannwarth and S. Grimme, J. Chem. Phys., 2017,
     147, 034112. DOI: 10.1063/1.4993215
   * E. Caldeweyher, S. Ehlert, A. Hansen, H. Neugebauer, S. Spicher,
     C. Bannwarth and S. Grimme, J. Chem. Phys., 2019, 150, 154122.
     DOI: 10.1063/1.5090222
   
   for sTDA-xTB:
   * S. Grimme and C. Bannwarth, J. Chem. Phys., 2016, 145, 054103.
     DOI: 10.1063/1.4959605
   
   in the mass-spec context:
   * V. Asgeirsson, C. Bauer and S. Grimme, Chem. Sci., 2017, 8, 4879.
     DOI: 10.1039/c7sc00601b
   
   for metadynamics refer to:
   * S. Grimme, J. Chem. Theory Comput., 2019, 155, 2847-2862
     DOI: 10.1021/acs.jctc.9b00143
   
   with help from (in alphabetical order)
   C. Bannwarth, F. Bohle, G. Brandenburg, E. Caldeweyher, M. Checinski,
   S. Dohm, S. Ehlert, S. Ehrlich, F. März, H. Neugebauer, J. Pisarek,
   P. Pracht, P. Shushkov, and S. Spicher.
   
 * started run on 2020/07/22 at 19:51:24.696     

           -------------------------------------------------
          |                Calculation Setup                |
           -------------------------------------------------

          program call               : xtb host_16441.xyz --chrg +9 --uhf 0 --gbsa water
          hostname                   : gold53.cluster.local
          coordinate file            : host_16441.xyz
          omp threads                :                    64
          number of atoms            :                  2602
          number of electrons        :                  7192
          charge                     :                     9
          spin                       :                   0.0
          first test random number   :      0.94875199658623

########################################################################
[WARNING] Please study the warnings concerning your input carefully
-2- prog_main: XTBPATH is not set, using XTBHOME instead
-1- prog_main: XTBHOME is not set, using HOME instead
########################################################################
           ------------------------------------------------- 
          |                 G F N 2 - x T B                 |
          | Geometry, Frequencies, Noncovalent interactions |
          |            JCTC 2019 parametrisation            |
           ------------------------------------------------- 
             k(s)              :                1.8500
             k(p)              :                2.2300
             k(d)              :                2.2300
             k(f)              :                2.0000
             kEN (H0ij)        :               -2.0000
             D4 a1             :                0.5200
             D4 a2             :                5.0000
             D4 s6             :                1.0000
             D4 s8             :                2.7000
             D4 s9             :                5.0000
             alphaj            :                2.0000

  Z AO/shell   Hii/eV     exponent
  1     Wed Apr 25 08:07:45 CEST 2018   EN: 2.200 GM2: 0.406  GM3: 0.0800  RAES: 1.40
     1s    -10.707211    1.230000
  6     Wed Apr 25 08:07:45 CEST 2018   EN: 2.550 GM2: 0.538  GM3: 0.1500  RAES: 3.00
     2s    -13.970922    2.096432
     2p    -10.063292    1.800000
  7     Wed Apr 25 08:07:45 CEST 2018   EN: 3.040 GM2: 0.461  GM3:-0.0640  RAES: 1.90
     2s    -16.686243    2.339881
     2p    -12.523956    2.014332
  8     Wed Apr 25 08:07:45 CEST 2018   EN: 3.440 GM2: 0.452  GM3:-0.0517  RAES: 1.80
     2s    -20.229985    2.439742
     2p    -15.503117    2.137023
 16     Tue Apr 24 11:44:34 CEST 2018   EN: 2.580 GM2: 0.340  GM3:-0.0502  RAES: 3.10
     3s    -20.029654    1.981333
     3p    -11.377694    2.025643
     3d     -0.420282    1.702555

 Solvent             : water
 Using internal parameter file: .param_gbsa2_water
 Gsolv ref. state (COSMO-RS): gsolv [1 M gas/solution]
 temperature (mdtemp)       :    298.14999999999998     
 dielectric constant        :    80.200000000000003     
 rho                        :    1.0000000000000000     
 mass                       :    18.000000000000000     
 surface tension            :    15.568945408385856     
 probe radius               :   0.97531378999999996     
 Gshift (Eh)                :    1.8574431267947933E-003
 c1                         :    1.5524381700000001     
 soset                      :   0.13032636000000000     
 HB correction              :  T
           ------------------------------------------------- 
          |        Self-Consistent Charge Iterations        |
           ------------------------------------------------- 

          ...................................................
          :                      SETUP                      :
          :.................................................:
          :  # basis functions                6511          :
          :  # atomic orbitals                6505          :
          :  # shells                         3899          :
          :  # electrons                      7192          :
          :  max. iterations                   250          :
          :  Hamiltonian                  GFN2-xTB          :
          :  restarted?                      false          :
          :  GBSA solvation                   true          :
          :  PC potential                    false          :
          :  electronic temp.          300.0000000     K    :
          :  accuracy                    1.0000000          :
          :  -> integral cutoff          0.2500000E+02      :
          :  -> integral neglect         0.1000000E-07      :
          :  -> SCF convergence          0.1000000E-05 Eh   :
          :  -> wf. convergence          0.1000000E-03 e    :
          :  Broyden damping             0.4000000          :
          ...................................................

 iter      E             dE          RMSdq      gap      omega  full diag
   1  -4120.4373360 -0.412044E+04  0.428E+00    2.04       0.0  T
   2  -4132.7605707 -0.123232E+02  0.226E+00    2.32       1.0  T
   3  -4133.2494930 -0.488922E+00  0.119E+00    2.21       1.0  T
   4  -4133.3307973 -0.813044E-01  0.280E-01    1.86       1.0  T
   5  -4133.4201799 -0.893825E-01  0.139E-01    1.81       1.0  T
   6  -4133.4326274 -0.124475E-01  0.715E-02    1.83       1.0  T
   7  -4133.4346689 -0.204149E-02  0.369E-02    1.79       1.0  T
   8  -4133.4357211 -0.105227E-02  0.166E-02    1.75       1.0  T
   9  -4133.4358698 -0.148690E-03  0.996E-03    1.72       1.0  T
  10  -4133.4359477 -0.778461E-04  0.535E-03    1.70       1.0  T
  11  -4133.4359720 -0.243046E-04  0.261E-03    1.69       1.0  T
  12  -4133.4359776 -0.562319E-05  0.138E-03    1.68       1.4  T
  13  -4133.4359792 -0.153941E-05  0.727E-04    1.68       2.7  T
  14  -4133.4359796 -0.403148E-06  0.360E-04    1.67       5.4  T
  15  -4133.4359797 -0.116005E-06  0.178E-04    1.67      11.0  T

   *** convergence criteria satisfied after 15 iterations ***

         #    Occupation            Energy/Eh            Energy/eV
      -------------------------------------------------------------
         1        2.0000           -0.7584647             -20.6389
       ...           ...                  ...                  ...
      3590        2.0000           -0.3581769              -9.7465
      3591        2.0000           -0.3577258              -9.7342
      3592        2.0000           -0.3570735              -9.7165
      3593        2.0000           -0.3567058              -9.7065
      3594        2.0000           -0.3537893              -9.6271
      3595        2.0000           -0.3521567              -9.5827
      3596        2.0000           -0.3479690              -9.4687 (HOMO)
      3597                         -0.2864582              -7.7949 (LUMO)
      3598                         -0.2743120              -7.4644
      3599                         -0.2716413              -7.3917
      3600                         -0.2706142              -7.3638
      3601                         -0.2679245              -7.2906
       ...                                ...                  ...
      6505                          0.7666340              20.8612
      -------------------------------------------------------------
                  HL-Gap            0.0615108 Eh            1.6738 eV
             Fermi-level           -0.3172136 Eh           -8.6318 eV

 SCC (total)                   0 d,  0 h,  6 min, 37.983 sec
 SCC setup                      ...        0 min,  3.147 sec (  0.791%)
 Dispersion                     ...        0 min,  1.966 sec (  0.494%)
 integral evaluation            ...        0 min,  8.347 sec (  2.097%)
 zeroth order Hamiltonian       ...        0 min,  0.342 sec (  0.086%)
 iterations                     ...        6 min,  6.924 sec ( 92.196%)
 molecular gradient             ...        0 min, 16.620 sec (  4.176%)
 printout                       ...        0 min,  0.636 sec (  0.160%)

         :::::::::::::::::::::::::::::::::::::::::::::::::::::
         ::                     SUMMARY                     ::
         :::::::::::::::::::::::::::::::::::::::::::::::::::::
         :: total energy           -4085.330285136278 Eh    ::
         :: total w/o Gsasa/hb     -4084.921515609150 Eh    ::
         :: gradient norm              1.328089986322 Eh/a0 ::
         :: HOMO-LUMO gap              1.673793739474 eV    ::
         ::.................................................::
         :: SCC energy             -4133.500823784772 Eh    ::
         :: -> isotropic ES           14.133033051115 Eh    ::
         :: -> anisotropic ES         -0.725097694111 Eh    ::
         :: -> anisotropic XC          1.158651282062 Eh    ::
         :: -> dispersion             -3.879103251666 Eh    ::
         :: -> Gsolv                  -4.006073617832 Eh    ::
         ::    -> Gborn               -3.597304090705 Eh    ::
         ::    -> Gsasa               -0.066701557862 Eh    ::
         ::    -> Ghb                 -0.343925412392 Eh    ::
         ::    -> Gshift               0.001857443127 Eh    ::
         :: repulsion energy          47.637848023603 Eh    ::
         :: add. restraining           0.000000000000 Eh    ::
         :::::::::::::::::::::::::::::::::::::::::::::::::::::

           -------------------------------------------------
          |                Property Printout                |
           -------------------------------------------------

    * Orbital Energies and Occupations

         #    Occupation            Energy/Eh            Energy/eV
      -------------------------------------------------------------
         1        2.0000           -0.7584647             -20.6389
       ...           ...                  ...                  ...
      3584        2.0000           -0.3624182              -9.8619
      3585        2.0000           -0.3620998              -9.8532
      3586        2.0000           -0.3613996              -9.8342
      3587        2.0000           -0.3605956              -9.8123
      3588        2.0000           -0.3600351              -9.7971
      3589        2.0000           -0.3593835              -9.7793
      3590        2.0000           -0.3581769              -9.7465
      3591        2.0000           -0.3577258              -9.7342
      3592        2.0000           -0.3570735              -9.7165
      3593        2.0000           -0.3567058              -9.7065
      3594        2.0000           -0.3537893              -9.6271
      3595        2.0000           -0.3521567              -9.5827
      3596        2.0000           -0.3479690              -9.4687 (HOMO)
      3597                         -0.2864582              -7.7949 (LUMO)
      3598                         -0.2743120              -7.4644
      3599                         -0.2716413              -7.3917
      3600                         -0.2706142              -7.3638
      3601                         -0.2679245              -7.2906
      3602                         -0.2672544              -7.2724
      3603                         -0.2642796              -7.1914
      3604                         -0.2641015              -7.1866
      3605                         -0.2639927              -7.1836
      3606                         -0.2629880              -7.1563
      3607                         -0.2624562              -7.1418
       ...                                ...                  ...
      6505                          0.7666340              20.8612
      -------------------------------------------------------------
                  HL-Gap            0.0615108 Eh            1.6738 eV
             Fermi-level           -0.3172136 Eh           -8.6318 eV

     #   Z        covCN         q      C6AA      α(0)
     1   7 N      3.495    -0.146    24.144     7.298
     2   1 H      0.860     0.317     0.665     1.278
     3   1 H      0.860     0.304     0.702     1.312
     4   1 H      0.860     0.299     0.716     1.326
     5   6 C      3.779    -0.016    20.888     6.511
     6   1 H      0.924     0.136     1.490     1.909
     7   6 C      3.822    -0.089    22.180     6.702
     8   1 H      0.924     0.106     1.735     2.060
     9   1 H      0.925     0.086     1.914     2.164
    10   6 C      3.793    -0.012    20.806     6.496
    11   1 H      0.925     0.068     2.104     2.269
    12   1 H      0.926     0.068     2.105     2.269
    13  16 S      1.967    -0.249   151.725    20.732
    14   6 C      3.746    -0.045    21.444     6.605
    15   1 H      0.924     0.049     2.333     2.389
    16   1 H      0.925     0.049     2.332     2.388
    17   1 H      0.925     0.050     2.318     2.381
    18   6 C      2.756     0.257    22.677     7.798
    19   8 O      0.862    -0.482    23.391     6.484
    20   7 N      2.695    -0.128    23.780     7.243
    21   1 H      0.860     0.203     1.091     1.636
    22   6 C      3.796     0.020    20.240     6.406
    23   1 H      0.924     0.121     1.607     1.982
    24   6 C      3.813    -0.118    22.742     6.788
    25   1 H      0.925     0.073     2.048     2.238
    26   1 H      0.924     0.098     1.802     2.099
    27   6 C      2.745     0.293    22.029     7.685
    28   8 O      0.871    -0.478    23.294     6.471
    29   7 N      2.652    -0.277    27.150     7.739
    30   1 H      0.860     0.254     0.869     1.461
    31   1 H      0.860     0.218     1.019     1.582
    32   6 C      2.754     0.258    22.653     7.794
    33   8 O      0.859    -0.519    24.203     6.596
    34   7 N      2.689    -0.171    24.690     7.380
    35   1 H      0.860     0.235     0.943     1.521
    36   6 C      3.794     0.014    20.342     6.423
    37   1 H      0.924     0.083     1.952     2.185
    38   6 C      3.845    -0.038    21.222     6.553
    39   1 H      0.924     0.084     1.940     2.178
    40   6 C      3.752    -0.139    23.241     6.875
    41   1 H      0.925     0.044     2.398     2.422
    42   1 H      0.925     0.064     2.155     2.296
    43   1 H      0.924     0.085     1.924     2.169
    44   6 C      3.799    -0.077    21.968     6.673
    45   1 H      0.924     0.036     2.505     2.475
    46   1 H      0.925     0.057     2.231     2.336
    47   6 C      3.749    -0.119    22.846     6.817
    48   1 H      0.925     0.048     2.340     2.392
    49   1 H      0.924     0.038     2.481     2.463
    50   1 H      0.925     0.052     2.294     2.368
    51   6 C      2.747     0.275    22.350     7.741
    52   8 O      0.859    -0.489    23.551     6.507
    53   7 N      2.684    -0.198    25.307     7.471
    54   1 H      0.860     0.200     1.108     1.649
    55   6 C      3.787     0.014    20.359     6.427
    56   1 H      0.925     0.094     1.843     2.123
    57   6 C      3.796    -0.078    22.003     6.679
    58   1 H      0.925     0.071     2.074     2.252
    59   1 H      0.925     0.054     2.266     2.354
    60   6 C      2.944    -0.000    28.039     8.685
    61   6 C      2.907    -0.049    29.214     8.863
    62   1 H      0.926     0.049     2.335     2.389
    63   6 C      2.900    -0.048    29.183     8.857
    64   1 H      0.926     0.073     2.051     2.239
    65   6 C      2.899    -0.039    28.962     8.824
    66   1 H      0.926     0.050     2.324     2.384
    67   6 C      2.898    -0.032    28.804     8.800
    68   1 H      0.926     0.029     2.593     2.518
    69   6 C      2.905    -0.045    29.111     8.847
    70   1 H      0.926     0.039     2.468     2.457
    71   6 C      2.749     0.274    22.369     7.744
    72   8 O      0.860    -0.503    23.848     6.547
    73   7 N      2.693    -0.171    24.691     7.380
    74   1 H      0.860     0.225     0.988     1.557
    75   6 C      3.789     0.018    20.283     6.414
    76   1 H      0.925     0.089     1.892     2.151
    77   6 C      3.810    -0.052    21.493     6.599
    78   1 H      0.924     0.040     2.450     2.448
    79   1 H      0.925     0.055     2.260     2.351
    80   6 C      3.800    -0.092    22.263     6.718
    81   1 H      0.924     0.031     2.568     2.506
    82   1 H      0.925     0.029     2.603     2.523
    83   6 C      2.689     0.358    20.925     7.486
    84   8 O      0.856    -0.629    26.852     6.947
    85   8 O      0.857    -0.640    27.117     6.982
    86   6 C      2.750     0.265    22.537     7.773
    87   8 O      0.860    -0.471    23.150     6.451
    88   7 N      2.684    -0.191    25.134     7.446
    89   1 H      0.860     0.218     1.018     1.581
    90   6 C      3.785     0.024    20.179     6.398
    91   1 H      0.924     0.069     2.096     2.264
    92   6 C      3.842    -0.078    21.951     6.665
    93   1 H      0.925     0.072     2.058     2.244
    94   1 H      0.925     0.070     2.087     2.259
    95   6 C      3.794    -0.019    20.927     6.514
    96   1 H      0.925     0.049     2.335     2.390
    97   1 H      0.925     0.042     2.427     2.436
    98  16 S      1.994    -0.181   148.716    20.525
    99   6 C      3.745    -0.073    21.972     6.686
   100   1 H      0.925     0.059     2.216     2.328
   101   1 H      0.925     0.079     1.985     2.203
   102   1 H      0.925     0.075     2.027     2.227
   103   6 C      2.743     0.267    22.500     7.767
   104   8 O      0.857    -0.473    23.193     6.457
   105   7 N      2.682    -0.201    25.363     7.480
   106   1 H      0.860     0.229     0.971     1.544
   107   6 C      3.779     0.015    20.342     6.425
   108   1 H      0.925     0.095     1.831     2.116
   109   6 C      3.812    -0.086    22.129     6.696
   110   1 H      0.925     0.076     2.022     2.224
   111   1 H      0.925     0.062     2.171     2.304
   112   6 C      3.850    -0.024    20.968     6.513
   113   1 H      0.924     0.052     2.300     2.372
   114   6 C      3.758    -0.122    22.888     6.821
   115   1 H      0.924     0.054     2.276     2.359
   116   1 H      0.925     0.051     2.310     2.377
   117   1 H      0.925     0.035     2.514     2.480
   118   6 C      3.754    -0.131    23.072     6.849
   119   1 H      0.924     0.040     2.451     2.448
   120   1 H      0.924     0.054     2.271     2.357
   121   1 H      0.925     0.048     2.347     2.396
   122   6 C      2.751     0.269    22.460     7.760
   123   8 O      0.863    -0.483    23.416     6.488
   124   7 N      2.689    -0.177    24.841     7.402
   125   1 H      0.860     0.189     1.166     1.691
   126   6 C      3.781     0.015    20.338     6.424
   127   1 H      0.924     0.094     1.840     2.121
   128   6 C      3.793    -0.091    22.249     6.717
   129   1 H      0.925     0.053     2.280     2.361
   130   1 H      0.925     0.071     2.074     2.252
   131   6 C      3.797    -0.087    22.157     6.702
   132   1 H      0.924     0.073     2.052     2.240
   133   1 H      0.924     0.085     1.929     2.172
   134   6 C      3.738    -0.022    21.052     6.547
   135   1 H      0.924     0.110     1.699     2.038
   136   1 H      0.924     0.082     1.957     2.188
   137   7 N      2.721    -0.172    24.730     7.386
   138   1 H      0.860     0.219     1.012     1.576
   139   6 C      2.733     0.251    22.791     7.816
   140   7 N      2.694    -0.257    26.669     7.670
   141   1 H      0.860     0.245     0.904     1.489
   142   1 H      0.860     0.252     0.876     1.466
   143   7 N      2.700    -0.283    27.298     7.760
   144   1 H      0.860     0.248     0.890     1.477
   145   1 H      0.860     0.218     1.020     1.582
   146   6 C      2.739     0.259    22.628     7.788
   147   8 O      0.857    -0.488    23.515     6.501
   148   7 N      2.676    -0.192    25.168     7.451
   149   1 H      0.860     0.223     0.994     1.562
   150   6 C      3.770     0.011    20.423     6.440
   151   1 H      0.925     0.079     1.994     2.208
   152   6 C      3.838    -0.017    20.847     6.496
   153   1 H      0.924     0.060     2.201     2.320
   154   6 C      3.755    -0.108    22.630     6.783
   155   1 H      0.925     0.051     2.310     2.377
   156   1 H      0.925     0.042     2.425     2.435
   157   1 H      0.924     0.043     2.403     2.424
   158   6 C      3.802    -0.063    21.700     6.632
   159   1 H      0.924     0.037     2.489     2.467
   160   1 H      0.924     0.034     2.529     2.487
   161   6 C      3.748    -0.096    22.390     6.749
   162   1 H      0.925     0.031     2.573     2.508
   163   1 H      0.924     0.041     2.435     2.440
   164   1 H      0.924     0.033     2.549     2.497
   165   6 C      2.746     0.288    22.125     7.702
   166   8 O      0.861    -0.485    23.444     6.492
   167   7 N      2.688    -0.188    25.076     7.437
   168   1 H      0.860     0.195     1.131     1.666
   169   6 C      3.790     0.033    20.030     6.374
   170   1 H      0.924     0.089     1.886     2.148
   171   6 C      3.806    -0.103    22.464     6.747
   172   1 H      0.924     0.060     2.204     2.322
   173   1 H      0.925     0.044     2.394     2.420
   174   6 C      2.687     0.367    20.778     7.460
   175   8 O      0.863    -0.594    25.979     6.834
   176   8 O      0.862    -0.579    25.610     6.785
   177   6 C      2.753     0.266    22.519     7.771
   178   8 O      0.857    -0.507    23.936     6.559
   179   7 N      2.683    -0.175    24.784     7.394
   180   1 H      0.860     0.214     1.035     1.594
   181   6 C      3.783     0.023    20.205     6.403
   182   1 H      0.924     0.082     1.954     2.186
   183   6 C      3.801    -0.058    21.626     6.621
   184   1 H      0.925     0.049     2.338     2.391
   185   1 H      0.925     0.054     2.275     2.359
   186   6 C      3.795    -0.109    22.587     6.768
   187   1 H      0.925     0.040     2.444     2.445
   188   1 H      0.925     0.031     2.577     2.510
   189   6 C      2.682     0.360    20.894     7.480
   190   8 O      0.856    -0.657    27.571     7.040
   191   8 O      0.856    -0.627    26.798     6.941
   192   6 C      2.739     0.265    22.525     7.771
   193   8 O      0.858    -0.466    23.054     6.437
   194   7 N      2.677    -0.167    24.620     7.369
   195   1 H      0.860     0.204     1.084     1.631
   196   6 C      3.732    -0.036    21.302     6.588
   197   1 H      0.925     0.106     1.734     2.059
   198   1 H      0.924     0.085     1.928     2.171
   199   6 C      2.744     0.263    22.557     7.777
   200   8 O      0.858    -0.495    23.664     6.522
   201   7 N      2.687    -0.174    24.763     7.391
   202   1 H      0.860     0.220     1.011     1.575
   203   6 C      3.789     0.016    20.325     6.421
   204   1 H      0.925     0.071     2.078     2.254
   205   6 C      3.813    -0.082    22.047     6.683
   206   1 H      0.925     0.084     1.943     2.180
   207   1 H      0.925     0.058     2.227     2.334
   208   6 C      3.849    -0.013    20.780     6.484
   209   1 H      0.925     0.034     2.527     2.486
   210   6 C      3.758    -0.108    22.618     6.781
   211   1 H      0.925     0.029     2.604     2.523
   212   1 H      0.925     0.040     2.455     2.450
   213   1 H      0.924     0.024     2.680     2.560
   214   6 C      3.748    -0.123    22.924     6.829
   215   1 H      0.925     0.061     2.189     2.314
   216   1 H      0.925     0.046     2.370     2.408
   217   1 H      0.924     0.020     2.731     2.584
   218   6 C      2.745     0.267    22.487     7.765
   219   8 O      0.861    -0.459    22.896     6.416
   220   7 N      2.676    -0.178    24.852     7.404
   221   1 H      0.860     0.211     1.049     1.605
   222   6 C      3.782     0.007    20.483     6.447
   223   1 H      0.925     0.086     1.919     2.166
   224   6 C      3.808    -0.079    22.000     6.677
   225   1 H      0.925     0.076     2.024     2.225
   226   1 H      0.925     0.064     2.151     2.294
   227   6 C      3.805    -0.091    22.231     6.712
   228   1 H      0.925     0.054     2.273     2.358
   229   1 H      0.925     0.084     1.938     2.177
   230   6 C      3.737    -0.028    21.151     6.563
   231   1 H      0.925     0.103     1.755     2.072
   232   1 H      0.925     0.067     2.115     2.274
   233   7 N      2.702    -0.149    24.228     7.311
   234   1 H      0.860     0.256     0.859     1.452
   235   6 C      2.734     0.240    22.986     7.850
   236   7 N      2.664    -0.224    25.891     7.557
   237   1 H      0.860     0.227     0.980     1.551
   238   1 H      0.860     0.230     0.964     1.538
   239   7 N      2.672    -0.265    26.858     7.697
   240   1 H      0.860     0.233     0.953     1.529
   241   1 H      0.860     0.262     0.839     1.435
   242   6 C      2.751     0.272    22.403     7.750
   243   8 O      0.857    -0.462    22.953     6.423
   244   7 N      2.690    -0.183    24.967     7.421
   245   1 H      0.860     0.228     0.974     1.546
   246   6 C      3.788     0.014    20.361     6.427
   247   1 H      0.924     0.076     2.022     2.224
   248   6 C      3.803    -0.088    22.182     6.705
   249   1 H      0.925     0.074     2.039     2.233
   250   1 H      0.925     0.070     2.088     2.259
   251   6 C      3.840    -0.028    21.039     6.525
   252   1 H      0.924     0.070     2.086     2.259
   253   6 C      3.756    -0.133    23.102     6.853
   254   1 H      0.925     0.057     2.232     2.336
   255   1 H      0.925     0.059     2.216     2.328
   256   1 H      0.925     0.045     2.379     2.412
   257   6 C      3.753    -0.120    22.864     6.818
   258   1 H      0.925     0.053     2.285     2.364
   259   1 H      0.925     0.024     2.669     2.555
   260   1 H      0.924     0.027     2.634     2.538
   261   6 C      2.742     0.262    22.583     7.781
   262   8 O      0.856    -0.466    23.055     6.438
   263   7 N      2.678    -0.181    24.924     7.415
   264   1 H      0.860     0.202     1.094     1.638
   265   6 C      3.778     0.012    20.404     6.436
   266   1 H      0.925     0.085     1.933     2.174
   267   6 C      3.799    -0.082    22.073     6.689
   268   1 H      0.925     0.070     2.083     2.257
   269   1 H      0.924     0.075     2.027     2.227
   270   6 C      3.789    -0.086    22.158     6.704
   271   1 H      0.924     0.066     2.127     2.281
   272   1 H      0.925     0.062     2.176     2.307
   273   6 C      3.783    -0.105    22.523     6.760
   274   1 H      0.925     0.091     1.874     2.141
   275   1 H      0.925     0.093     1.854     2.129
   276   6 C      3.728    -0.060    21.754     6.659
   277   1 H      0.925     0.114     1.665     2.018
   278   1 H      0.924     0.122     1.600     1.978
   279   7 N      3.491    -0.138    23.984     7.274
   280   1 H      0.860     0.291     0.742     1.349
   281   1 H      0.860     0.299     0.716     1.325
   282   1 H      0.860     0.295     0.730     1.338
   283   6 C      2.743     0.254    22.731     7.806
   284   8 O      0.859    -0.527    24.390     6.621
   285   7 N      2.674    -0.159    24.451     7.344
   286   1 H      0.860     0.217     1.025     1.586
   287   6 C      3.770     0.007    20.497     6.452
   288   1 H      0.924     0.078     1.995     2.209
   289   6 C      3.843    -0.025    20.982     6.516
   290   1 H      0.924     0.078     1.996     2.210
   291   6 C      3.758    -0.124    22.937     6.828
   292   1 H      0.925     0.048     2.342     2.393
   293   1 H      0.925     0.065     2.136     2.285
   294   1 H      0.924     0.036     2.504     2.475
   295   6 C      3.796    -0.087    22.174     6.705
   296   1 H      0.925     0.062     2.174     2.306
   297   1 H      0.925     0.054     2.269     2.355
   298   6 C      3.749    -0.121    22.879     6.822
   299   1 H      0.924     0.030     2.590     2.517
   300   1 H      0.925     0.040     2.454     2.450
   301   1 H      0.925     0.051     2.301     2.372
   302   6 C      2.737     0.278    22.291     7.730
   303   8 O      0.859    -0.459    22.904     6.417
   304   7 N      2.683    -0.158    24.421     7.339
   305   1 H      0.860     0.203     1.091     1.636
   306   6 C      3.786     0.016    20.318     6.420
   307   1 H      0.925     0.097     1.810     2.104
   308   6 C      3.805    -0.100    22.409     6.739
   309   1 H      0.925     0.099     1.792     2.093
   310   1 H      0.925     0.084     1.942     2.180
   311   6 C      2.967    -0.006    28.167     8.705
   312   6 C      2.911    -0.045    29.126     8.850
   313   1 H      0.926     0.044     2.395     2.420
   314   6 C      2.912    -0.075    29.884     8.964
   315   1 H      0.926     0.017     2.785     2.610
   316   6 C      2.834     0.126    25.231     8.231
   317   8 O      1.658    -0.434    21.518     6.262
   318   1 H      0.806     0.314     0.680     1.295
   319   6 C      2.901    -0.059    29.474     8.902
   320   1 H      0.926     0.055     2.258     2.350
   321   6 C      2.906    -0.047    29.172     8.856
   322   1 H      0.926     0.092     1.855     2.130
   323   6 C      2.749     0.268    22.475     7.763
   324   8 O      0.861    -0.487    23.500     6.500
   325   7 N      2.688    -0.175    24.794     7.395
   326   1 H      0.860     0.217     1.024     1.585
   327   6 C      3.807     0.018    20.263     6.408
   328   1 H      0.924     0.071     2.077     2.254
   329   6 C      3.799    -0.075    21.939     6.669
   330   1 H      0.924     0.047     2.357     2.401
   331   1 H      0.925     0.064     2.153     2.295
   332   6 C      3.795    -0.079    22.024     6.683
   333   1 H      0.925     0.083     1.948     2.182
   334   1 H      0.925     0.063     2.162     2.299
   335   6 C      3.795    -0.098    22.374     6.736
   336   1 H      0.924     0.063     2.163     2.300
   337   1 H      0.924     0.092     1.861     2.134
   338   6 C      3.725    -0.059    21.744     6.658
   339   1 H      0.925     0.138     1.474     1.899
   340   1 H      0.925     0.117     1.640     2.003
   341   7 N      3.484    -0.156    24.363     7.331
   342   1 H      0.860     0.309     0.688     1.299
   343   1 H      0.860     0.291     0.739     1.347
   344   1 H      0.860     0.300     0.714     1.324
   345   6 C      2.762     0.279    22.271     7.728
   346   8 O      0.858    -0.502    23.827     6.545
   347   7 N      2.705    -0.189    25.103     7.441
   348   1 H      0.860     0.228     0.975     1.546
   349   6 C      3.795     0.044    19.837     6.342
   350   1 H      0.924     0.058     2.227     2.334
   351   6 C      3.809    -0.093    22.274     6.718
   352   1 H      0.925     0.022     2.708     2.573
   353   1 H      0.924     0.056     2.249     2.345
   354   6 C      2.687     0.364    20.823     7.468
   355   8 O      0.857    -0.635    26.991     6.966
   356   8 O      0.856    -0.642    27.181     6.990
   357   6 C      2.749     0.264    22.546     7.775
   358   8 O      0.857    -0.493    23.632     6.518
   359   7 N      2.677    -0.187    25.065     7.436
   360   1 H      0.860     0.210     1.054     1.608
   361   6 C      3.784     0.012    20.400     6.434
   362   1 H      0.925     0.110     1.693     2.035
   363   6 C      3.730     0.126    18.623     6.160
   364   1 H      0.925     0.012     2.855     2.642
   365   6 C      3.751    -0.134    23.148     6.861
   366   1 H      0.925     0.082     1.956     2.187
   367   1 H      0.924     0.056     2.248     2.345
   368   1 H      0.925     0.075     2.034     2.231
   369   8 O      1.661    -0.466    22.170     6.356
   370   1 H      0.805     0.335     0.624     1.241
   371   6 C      2.754     0.267    22.491     7.766
   372   8 O      0.861    -0.476    23.258     6.466
   373   7 N      2.690    -0.192    25.164     7.450
   374   1 H      0.860     0.191     1.155     1.683
   375   6 C      3.795     0.041    19.884     6.350
   376   1 H      0.925     0.062     2.170     2.304
   377   6 C      3.814    -0.039    21.257     6.562
   378   1 H      0.925     0.044     2.393     2.419
   379   1 H      0.924     0.037     2.483     2.464
   380   6 C      3.802    -0.082    22.059     6.687
   381   1 H      0.924     0.023     2.690     2.565
   382   1 H      0.925     0.007     2.932     2.678
   383   6 C      2.686     0.363    20.835     7.470
   384   8 O      0.856    -0.658    27.592     7.043
   385   8 O      0.856    -0.635    26.992     6.966
   386   6 C      2.757     0.279    22.276     7.729
   387   8 O      0.865    -0.467    23.055     6.438
   388   7 N      2.687    -0.199    25.316     7.473
   389   1 H      0.860     0.192     1.147     1.677
   390   6 C      3.742    -0.029    21.168     6.564
   391   1 H      0.924     0.108     1.715     2.048
   392   1 H      0.924     0.115     1.656     2.012
   393   6 C      2.742     0.267    22.491     7.765
   394   8 O      0.856    -0.469    23.113     6.446
   395   7 N      2.686    -0.150    24.243     7.313
   396   1 H      0.860     0.178     1.226     1.734
   397   6 C      3.780     0.016    20.334     6.424
   398   1 H      0.924     0.093     1.853     2.128
   399   6 C      3.810    -0.072    21.871     6.657
   400   1 H      0.925     0.082     1.960     2.189
   401   1 H      0.925     0.036     2.505     2.475
   402   6 C      2.968    -0.004    28.128     8.699
   403   6 C      2.903    -0.048    29.196     8.860
   404   1 H      0.926     0.029     2.602     2.523
   405   6 C      2.919    -0.054    29.342     8.883
   406   1 H      0.926     0.041     2.441     2.443
   407   6 C      2.835     0.141    24.911     8.179
   408   8 O      1.659    -0.443    21.695     6.288
   409   1 H      0.806     0.359     0.567     1.182
   410   6 C      2.910    -0.071    29.768     8.946
   411   1 H      0.926     0.060     2.204     2.321
   412   6 C      2.914    -0.036    28.884     8.813
   413   1 H      0.926     0.053     2.277     2.360
   414   6 C      2.738     0.257    22.674     7.796
   415   8 O      0.856    -0.526    24.371     6.619
   416   7 N      2.689    -0.154    24.325     7.325
   417   1 H      0.860     0.231     0.963     1.537
   418   6 C      3.791     0.012    20.380     6.429
   419   1 H      0.925     0.088     1.899     2.155
   420   6 C      3.815    -0.080    22.015     6.678
   421   1 H      0.924     0.076     2.017     2.221
   422   1 H      0.925     0.058     2.227     2.334
   423   6 C      2.950    -0.022    28.562     8.766
   424   6 C      2.897    -0.046    29.148     8.852
   425   1 H      0.926     0.033     2.541     2.493
   426   6 C      2.899    -0.074    29.835     8.956
   427   1 H      0.926     0.046     2.370     2.407
   428   6 C      2.821     0.148    24.786     8.157
   429   8 O      1.660    -0.396    20.777     6.153
   430   1 H      0.805     0.347     0.595     1.212
   431   6 C      2.900    -0.066    29.633     8.926
   432   1 H      0.926     0.079     1.987     2.204
   433   6 C      2.894    -0.052    29.286     8.873
   434   1 H      0.926     0.060     2.199     2.319
   435   6 C      2.748     0.285    22.175     7.711
   436   8 O      0.859    -0.470    23.134     6.449
   437   7 N      2.684    -0.202    25.384     7.483
   438   1 H      0.860     0.241     0.917     1.500
   439   6 C      3.780     0.005    20.512     6.452
   440   1 H      0.925     0.073     2.055     2.242
   441   6 C      3.724     0.127    18.614     6.161
   442   1 H      0.925     0.017     2.785     2.610
   443   6 C      3.749    -0.120    22.870     6.821
   444   1 H      0.924     0.046     2.375     2.410
   445   1 H      0.924     0.041     2.434     2.440
   446   1 H      0.925     0.062     2.179     2.309
   447   8 O      1.657    -0.473    22.320     6.378
   448   1 H      0.806     0.309     0.693     1.307
   449   6 C      2.747     0.261    22.592     7.783
   450   8 O      0.861    -0.457    22.847     6.409
   451   7 N      2.686    -0.169    24.662     7.376
   452   1 H      0.860     0.212     1.045     1.602
   453   6 C      3.776     0.004    20.532     6.456
   454   1 H      0.925     0.096     1.820     2.110
   455   6 C      3.841    -0.026    21.015     6.521
   456   1 H      0.925     0.057     2.235     2.338
   457   6 C      3.759    -0.126    22.958     6.831
   458   1 H      0.925     0.049     2.338     2.391
   459   1 H      0.925     0.063     2.165     2.301
   460   1 H      0.925     0.031     2.566     2.505
   461   6 C      3.799    -0.084    22.097     6.693
   462   1 H      0.925     0.043     2.405     2.425
   463   1 H      0.924     0.066     2.133     2.284
   464   6 C      3.745    -0.114    22.753     6.804
   465   1 H      0.924     0.043     2.404     2.425
   466   1 H      0.925     0.045     2.385     2.415
   467   1 H      0.925     0.052     2.294     2.369
   468   6 C      2.744     0.273    22.380     7.746
   469   8 O      0.866    -0.492    23.599     6.513
   470   7 N      2.689    -0.163    24.521     7.354
   471   1 H      0.860     0.232     0.957     1.533
   472   6 C      3.742    -0.025    21.088     6.551
   473   1 H      0.925     0.055     2.258     2.350
   474   1 H      0.924     0.104     1.752     2.070
   475   6 C      2.745     0.276    22.338     7.739
   476   8 O      0.859    -0.454    22.785     6.400
   477   7 N      2.684    -0.175    24.792     7.395
   478   1 H      0.860     0.187     1.173     1.697
   479   6 C      3.770     0.012    20.412     6.438
   480   1 H      0.925     0.078     2.004     2.214
   481   6 C      3.838    -0.013    20.786     6.486
   482   1 H      0.924     0.055     2.257     2.349
   483   6 C      3.749    -0.120    22.863     6.820
   484   1 H      0.924     0.057     2.234     2.337
   485   1 H      0.924     0.026     2.643     2.542
   486   1 H      0.925     0.066     2.134     2.284
   487   6 C      3.801    -0.066    21.757     6.641
   488   1 H      0.925     0.035     2.513     2.479
   489   1 H      0.924     0.063     2.163     2.300
   490   6 C      3.751    -0.119    22.838     6.815
   491   1 H      0.925     0.042     2.416     2.431
   492   1 H      0.925     0.036     2.498     2.472
   493   1 H      0.925     0.052     2.294     2.368
   494   6 C      2.743     0.264    22.538     7.773
   495   8 O      0.859    -0.478    23.305     6.473
   496   7 N      2.680    -0.178    24.849     7.404
   497   1 H      0.860     0.207     1.073     1.622
   498   6 C      3.734    -0.030    21.189     6.570
   499   1 H      0.925     0.097     1.816     2.107
   500   1 H      0.925     0.098     1.806     2.102
   501   6 C      2.745     0.270    22.439     7.756
   502   8 O      0.858    -0.483    23.418     6.488
   503   7 N      2.684    -0.183    24.970     7.421
   504   1 H      0.860     0.219     1.013     1.576
   505   6 C      3.792     0.030    20.074     6.381
   506   1 H      0.925     0.054     2.272     2.357
   507   6 C      3.807    -0.083    22.087     6.690
   508   1 H      0.925     0.123     1.591     1.973
   509   1 H      0.924     0.084     1.935     2.175
   510   6 C      3.070     0.058    26.638     8.463
   511   7 N      2.806    -0.039    21.997     6.966
   512   1 H      0.860     0.261     0.841     1.437
   513   6 C      3.015     0.069    26.426     8.432
   514   1 H      0.926     0.143     1.439     1.876
   515   7 N      2.798    -0.023    21.697     6.918
   516   1 H      0.860     0.268     0.815     1.414
   517   6 C      3.033    -0.011    28.259     8.719
   518   1 H      0.926     0.119     1.621     1.991
   519   6 C      2.748     0.279    22.274     7.728
   520   8 O      0.862    -0.454    22.792     6.401
   521   7 N      2.692    -0.167    24.603     7.367
   522   1 H      0.860     0.209     1.063     1.615
   523   6 C      3.786     0.033    20.038     6.376
   524   1 H      0.924     0.072     2.063     2.246
   525   6 C      3.816    -0.078    21.976     6.672
   526   1 H      0.925     0.056     2.242     2.341
   527   1 H      0.924     0.056     2.240     2.341
   528   6 C      3.853    -0.006    20.642     6.462
   529   1 H      0.925     0.035     2.514     2.480
   530   6 C      3.763    -0.119    22.814     6.808
   531   1 H      0.925     0.040     2.445     2.445
   532   1 H      0.925     0.055     2.259     2.351
   533   1 H      0.925     0.040     2.445     2.445
   534   6 C      3.761    -0.130    23.035     6.842
   535   1 H      0.924     0.045     2.377     2.411
   536   1 H      0.924     0.061     2.184     2.311
   537   1 H      0.925     0.042     2.417     2.431
   538   6 C      2.748     0.264    22.553     7.776
   539   8 O      0.858    -0.511    24.038     6.573
   540   7 N      2.682    -0.180    24.899     7.411
   541   1 H      0.860     0.210     1.057     1.610
   542   6 C      3.779     0.018    20.291     6.417
   543   1 H      0.924     0.087     1.908     2.160
   544   6 C      3.798    -0.081    22.046     6.685
   545   1 H      0.925     0.050     2.320     2.382
   546   1 H      0.925     0.061     2.184     2.311
   547   6 C      3.843    -0.018    20.857     6.496
   548   1 H      0.924     0.030     2.580     2.512
   549   6 C      3.759    -0.125    22.949     6.830
   550   1 H      0.924     0.057     2.236     2.339
   551   1 H      0.924     0.058     2.218     2.329
   552   1 H      0.925     0.039     2.467     2.456
   553   6 C      3.767    -0.118    22.803     6.806
   554   1 H      0.925     0.042     2.421     2.433
   555   1 H      0.925     0.071     2.078     2.254
   556   1 H      0.925     0.025     2.654     2.547
   557   6 C      2.748     0.283    22.211     7.717
   558   8 O      0.858    -0.443    22.565     6.369
   559   7 N      2.704    -0.200    25.344     7.477
   560   1 H      0.860     0.215     1.030     1.590
   561   6 C      3.793     0.028    20.112     6.386
   562   1 H      0.925     0.064     2.156     2.296
   563   6 C      3.742     0.110    18.839     6.192
   564   1 H      0.924     0.030     2.590     2.517
   565   6 C      3.748    -0.128    23.024     6.844
   566   1 H      0.924     0.053     2.288     2.365
   567   1 H      0.925     0.046     2.372     2.409
   568   1 H      0.925     0.072     2.067     2.248
   569   8 O      1.656    -0.482    22.517     6.406
   570   1 H      0.805     0.337     0.620     1.237
   571   6 C      2.755     0.258    22.657     7.795
   572   8 O      0.857    -0.488    23.522     6.503
   573   7 N      2.687    -0.168    24.644     7.373
   574   1 H      0.860     0.213     1.044     1.601
   575   6 C      3.781     0.007    20.486     6.448
   576   1 H      0.925     0.099     1.791     2.093
   577   6 C      3.806    -0.083    22.087     6.690
   578   1 H      0.925     0.084     1.940     2.178
   579   1 H      0.924     0.072     2.063     2.246
   580   6 C      3.798    -0.082    22.061     6.688
   581   1 H      0.924     0.057     2.235     2.338
   582   1 H      0.925     0.050     2.318     2.381
   583   6 C      3.795    -0.092    22.255     6.718
   584   1 H      0.924     0.076     2.016     2.221
   585   1 H      0.925     0.096     1.825     2.113
   586   6 C      3.731    -0.045    21.484     6.616
   587   1 H      0.925     0.114     1.660     2.015
   588   1 H      0.924     0.105     1.740     2.063
   589   7 N      3.485    -0.150    24.226     7.310
   590   1 H      0.860     0.292     0.738     1.346
   591   1 H      0.860     0.283     0.767     1.372
   592   1 H      0.860     0.308     0.691     1.302
   593   6 C      2.755     0.271    22.420     7.754
   594   8 O      0.859    -0.479    23.328     6.476
   595   7 N      2.687    -0.149    24.232     7.311
   596   1 H      0.860     0.213     1.042     1.599
   597   6 C      3.792     0.008    20.444     6.439
   598   1 H      0.925     0.094     1.838     2.120
   599   6 C      3.672     0.065    19.721     6.365
   600   1 H      0.925     0.057     2.239     2.340
   601   1 H      0.924     0.053     2.288     2.365
   602   8 O      1.656    -0.487    22.612     6.419
   603   1 H      0.805     0.348     0.593     1.210
   604   6 C      2.768     0.243    22.933     7.843
   605   8 O      0.858    -0.485    23.459     6.494
   606   7 N      2.745    -0.089    22.971     7.118
   607   6 C      3.810    -0.009    20.731     6.481
   608   1 H      0.925     0.059     2.213     2.327
   609   1 H      0.924     0.056     2.243     2.342
   610   6 C      3.808    -0.082    22.065     6.687
   611   1 H      0.925     0.073     2.048     2.238
   612   1 H      0.924     0.070     2.086     2.258
   613   6 C      3.830    -0.076    21.928     6.663
   614   1 H      0.925     0.073     2.049     2.238
   615   1 H      0.925     0.079     1.988     2.205
   616   6 C      3.821     0.015    20.310     6.413
   617   1 H      0.924     0.086     1.916     2.165
   618   6 C      2.730     0.262    22.585     7.780
   619   8 O      0.860    -0.448    22.654     6.381
   620   7 N      2.686    -0.161    24.486     7.349
   621   1 H      0.860     0.186     1.182     1.703
   622   6 C      3.780     0.009    20.452     6.443
   623   1 H      0.924     0.091     1.874     2.141
   624   6 C      3.689     0.073    19.546     6.328
   625   1 H      0.925     0.063     2.163     2.300
   626   1 H      0.924     0.042     2.424     2.435
   627   8 O      1.656    -0.476    22.376     6.386
   628   1 H      0.805     0.342     0.606     1.223
   629   6 C      2.757     0.258    22.658     7.795
   630   8 O      0.858    -0.463    22.984     6.428
   631   7 N      2.692    -0.188    25.083     7.438
   632   1 H      0.860     0.218     1.018     1.581
   633   6 C      3.796     0.011    20.398     6.431
   634   1 H      0.925     0.101     1.779     2.086
   635   6 C      3.804    -0.093    22.273     6.719
   636   1 H      0.925     0.069     2.092     2.262
   637   1 H      0.925     0.083     1.952     2.185
   638   6 C      3.841    -0.025    20.995     6.518
   639   1 H      0.924     0.051     2.302     2.373
   640   6 C      3.752    -0.129    23.042     6.845
   641   1 H      0.925     0.065     2.141     2.288
   642   1 H      0.924     0.048     2.347     2.396
   643   1 H      0.925     0.035     2.522     2.483
   644   6 C      3.755    -0.134    23.141     6.859
   645   1 H      0.925     0.046     2.371     2.408
   646   1 H      0.925     0.063     2.166     2.302
   647   1 H      0.924     0.046     2.371     2.408
   648   6 C      2.750     0.265    22.523     7.771
   649   8 O      0.869    -0.457    22.847     6.409
   650   7 N      2.695    -0.185    25.018     7.429
   651   1 H      0.860     0.197     1.121     1.659
   652   6 C      3.796     0.019    20.266     6.410
   653   1 H      0.925     0.115     1.652     2.010
   654   6 C      3.832    -0.118    22.726     6.783
   655   1 H      0.924     0.108     1.712     2.046
   656   1 H      0.925     0.088     1.898     2.154
   657   6 C      2.755     0.291    22.070     7.693
   658   8 O      0.865    -0.505    23.891     6.553
   659   7 N      2.655    -0.284    27.338     7.765
   660   1 H      0.860     0.235     0.946     1.523
   661   1 H      0.860     0.226     0.984     1.554
   662   6 C      2.755     0.259    22.636     7.791
   663   8 O      0.858    -0.470    23.138     6.449
   664   7 N      2.684    -0.170    24.683     7.379
   665   1 H      0.860     0.205     1.079     1.627
   666   6 C      3.793     0.016    20.320     6.419
   667   1 H      0.925     0.094     1.843     2.123
   668   6 C      3.747    -0.141    23.293     6.884
   669   1 H      0.925     0.079     1.985     2.203
   670   1 H      0.924     0.058     2.223     2.332
   671   1 H      0.924     0.079     1.995     2.209
   672   6 C      2.752     0.264    22.553     7.776
   673   8 O      0.860    -0.513    24.079     6.579
   674   7 N      2.686    -0.167    24.607     7.367
   675   1 H      0.860     0.219     1.016     1.579
   676   6 C      3.788     0.024    20.178     6.398
   677   1 H      0.924     0.070     2.083     2.257
   678   6 C      3.753    -0.141    23.284     6.881
   679   1 H      0.925     0.081     1.967     2.193
   680   1 H      0.924     0.070     2.082     2.256
   681   1 H      0.925     0.079     1.987     2.204
   682   6 C      2.752     0.267    22.497     7.767
   683   8 O      0.859    -0.507    23.931     6.559
   684   7 N      2.696    -0.159    24.441     7.343
   685   1 H      0.860     0.246     0.900     1.486
   686   6 C      3.817     0.021    20.217     6.399
   687   1 H      0.925     0.092     1.857     2.131
   688   6 C      3.818    -0.085    22.098     6.690
   689   1 H      0.925     0.063     2.167     2.302
   690   1 H      0.925     0.082     1.957     2.187
   691   6 C      3.817    -0.088    22.159     6.700
   692   1 H      0.925     0.089     1.893     2.151
   693   1 H      0.924     0.055     2.263     2.352
   694   6 C      3.800    -0.104    22.495     6.753
   695   1 H      0.925     0.079     1.991     2.207
   696   1 H      0.925     0.094     1.844     2.124
   697   6 C      3.733    -0.052    21.609     6.635
   698   1 H      0.925     0.126     1.565     1.956
   699   1 H      0.925     0.098     1.807     2.102
   700   7 N      3.490    -0.148    24.200     7.306
   701   1 H      0.860     0.294     0.730     1.338
   702   1 H      0.860     0.300     0.713     1.322
   703   1 H      0.860     0.300     0.712     1.322
   704   6 C      2.756     0.265    22.535     7.774
   705   8 O      0.858    -0.530    24.459     6.631
   706   7 N      2.678    -0.189    25.090     7.439
   707   1 H      0.860     0.233     0.951     1.528
   708   6 C      3.785     0.026    20.156     6.395
   709   1 H      0.924     0.082     1.957     2.188
   710   6 C      3.670     0.043    20.089     6.425
   711   1 H      0.925     0.087     1.907     2.159
   712   1 H      0.924     0.075     2.034     2.230
   713   8 O      1.645    -0.483    22.535     6.408
   714   1 H      0.805     0.334     0.627     1.243
   715   6 C      2.751     0.271    22.413     7.752
   716   8 O      0.857    -0.508    23.959     6.563
   717   7 N      2.680    -0.168    24.644     7.373
   718   1 H      0.860     0.245     0.904     1.489
   719   6 C      3.785     0.035    19.995     6.369
   720   1 H      0.925     0.053     2.282     2.362
   721   6 C      3.831    -0.047    21.387     6.580
   722   1 H      0.925     0.040     2.444     2.445
   723   1 H      0.924     0.062     2.172     2.305
   724   6 C      3.797    -0.090    22.221     6.712
   725   1 H      0.925     0.025     2.652     2.547
   726   1 H      0.924     0.036     2.506     2.475
   727   6 C      2.685     0.362    20.864     7.475
   728   8 O      0.857    -0.640    27.130     6.983
   729   8 O      0.856    -0.670    27.914     7.084
   730   6 C      2.782     0.278    22.300     7.735
   731   8 O      0.861    -0.520    24.229     6.600
   732   7 N      2.684    -0.205    25.461     7.494
   733   1 H      0.860     0.221     1.003     1.569
   734   6 C      3.764     0.021    20.255     6.415
   735   1 H      0.925     0.074     2.042     2.235
   736   6 C      3.804    -0.078    21.986     6.675
   737   1 H      0.925     0.053     2.286     2.364
   738   1 H      0.925     0.077     2.013     2.219
   739   6 C      3.847    -0.010    20.718     6.474
   740   1 H      0.925     0.026     2.643     2.542
   741   6 C      3.751    -0.119    22.840     6.816
   742   1 H      0.925     0.033     2.543     2.494
   743   1 H      0.925     0.059     2.213     2.327
   744   1 H      0.924     0.023     2.687     2.563
   745   6 C      3.756    -0.122    22.893     6.822
   746   1 H      0.924     0.044     2.391     2.418
   747   1 H      0.925     0.065     2.145     2.290
   748   1 H      0.925     0.060     2.200     2.320
   749   6 C      2.725     0.267    22.492     7.764
   750   8 O      0.858    -0.516    24.136     6.587
   751   7 N      2.675    -0.185    25.017     7.428
   752   1 H      0.860     0.236     0.938     1.517
   753   6 C      3.785     0.045    19.827     6.343
   754   1 H      0.924     0.070     2.089     2.260
   755   6 C      3.801    -0.097    22.343     6.730
   756   1 H      0.925     0.023     2.690     2.565
   757   1 H      0.924     0.050     2.315     2.379
   758   6 C      2.683     0.386    20.476     7.405
   759   8 O      0.858    -0.608    26.315     6.878
   760   8 O      0.857    -0.617    26.552     6.909
   761   6 C      2.756     0.278    22.290     7.731
   762   8 O      0.860    -0.538    24.632     6.654
   763   7 N      2.696    -0.162    24.508     7.353
   764   1 H      0.860     0.220     1.012     1.575
   765   6 C      3.802     0.029    20.089     6.381
   766   1 H      0.925     0.083     1.947     2.182
   767   6 C      3.806    -0.065    21.746     6.638
   768   1 H      0.925     0.062     2.174     2.306
   769   1 H      0.924     0.048     2.342     2.393
   770   6 C      3.804    -0.075    21.939     6.668
   771   1 H      0.925     0.054     2.266     2.354
   772   1 H      0.925     0.068     2.107     2.270
   773   6 C      3.801    -0.087    22.163     6.703
   774   1 H      0.925     0.075     2.032     2.229
   775   1 H      0.924     0.054     2.276     2.359
   776   6 C      3.730    -0.049    21.554     6.627
   777   1 H      0.924     0.106     1.728     2.055
   778   1 H      0.924     0.129     1.542     1.942
   779   7 N      3.487    -0.142    24.053     7.284
   780   1 H      0.860     0.316     0.667     1.279
   781   1 H      0.860     0.303     0.704     1.314
   782   1 H      0.860     0.294     0.733     1.341
   783   6 C      2.762     0.272    22.409     7.752
   784   8 O      0.862    -0.547    24.841     6.682
   785   7 N      2.690    -0.159    24.444     7.343
   786   1 H      0.860     0.208     1.067     1.618
   787   6 C      3.784     0.017    20.305     6.419
   788   1 H      0.925     0.082     1.956     2.187
   789   6 C      3.739    -0.133    23.149     6.865
   790   1 H      0.925     0.071     2.074     2.252
   791   1 H      0.924     0.083     1.949     2.183
   792   1 H      0.924     0.078     2.000     2.212
   793   6 C      2.748     0.271    22.426     7.754
   794   8 O      0.858    -0.510    23.997     6.568
   795   7 N      2.686    -0.196    25.257     7.464
   796   1 H      0.860     0.223     0.997     1.564
   797   6 C      3.790     0.010    20.420     6.436
   798   1 H      0.925     0.084     1.943     2.180
   799   6 C      3.850    -0.015    20.803     6.487
   800   1 H      0.925     0.064     2.151     2.293
   801   6 C      3.757    -0.098    22.426     6.752
   802   1 H      0.925     0.055     2.259     2.350
   803   1 H      0.925     0.037     2.490     2.468
   804   1 H      0.924     0.018     2.769     2.602
   805   6 C      3.798    -0.065    21.750     6.640
   806   1 H      0.924     0.039     2.469     2.457
   807   1 H      0.925     0.052     2.293     2.368
   808   6 C      3.747    -0.111    22.683     6.793
   809   1 H      0.924     0.025     2.665     2.553
   810   1 H      0.925     0.045     2.388     2.417
   811   1 H      0.925     0.051     2.308     2.376
   812   6 C      2.749     0.292    22.043     7.688
   813   8 O      0.870    -0.472    23.172     6.454
   814   7 N      2.692    -0.180    24.900     7.411
   815   1 H      0.860     0.204     1.088     1.634
   816   6 C      3.743    -0.032    21.227     6.573
   817   1 H      0.925     0.096     1.825     2.112
   818   1 H      0.925     0.082     1.963     2.191
   819   6 C      2.742     0.284    22.195     7.714
   820   8 O      0.865    -0.468    23.087     6.442
   821   7 N      2.690    -0.170    24.683     7.379
   822   1 H      0.860     0.191     1.155     1.684
   823   6 C      3.790     0.026    20.146     6.392
   824   1 H      0.924     0.078     1.995     2.209
   825   6 C      3.808    -0.079    22.001     6.677
   826   1 H      0.924     0.081     1.973     2.197
   827   1 H      0.924     0.069     2.099     2.266
   828   6 C      3.798    -0.065    21.744     6.640
   829   1 H      0.924     0.031     2.570     2.507
   830   1 H      0.925     0.052     2.298     2.371
   831   6 C      3.739    -0.027    21.130     6.559
   832   1 H      0.925     0.086     1.923     2.168
   833   1 H      0.925     0.091     1.871     2.139
   834   7 N      2.752    -0.176    24.796     7.396
   835   1 H      0.860     0.236     0.938     1.517
   836   6 C      2.741     0.259    22.645     7.792
   837   7 N      2.709    -0.252    26.555     7.653
   838   1 H      0.860     0.253     0.872     1.463
   839   1 H      0.860     0.235     0.945     1.523
   840   7 N      2.739    -0.286    27.363     7.769
   841   1 H      0.860     0.229     0.970     1.543
   842   1 H      0.860     0.248     0.891     1.479
   843   6 C      2.756     0.262    22.588     7.783
   844   8 O      0.856    -0.508    23.953     6.562
   845   7 N      2.679    -0.196    25.248     7.463
   846   1 H      0.860     0.228     0.974     1.546
   847   6 C      3.795     0.049    19.766     6.331
   848   1 H      0.925     0.060     2.204     2.321
   849   6 C      3.812    -0.106    22.521     6.755
   850   1 H      0.925     0.101     1.778     2.085
   851   1 H      0.924     0.081     1.974     2.197
   852   6 C      2.746     0.283    22.198     7.715
   853   8 O      0.858    -0.510    24.014     6.570
   854   7 N      2.638    -0.284    27.330     7.764
   855   1 H      0.860     0.259     0.848     1.442
   856   1 H      0.860     0.238     0.930     1.511
   857   6 C      2.754     0.270    22.447     7.758
   858   8 O      0.858    -0.523    24.296     6.609
   859   7 N      2.688    -0.161    24.479     7.348
   860   1 H      0.860     0.219     1.014     1.577
   861   6 C      3.816     0.029    20.072     6.376
   862   1 H      0.924     0.102     1.770     2.081
   863   6 C      3.797    -0.012    20.792     6.493
   864   1 H      0.925     0.041     2.441     2.443
   865   1 H      0.925     0.088     1.897     2.154
   866  16 S      1.916    -0.284   153.309    20.840
   867   1 H      0.923     0.165     1.293     1.778
   868   6 C      2.746     0.267    22.496     7.766
   869   8 O      0.857    -0.469    23.115     6.446
   870   7 N      2.680    -0.179    24.886     7.409
   871   1 H      0.860     0.200     1.105     1.647
   872   6 C      3.776     0.021    20.246     6.411
   873   1 H      0.924     0.078     2.001     2.212
   874   6 C      3.811    -0.100    22.396     6.736
   875   1 H      0.925     0.074     2.047     2.237
   876   1 H      0.924     0.074     2.038     2.233
   877   6 C      2.745     0.295    21.992     7.679
   878   8 O      0.865    -0.461    22.932     6.421
   879   7 N      2.645    -0.297    27.648     7.809
   880   1 H      0.860     0.256     0.862     1.454
   881   1 H      0.860     0.224     0.992     1.560
   882   6 C      2.742     0.280    22.265     7.726
   883   8 O      0.862    -0.422    22.124     6.306
   884   7 N      2.686    -0.164    24.558     7.360
   885   1 H      0.860     0.185     1.183     1.704
   886   6 C      3.743    -0.037    21.316     6.586
   887   1 H      0.925     0.118     1.630     1.997
   888   1 H      0.924     0.089     1.886     2.148
   889   6 C      2.741     0.266    22.513     7.769
   890   8 O      0.857    -0.453    22.773     6.398
   891   7 N      2.689    -0.160    24.463     7.346
   892   1 H      0.860     0.178     1.228     1.736
   893   6 C      3.794     0.015    20.335     6.421
   894   1 H      0.924     0.091     1.866     2.136
   895   6 C      3.848    -0.011    20.741     6.478
   896   1 H      0.924     0.037     2.485     2.465
   897   6 C      3.749    -0.128    23.013     6.842
   898   1 H      0.925     0.034     2.529     2.487
   899   1 H      0.925     0.071     2.080     2.255
   900   1 H      0.925     0.052     2.295     2.369
   901   6 C      3.749    -0.124    22.943     6.832
   902   1 H      0.925     0.062     2.174     2.306
   903   1 H      0.924     0.062     2.177     2.307
   904   1 H      0.925     0.046     2.373     2.409
   905   6 C      2.752     0.276    22.340     7.740
   906   8 O      0.860    -0.503    23.842     6.547
   907   7 N      2.685    -0.181    24.921     7.414
   908   1 H      0.860     0.217     1.021     1.583
   909   6 C      3.794     0.013    20.358     6.425
   910   1 H      0.925     0.075     2.032     2.229
   911   6 C      3.842    -0.020    20.894     6.502
   912   1 H      0.924     0.034     2.530     2.487
   913   6 C      3.760    -0.113    22.703     6.793
   914   1 H      0.924     0.042     2.418     2.432
   915   1 H      0.925     0.049     2.326     2.385
   916   1 H      0.925     0.033     2.540     2.492
   917   6 C      3.793    -0.073    21.909     6.666
   918   1 H      0.924     0.053     2.278     2.360
   919   1 H      0.925     0.068     2.110     2.272
   920   6 C      3.749    -0.117    22.797     6.810
   921   1 H      0.925     0.050     2.321     2.382
   922   1 H      0.925     0.050     2.316     2.380
   923   1 H      0.924     0.021     2.722     2.580
   924   6 C      2.754     0.257    22.671     7.797
   925   8 O      0.858    -0.478    23.309     6.473
   926   7 N      2.690    -0.170    24.683     7.379
   927   1 H      0.860     0.209     1.060     1.613
   928   6 C      3.800    -0.011    20.768     6.488
   929   1 H      0.925     0.105     1.736     2.060
   930   6 C      3.722     0.108    18.909     6.210
   931   1 H      0.925     0.053     2.288     2.365
   932   6 C      3.745    -0.149    23.462     6.909
   933   1 H      0.924     0.048     2.349     2.397
   934   1 H      0.925     0.069     2.096     2.264
   935   1 H      0.925     0.072     2.066     2.248
   936   8 O      1.660    -0.481    22.475     6.400
   937   1 H      0.807     0.335     0.624     1.241
   938   6 C      2.756     0.259    22.630     7.790
   939   8 O      0.859    -0.506    23.923     6.558
   940   7 N      2.693    -0.170    24.669     7.377
   941   1 H      0.860     0.226     0.984     1.554
   942   6 C      3.790     0.005    20.511     6.450
   943   1 H      0.925     0.105     1.744     2.065
   944   6 C      3.809    -0.097    22.338     6.728
   945   1 H      0.925     0.105     1.740     2.063
   946   1 H      0.925     0.084     1.942     2.179
   947   6 C      3.800    -0.082    22.065     6.688
   948   1 H      0.924     0.055     2.263     2.353
   949   1 H      0.925     0.061     2.184     2.311
   950   6 C      3.801    -0.101    22.426     6.742
   951   1 H      0.925     0.086     1.913     2.163
   952   1 H      0.925     0.075     2.030     2.228
   953   6 C      3.731    -0.064    21.822     6.668
   954   1 H      0.924     0.120     1.613     1.986
   955   1 H      0.925     0.116     1.645     2.006
   956   7 N      3.489    -0.144    24.106     7.292
   957   1 H      0.860     0.314     0.673     1.285
   958   1 H      0.860     0.301     0.712     1.321
   959   1 H      0.860     0.299     0.717     1.326
   960   6 C      2.747     0.263    22.555     7.776
   961   8 O      0.857    -0.472    23.176     6.455
   962   7 N      2.684    -0.196    25.256     7.464
   963   1 H      0.860     0.208     1.064     1.616
   964   6 C      3.776     0.030    20.090     6.386
   965   1 H      0.924     0.079     1.991     2.206
   966   6 C      3.795    -0.098    22.371     6.735
   967   1 H      0.925     0.064     2.154     2.295
   968   1 H      0.924     0.063     2.162     2.299
   969   6 C      2.692     0.350    21.054     7.510
   970   8 O      0.857    -0.660    27.647     7.050
   971   8 O      0.856    -0.623    26.682     6.926
   972   6 C      2.743     0.268    22.468     7.761
   973   8 O      0.858    -0.495    23.668     6.523
   974   7 N      2.683    -0.179    24.881     7.408
   975   1 H      0.860     0.214     1.038     1.596
   976   6 C      3.777     0.019    20.282     6.416
   977   1 H      0.924     0.073     2.049     2.238
   978   6 C      3.799    -0.060    21.647     6.624
   979   1 H      0.925     0.042     2.418     2.432
   980   1 H      0.925     0.073     2.057     2.243
   981   6 C      3.801    -0.100    22.404     6.739
   982   1 H      0.924     0.061     2.187     2.313
   983   1 H      0.924     0.035     2.513     2.479
   984   6 C      2.684     0.354    20.997     7.499
   985   8 O      0.856    -0.596    26.019     6.839
   986   8 O      0.856    -0.569    25.367     6.753
   987   6 C      2.746     0.268    22.472     7.762
   988   8 O      0.860    -0.499    23.759     6.535
   989   7 N      2.708    -0.178    24.848     7.403
   990   1 H      0.860     0.235     0.942     1.521
   991   6 C      3.777     0.022    20.229     6.408
   992   1 H      0.925     0.076     2.023     2.224
   993   6 C      3.764    -0.136    23.165     6.860
   994   1 H      0.925     0.093     1.853     2.129
   995   1 H      0.925     0.064     2.148     2.292
   996   1 H      0.925     0.085     1.927     2.171
   997   6 C      2.753     0.259    22.629     7.790
   998   8 O      0.860    -0.512    24.058     6.576
   999   7 N      2.694    -0.157    24.395     7.336
  1000   1 H      0.860     0.209     1.062     1.614
  1001   6 C      3.800     0.042    19.866     6.346
  1002   1 H      0.925     0.073     2.048     2.238
  1003   6 C      3.805    -0.062    21.690     6.630
  1004   1 H      0.925     0.044     2.401     2.423
  1005   1 H      0.925     0.076     2.023     2.224
  1006   6 C      3.802    -0.093    22.275     6.720
  1007   1 H      0.925     0.022     2.701     2.570
  1008   1 H      0.924     0.044     2.400     2.423
  1009   6 C      2.687     0.356    20.950     7.491
  1010   8 O      0.856    -0.639    27.106     6.980
  1011   8 O      0.857    -0.601    26.138     6.855
  1012   6 C      2.746     0.269    22.457     7.759
  1013   8 O      0.858    -0.510    24.000     6.568
  1014   7 N      2.686    -0.202    25.381     7.482
  1015   1 H      0.860     0.222     0.999     1.566
  1016   6 C      3.787     0.025    20.160     6.395
  1017   1 H      0.925     0.083     1.946     2.182
  1018   6 C      3.793    -0.082    22.075     6.691
  1019   1 H      0.925     0.075     2.034     2.230
  1020   1 H      0.924     0.072     2.064     2.247
  1021   6 C      3.785    -0.082    22.075     6.692
  1022   1 H      0.925     0.048     2.346     2.395
  1023   1 H      0.925     0.060     2.204     2.322
  1024   6 C      3.792    -0.087    22.165     6.705
  1025   1 H      0.924     0.076     2.024     2.225
  1026   1 H      0.925     0.059     2.213     2.326
  1027   6 C      3.730    -0.049    21.559     6.628
  1028   1 H      0.924     0.122     1.599     1.978
  1029   1 H      0.925     0.111     1.685     2.030
  1030   7 N      3.490    -0.126    23.732     7.235
  1031   1 H      0.860     0.293     0.736     1.344
  1032   1 H      0.860     0.290     0.743     1.351
  1033   1 H      0.860     0.281     0.773     1.377
  1034   6 C      2.752     0.287    22.143     7.705
  1035   8 O      0.863    -0.482    23.391     6.484
  1036   7 N      2.690    -0.201    25.357     7.479
  1037   1 H      0.860     0.210     1.059     1.612
  1038   6 C      3.786     0.022    20.220     6.405
  1039   1 H      0.924     0.071     2.070     2.250
  1040   6 C      3.819    -0.071    21.851     6.653
  1041   1 H      0.924     0.057     2.235     2.338
  1042   1 H      0.925     0.056     2.247     2.344
  1043   6 C      3.845    -0.013    20.770     6.483
  1044   1 H      0.924     0.048     2.345     2.395
  1045   6 C      3.755    -0.123    22.915     6.826
  1046   1 H      0.924     0.065     2.144     2.290
  1047   1 H      0.925     0.053     2.286     2.364
  1048   1 H      0.924     0.039     2.466     2.456
  1049   6 C      3.753    -0.130    23.065     6.848
  1050   1 H      0.925     0.040     2.449     2.447
  1051   1 H      0.925     0.046     2.368     2.406
  1052   1 H      0.924     0.029     2.597     2.520
  1053   6 C      2.757     0.284    22.187     7.714
  1054   8 O      0.859    -0.505    23.888     6.553
  1055   7 N      2.693    -0.200    25.337     7.476
  1056   1 H      0.860     0.221     1.006     1.571
  1057   6 C      3.794     0.047    19.796     6.336
  1058   1 H      0.925     0.062     2.172     2.305
  1059   6 C      3.812    -0.075    21.930     6.666
  1060   1 H      0.925     0.063     2.160     2.298
  1061   1 H      0.925     0.070     2.084     2.257
  1062   6 C      2.958     0.006    27.877     8.660
  1063   6 C      2.907    -0.036    28.895     8.814
  1064   1 H      0.926     0.016     2.797     2.615
  1065   6 C      2.910    -0.030    28.754     8.793
  1066   1 H      0.926     0.048     2.346     2.395
  1067   6 C      2.914    -0.040    28.995     8.830
  1068   1 H      0.926     0.050     2.314     2.379
  1069   6 C      2.906    -0.042    29.033     8.835
  1070   1 H      0.926     0.058     2.226     2.333
  1071   6 C      2.900    -0.043    29.077     8.841
  1072   1 H      0.926     0.049     2.331     2.387
  1073   6 C      2.747     0.283    22.209     7.717
  1074   8 O      0.861    -0.501    23.808     6.542
  1075   7 N      2.694    -0.194    25.199     7.456
  1076   1 H      0.860     0.220     1.008     1.572
  1077   6 C      3.806     0.031    20.050     6.374
  1078   1 H      0.924     0.095     1.834     2.118
  1079   6 C      3.815    -0.113    22.637     6.772
  1080   1 H      0.925     0.079     1.993     2.207
  1081   1 H      0.925     0.087     1.905     2.159
  1082   6 C      2.739     0.280    22.263     7.725
  1083   8 O      0.860    -0.478    23.307     6.473
  1084   7 N      2.637    -0.277    27.150     7.739
  1085   1 H      0.860     0.257     0.857     1.450
  1086   1 H      0.860     0.236     0.941     1.520
  1087   6 C      2.752     0.273    22.382     7.747
  1088   8 O      0.857    -0.478    23.299     6.472
  1089   7 N      2.692    -0.182    24.949     7.418
  1090   1 H      0.860     0.209     1.061     1.613
  1091   6 C      3.776     0.020    20.272     6.415
  1092   1 H      0.925     0.080     1.982     2.202
  1093   6 C      3.793    -0.064    21.744     6.640
  1094   1 H      0.924     0.066     2.132     2.283
  1095   1 H      0.924     0.052     2.295     2.369
  1096   6 C      3.793    -0.108    22.566     6.765
  1097   1 H      0.925     0.078     2.002     2.213
  1098   1 H      0.925     0.061     2.188     2.313
  1099   6 C      2.739     0.301    21.881     7.659
  1100   8 O      0.889    -0.534    24.536     6.642
  1101   7 N      2.667    -0.257    26.675     7.671
  1102   1 H      0.860     0.230     0.966     1.540
  1103   1 H      0.860     0.224     0.990     1.559
  1104   6 C      2.747     0.260    22.610     7.786
  1105   8 O      0.857    -0.505    23.889     6.553
  1106   7 N      2.680    -0.172    24.726     7.385
  1107   1 H      0.860     0.213     1.042     1.599
  1108   6 C      3.782     0.026    20.150     6.394
  1109   1 H      0.925     0.076     2.023     2.224
  1110   6 C      3.797    -0.086    22.145     6.701
  1111   1 H      0.925     0.049     2.335     2.389
  1112   1 H      0.925     0.034     2.533     2.489
  1113   6 C      2.686     0.362    20.864     7.475
  1114   8 O      0.857    -0.601    26.135     6.854
  1115   8 O      0.857    -0.635    26.992     6.966
  1116   6 C      2.740     0.275    22.348     7.740
  1117   8 O      0.861    -0.465    23.032     6.435
  1118   7 N      2.684    -0.190    25.129     7.445
  1119   1 H      0.860     0.205     1.079     1.627
  1120   6 C      3.788     0.016    20.326     6.421
  1121   1 H      0.925     0.090     1.883     2.146
  1122   6 C      3.843    -0.029    21.052     6.527
  1123   1 H      0.924     0.039     2.458     2.452
  1124   6 C      3.747    -0.127    23.003     6.841
  1125   1 H      0.925     0.076     2.026     2.226
  1126   1 H      0.925     0.070     2.089     2.260
  1127   1 H      0.925     0.041     2.441     2.443
  1128   6 C      3.751    -0.125    22.959     6.833
  1129   1 H      0.925     0.030     2.593     2.518
  1130   1 H      0.925     0.061     2.192     2.315
  1131   1 H      0.925     0.073     2.058     2.243
  1132   6 C      2.741     0.269    22.463     7.760
  1133   8 O      0.859    -0.466    23.046     6.436
  1134   7 N      2.685    -0.192    25.157     7.449
  1135   1 H      0.860     0.191     1.156     1.684
  1136   6 C      3.790     0.047    19.790     6.336
  1137   1 H      0.924     0.069     2.092     2.262
  1138   6 C      3.800    -0.093    22.280     6.721
  1139   1 H      0.925     0.036     2.498     2.472
  1140   1 H      0.925     0.032     2.553     2.499
  1141   6 C      2.686     0.365    20.803     7.464
  1142   8 O      0.856    -0.640    27.125     6.983
  1143   8 O      0.856    -0.576    25.529     6.774
  1144   6 C      2.751     0.273    22.383     7.747
  1145   8 O      0.857    -0.464    23.005     6.431
  1146   7 N      2.684    -0.176    24.812     7.398
  1147   1 H      0.860     0.188     1.171     1.695
  1148   6 C      3.790     0.024    20.175     6.397
  1149   1 H      0.925     0.097     1.812     2.105
  1150   6 C      3.756    -0.132    23.091     6.852
  1151   1 H      0.924     0.090     1.880     2.144
  1152   1 H      0.924     0.044     2.395     2.420
  1153   1 H      0.925     0.078     1.997     2.210
  1154   6 C      2.753     0.268    22.481     7.764
  1155   8 O      0.866    -0.474    23.215     6.460
  1156   7 N      2.685    -0.202    25.394     7.484
  1157   1 H      0.860     0.193     1.143     1.675
  1158   6 C      3.797     0.026    20.140     6.390
  1159   1 H      0.925     0.074     2.044     2.236
  1160   6 C      3.757    -0.119    22.836     6.813
  1161   1 H      0.925     0.050     2.323     2.384
  1162   1 H      0.924     0.079     1.991     2.207
  1163   1 H      0.924     0.060     2.204     2.322
  1164   6 C      2.755     0.289    22.106     7.699
  1165   8 O      0.865    -0.472    23.176     6.455
  1166   7 N      2.687    -0.180    24.904     7.412
  1167   1 H      0.860     0.203     1.092     1.637
  1168   6 C      3.788     0.017    20.302     6.417
  1169   1 H      0.925     0.100     1.784     2.088
  1170   6 C      3.842    -0.022    20.937     6.509
  1171   1 H      0.925     0.028     2.614     2.528
  1172   6 C      3.752    -0.121    22.883     6.822
  1173   1 H      0.924     0.065     2.143     2.289
  1174   1 H      0.925     0.072     2.064     2.246
  1175   1 H      0.925     0.033     2.538     2.491
  1176   6 C      3.756    -0.132    23.089     6.851
  1177   1 H      0.925     0.048     2.348     2.396
  1178   1 H      0.924     0.073     2.054     2.241
  1179   1 H      0.925     0.053     2.286     2.365
  1180   6 C      2.751     0.262    22.574     7.780
  1181   8 O      0.861    -0.471    23.152     6.451
  1182   7 N      2.682    -0.197    25.276     7.467
  1183   1 H      0.860     0.199     1.109     1.649
  1184   6 C      3.790     0.012    20.377     6.429
  1185   1 H      0.925     0.106     1.730     2.057
  1186   6 C      3.804    -0.091    22.225     6.712
  1187   1 H      0.924     0.082     1.955     2.187
  1188   1 H      0.925     0.059     2.214     2.327
  1189   6 C      3.808    -0.096    22.334     6.727
  1190   1 H      0.924     0.056     2.252     2.347
  1191   1 H      0.925     0.085     1.933     2.174
  1192   6 C      3.745    -0.032    21.214     6.570
  1193   1 H      0.925     0.108     1.710     2.045
  1194   1 H      0.924     0.099     1.796     2.096
  1195   7 N      2.744    -0.133    23.886     7.259
  1196   1 H      0.860     0.231     0.960     1.535
  1197   6 C      2.741     0.237    23.033     7.858
  1198   7 N      2.675    -0.281    27.247     7.753
  1199   1 H      0.860     0.234     0.949     1.526
  1200   1 H      0.860     0.252     0.876     1.466
  1201   7 N      2.721    -0.261    26.772     7.685
  1202   1 H      0.860     0.238     0.931     1.511
  1203   1 H      0.861     0.242     0.915     1.499
  1204   6 C      2.752     0.276    22.325     7.737
  1205   8 O      0.861    -0.452    22.745     6.394
  1206   7 N      2.687    -0.192    25.168     7.451
  1207   1 H      0.860     0.200     1.107     1.648
  1208   6 C      3.731    -0.035    21.287     6.586
  1209   1 H      0.925     0.067     2.124     2.279
  1210   1 H      0.925     0.090     1.875     2.141
  1211   6 C      2.742     0.288    22.115     7.700
  1212   8 O      0.860    -0.456    22.834     6.407
  1213   7 N      2.689    -0.187    25.054     7.434
  1214   1 H      0.860     0.191     1.150     1.680
  1215   6 C      3.782     0.016    20.320     6.421
[...]
  2283  H   0.986        C 2281 0.942
  2284  C   3.954        O 2285 1.585    N 2286 1.366    C 2281 0.977
  2285  O   1.889        C 2284 1.585    N 2286 0.198
  2286  N   3.436        C 2284 1.366    H 2288 0.919    H 2287 0.915    O 2285 0.198
  2287  H   0.940        N 2286 0.915
  2288  H   0.943        N 2286 0.919
  2289  C   3.956        O 2290 1.610    N 2291 1.326    C 2279 0.945
  2290  O   1.939        C 2289 1.610    N 2291 0.197
  2291  N   3.482        C 2289 1.326    C 2293 0.965    H 2292 0.920    O 2290 0.197
  2292  H   0.955        N 2291 0.920
  2293  C   3.961        C 2295 0.981    N 2291 0.965    C 2313 0.954    H 2294 0.939
  2294  H   0.989        C 2293 0.939
  2295  C   3.982        C 2298 1.006    C 2293 0.981    H 2296 0.968    H 2297 0.966
  2296  H   0.995        C 2295 0.968
  2297  H   0.994        C 2295 0.966
  2298  C   3.980        C 2295 1.006    C 2301 0.996    H 2299 0.973    H 2300 0.972
  2299  H   0.994        C 2298 0.973
  2300  H   0.994        C 2298 0.972
  2301  C   3.950        C 2298 0.996    N 2304 0.975    H 2303 0.967    H 2302 0.967
  2302  H   0.993        C 2301 0.967
  2303  H   0.995        C 2301 0.967
  2304  N   3.442        C 2306 1.312    C 2301 0.975    H 2305 0.881    N 2310 0.105
  2305  H   0.936        N 2304 0.881
  2306  C   3.979        N 2310 1.331    N 2304 1.312    N 2307 1.309
  2307  N   3.388        C 2306 1.309    H 2309 0.918    H 2308 0.917    N 2310 0.105
  2308  H   0.943        N 2307 0.917
  2309  H   0.945        N 2307 0.918
  2310  N   3.408        C 2306 1.331    H 2311 0.919    H 2312 0.892    N 2304 0.105    N 2307 0.105
  2311  H   0.949        N 2310 0.919
  2312  H   0.934        N 2310 0.892
  2313  C   3.960        O 2314 1.609    N 2315 1.323    C 2293 0.954
  2314  O   1.944        C 2313 1.609    N 2315 0.201
  2315  N   3.477        C 2313 1.323    C 2317 0.961    H 2316 0.910    O 2314 0.201
  2316  H   0.952        N 2315 0.910
  2317  C   3.954        C 2319 0.996    N 2315 0.961    H 2318 0.949    C 2323 0.946
  2318  H   0.991        C 2317 0.949
  2319  C   3.984        C 2317 0.996    H 2322 0.980    H 2320 0.979    H 2321 0.978
  2320  H   0.995        C 2319 0.979
  2321  H   0.996        C 2319 0.978
  2322  H   0.995        C 2319 0.980
  2323  C   3.951        O 2324 1.612    N 2325 1.319    C 2317 0.946
  2324  O   1.945        C 2323 1.612    N 2325 0.201
  2325  N   3.465        C 2323 1.319    C 2327 0.952    H 2326 0.897    O 2324 0.201
  2326  H   0.950        N 2325 0.897
  2327  C   3.951        C 2329 0.978    C 2345 0.959    N 2325 0.952    H 2328 0.942
  2328  H   0.990        C 2327 0.942
  2329  C   3.971        C 2332 0.985    C 2327 0.978    H 2330 0.974    H 2331 0.962
  2330  H   0.995        C 2329 0.974
  2331  H   0.992        C 2329 0.962
  2332  C   3.986        C 2335 1.016    C 2329 0.985    H 2334 0.975    H 2333 0.969
  2333  H   0.994        C 2332 0.969
  2334  H   0.996        C 2332 0.975
  2335  C   3.986        C 2338 1.017    C 2332 1.016    H 2336 0.973    H 2337 0.953
  2336  H   0.994        C 2335 0.973
  2337  H   0.990        C 2335 0.953
  2338  C   3.907        C 2335 1.017    H 2339 0.966    H 2340 0.964    N 2341 0.932
  2339  H   0.986        C 2338 0.966
  2340  H   0.984        C 2338 0.964
  2341  N   3.657        C 2338 0.932    H 2344 0.901    H 2343 0.898    H 2342 0.896
  2342  H   0.907        N 2341 0.896
  2343  H   0.911        N 2341 0.898
  2344  H   0.915        N 2341 0.901
  2345  C   3.941        O 2346 1.575    N 2347 1.306    C 2327 0.959
  2346  O   1.948        C 2345 1.575    N 2347 0.188
  2347  N   3.471        C 2345 1.306    C 2349 0.974    H 2348 0.912    O 2346 0.188
  2348  H   0.951        N 2347 0.912
  2349  C   3.964        C 2351 0.985    N 2347 0.974    H 2350 0.948    C 2369 0.927
  2350  H   0.991        C 2349 0.948
  2351  C   3.983        C 2354 1.007    C 2349 0.985    H 2352 0.961    H 2353 0.959
  2352  H   0.993        C 2351 0.961
  2353  H   0.994        C 2351 0.959
  2354  C   3.983        C 2351 1.007    C 2357 1.000    H 2355 0.965    H 2356 0.961
  2355  H   0.992        C 2354 0.965
  2356  H   0.993        C 2354 0.961
  2357  C   3.933        C 2354 1.000    H 2359 0.969    H 2358 0.961    N 2360 0.955
  2358  H   0.992        C 2357 0.961
  2359  H   0.995        C 2357 0.969
  2360  N   3.465        C 2362 1.320    C 2357 0.955    H 2361 0.921    N 2366 0.103
  2361  H   0.951        N 2360 0.921
  2362  C   3.978        N 2360 1.320    N 2366 1.320    N 2363 1.312
  2363  N   3.383        C 2362 1.312    H 2364 0.919    H 2365 0.915
  2364  H   0.945        N 2363 0.919
  2365  H   0.941        N 2363 0.915
  2366  N   3.386        C 2362 1.320    H 2367 0.920    H 2368 0.868    N 2360 0.103
  2367  H   0.944        N 2366 0.920
  2368  H   0.942        N 2366 0.868
  2369  C   3.946        O 2370 1.587    N 2371 1.333    C 2349 0.927
  2370  O   1.984        C 2369 1.587    N 2371 0.195
  2371  N   3.493        C 2369 1.333    C 2373 0.977    H 2372 0.896    O 2370 0.195
  2372  H   0.945        N 2371 0.896
  2373  C   3.959        N 2371 0.977    C 2375 0.967    H 2374 0.946    C 2385 0.939
  2374  H   0.994        C 2373 0.946
  2375  C   3.982        C 2381 1.003    C 2377 1.000    C 2373 0.967    H 2376 0.965
  2376  H   0.994        C 2375 0.965
  2377  C   3.989        C 2375 1.000    H 2378 0.983    H 2380 0.982    H 2379 0.981
  2378  H   0.997        C 2377 0.983
  2379  H   0.996        C 2377 0.981
  2380  H   0.998        C 2377 0.982
  2381  C   3.988        C 2375 1.003    H 2383 0.983    H 2384 0.982    H 2382 0.979
  2382  H   0.997        C 2381 0.979
  2383  H   0.998        C 2381 0.983
  2384  H   0.996        C 2381 0.982
  2385  C   3.950        O 2386 1.618    N 2387 1.306    C 2373 0.939
  2386  O   1.982        C 2385 1.618    N 2387 0.199
  2387  N   3.462        C 2385 1.306    C 2389 0.960    H 2388 0.905    O 2386 0.199
  2388  H   0.951        N 2387 0.905
  2389  C   3.949        N 2387 0.960    C 2391 0.955    C 2404 0.945    H 2390 0.945
  2390  H   0.993        C 2389 0.945
  2391  C   3.976        C 2393 1.008    C 2397 0.985    H 2392 0.958    C 2389 0.955
  2392  H   0.995        C 2391 0.958
  2393  C   3.989        C 2391 1.008    H 2396 0.983    H 2395 0.981    H 2394 0.974
  2394  H   0.994        C 2393 0.974
  2395  H   0.998        C 2393 0.981
  2396  H   0.998        C 2393 0.983
  2397  C   3.993        C 2400 1.028    C 2391 0.985    H 2398 0.971    H 2399 0.971
  2398  H   0.997        C 2397 0.971
  2399  H   0.997        C 2397 0.971
  2400  C   3.993        C 2397 1.028    H 2403 0.980    H 2401 0.980    H 2402 0.978
  2401  H   0.998        C 2400 0.980
  2402  H   0.998        C 2400 0.978
  2403  H   0.998        C 2400 0.980
  2404  C   3.950        O 2405 1.577    N 2406 1.340    C 2389 0.945
  2405  O   1.932        C 2404 1.577    N 2406 0.192
  2406  N   3.492        C 2404 1.340    C 2408 0.972    H 2407 0.884    O 2405 0.192
  2407  H   0.951        N 2406 0.884
  2408  C   3.962        C 2410 0.974    N 2406 0.972    H 2409 0.939    C 2418 0.937
  2409  H   0.987        C 2408 0.939
  2410  C   3.969        C 2412 0.999    O 2416 0.993    C 2408 0.974    H 2411 0.960
  2411  H   0.999        C 2410 0.960
  2412  C   3.986        C 2410 0.999    H 2414 0.985    H 2413 0.983    H 2415 0.979
  2413  H   0.996        C 2412 0.983
  2414  H   0.999        C 2412 0.985
  2415  H   0.993        C 2412 0.979
  2416  O   1.929        C 2410 0.993    H 2417 0.840
  2417  H   0.885        O 2416 0.840
  2418  C   3.947        O 2419 1.629    N 2420 1.296    C 2408 0.937
  2419  O   1.976        C 2418 1.629    N 2420 0.197
  2420  N   3.451        C 2418 1.296    C 2422 0.954    H 2421 0.902    O 2419 0.197
  2421  H   0.958        N 2420 0.902
  2422  C   3.957        C 2424 0.964    N 2420 0.954    H 2423 0.951    C 2432 0.948
  2423  H   0.991        C 2422 0.951
  2424  C   3.961        C 2426 1.010    O 2430 0.978    C 2422 0.964    H 2425 0.959
  2425  H   0.998        C 2424 0.959
  2426  C   3.988        C 2424 1.010    H 2427 0.981    H 2429 0.980    H 2428 0.978
  2427  H   0.997        C 2426 0.981
  2428  H   0.997        C 2426 0.978
  2429  H   0.996        C 2426 0.980
  2430  O   1.908        C 2424 0.978    H 2431 0.825
  2431  H   0.886        O 2430 0.825
  2432  C   3.957        O 2433 1.636    N 2434 1.302    C 2422 0.948
  2433  O   1.955        C 2432 1.636    N 2434 0.198
  2434  N   3.452        C 2432 1.302    C 2436 0.967    H 2435 0.883    O 2433 0.198
  2435  H   0.950        N 2434 0.883
  2436  C   3.956        C 2438 0.979    N 2434 0.967    H 2437 0.948    C 2452 0.923
  2437  H   0.992        C 2436 0.948
  2438  C   3.983        C 2441 0.991    C 2436 0.979    H 2440 0.965    H 2439 0.961
  2439  H   0.994        C 2438 0.961
  2440  H   0.996        C 2438 0.965
  2441  C   3.984        C 2442 1.441    C 2450 1.404    C 2438 0.991    C 2446 0.105
  2442  C   3.990        C 2441 1.441    C 2444 1.432    H 2443 0.961    C 2448 0.103
  2443  H   0.999        C 2442 0.961
  2444  C   3.989        C 2442 1.432    C 2446 1.428    H 2445 0.971    C 2450 0.126
  2445  H   0.998        C 2444 0.971
  2446  C   3.986        C 2448 1.449    C 2444 1.428    H 2447 0.961    C 2441 0.105
  2447  H   0.997        C 2446 0.961
  2448  C   3.987        C 2446 1.449    C 2450 1.432    H 2449 0.965    C 2442 0.103
  2449  H   0.997        C 2448 0.965
  2450  C   3.986        C 2448 1.432    C 2441 1.404    H 2451 0.969    C 2444 0.126
  2451  H   0.997        C 2450 0.969
  2452  C   3.948        O 2453 1.608    N 2454 1.334    C 2436 0.923
  2453  O   1.978        C 2452 1.608    N 2454 0.199
  2454  N   3.477        C 2452 1.334    C 2456 0.969    H 2455 0.882    O 2453 0.199
  2455  H   0.944        N 2454 0.882
  2456  C   3.963        C 2458 0.980    N 2454 0.969    H 2457 0.949    C 2476 0.941
  2457  H   0.992        C 2456 0.949
  2458  C   3.981        C 2461 1.007    C 2456 0.980    H 2459 0.969    H 2460 0.963
  2459  H   0.996        C 2458 0.969
  2460  H   0.991        C 2458 0.963
  2461  C   3.990        C 2458 1.007    C 2464 0.989    H 2463 0.976    H 2462 0.972
  2462  H   0.996        C 2461 0.972
  2463  H   0.996        C 2461 0.976
  2464  C   3.947        C 2461 0.989    N 2467 0.978    H 2465 0.965    H 2466 0.965
  2465  H   0.991        C 2464 0.965
  2466  H   0.991        C 2464 0.965
  2467  N   3.448        C 2469 1.310    C 2464 0.978    H 2468 0.889    N 2473 0.112
  2468  H   0.946        N 2467 0.889
  2469  C   3.974        N 2473 1.383    N 2467 1.310    N 2470 1.252
  2470  N   3.331        C 2469 1.252    H 2472 0.922    H 2471 0.919    N 2473 0.102
  2471  H   0.939        N 2470 0.919
  2472  H   0.943        N 2470 0.922
  2473  N   3.452        C 2469 1.383    H 2474 0.907    H 2475 0.905    N 2467 0.112    N 2470 0.102
  2474  H   0.934        N 2473 0.907
  2475  H   0.942        N 2473 0.905
  2476  C   3.948        O 2477 1.615    N 2478 1.321    C 2456 0.941
  2477  O   1.934        C 2476 1.615    N 2478 0.195
  2478  N   3.469        C 2476 1.321    C 2480 0.970    H 2479 0.890    O 2477 0.195
  2479  H   0.945        N 2478 0.890
  2480  C   3.967        C 2490 0.979    N 2478 0.970    H 2481 0.946    C 2482 0.932
  2481  H   0.990        C 2480 0.946
  2482  C   3.952        C 2484 1.004    O 2488 0.993    H 2483 0.966    C 2480 0.932
  2483  H   0.998        C 2482 0.966
  2484  C   3.988        C 2482 1.004    H 2487 0.982    H 2485 0.979    H 2486 0.976
  2485  H   0.996        C 2484 0.979
  2486  H   0.994        C 2484 0.976
  2487  H   0.996        C 2484 0.982
  2488  O   1.961        C 2482 0.993    H 2489 0.858
  2489  H   0.897        O 2488 0.858
  2490  C   3.953        O 2491 1.634    N 2492 1.270    C 2480 0.979
  2491  O   1.940        C 2490 1.634    N 2492 0.194
  2492  N   3.455        C 2490 1.270    C 2494 0.997    H 2493 0.919    O 2491 0.194
  2493  H   0.954        N 2492 0.919
  2494  C   3.959        N 2492 0.997    H 2496 0.949    H 2495 0.949    C 2497 0.939
  2495  H   0.989        C 2494 0.949
  2496  H   0.990        C 2494 0.949
  2497  C   3.942        O 2498 1.704    N 2499 1.235    C 2494 0.939
  2498  O   2.025        C 2497 1.704    N 2499 0.198
  2499  N   3.417        C 2497 1.235    C 2501 0.984    H 2500 0.908    O 2498 0.198
  2500  H   0.957        N 2499 0.908
  2501  C   3.971        N 2499 0.984    C 2503 0.955    H 2502 0.949    C 2511 0.937
  2502  H   0.992        C 2501 0.949
  2503  C   3.949        C 2505 1.006    H 2504 0.965    O 2509 0.962    C 2501 0.955
  2504  H   0.998        C 2503 0.965
  2505  C   3.983        C 2503 1.006    H 2506 0.981    H 2507 0.980    H 2508 0.978
  2506  H   0.994        C 2505 0.981
  2507  H   0.997        C 2505 0.980
  2508  H   0.995        C 2505 0.978
  2509  O   1.930        C 2503 0.962    H 2510 0.877
  2510  H   0.893        O 2509 0.877
  2511  C   3.953        O 2512 1.621    N 2513 1.322    C 2501 0.937
  2512  O   1.966        C 2511 1.621    N 2513 0.202
  2513  N   3.470        C 2511 1.322    C 2515 0.944    H 2514 0.923    O 2512 0.202
  2514  H   0.957        N 2513 0.923
  2515  C   3.953        C 2517 0.993    N 2513 0.944    H 2516 0.941    C 2535 0.931
  2516  H   0.991        C 2515 0.941
  2517  C   3.983        C 2520 1.021    C 2515 0.993    H 2519 0.964    H 2518 0.947
  2518  H   0.996        C 2517 0.947
  2519  H   0.997        C 2517 0.964
  2520  C   3.971        C 2521 1.564    C 2534 1.194    C 2517 1.021
  2521  C   3.959        C 2520 1.564    N 2523 1.234    H 2522 0.965
  2522  H   0.997        C 2521 0.965
  2523  N   3.558        C 2521 1.234    C 2525 1.168    H 2524 0.931
  2524  H   0.960        N 2523 0.931
  2525  C   3.956        C 2526 1.322    C 2534 1.254    N 2523 1.168
  2526  C   3.984        C 2528 1.479    C 2525 1.322    H 2527 0.970    C 2532 0.130
  2527  H   0.998        C 2526 0.970
  2528  C   3.989        C 2526 1.479    C 2530 1.409    H 2529 0.965
  2529  H   0.998        C 2528 0.965
  2530  C   3.988        C 2532 1.455    C 2528 1.409    H 2531 0.969
  2531  H   0.998        C 2530 0.969
  2532  C   3.992        C 2530 1.455    C 2534 1.358    H 2533 0.970    C 2526 0.130
  2533  H   0.999        C 2532 0.970
  2534  C   3.988        C 2532 1.358    C 2525 1.254    C 2520 1.194
  2535  C   3.945        O 2536 1.604    N 2537 1.333    C 2515 0.931
  2536  O   1.926        C 2535 1.604    N 2537 0.196
  2537  N   3.472        C 2535 1.333    C 2539 0.954    H 2538 0.898    O 2536 0.196
  2538  H   0.947        N 2537 0.898
  2539  C   3.952        C 2541 0.962    H 2540 0.956    N 2537 0.954    C 2547 0.939
  2540  H   0.994        C 2539 0.956
  2541  C   3.979        H 2542 0.972    H 2543 0.963    C 2539 0.962    C 2544 0.961
  2542  H   0.998        C 2541 0.972
  2543  H   0.996        C 2541 0.963
  2544  C   3.943        O 2546 1.509    O 2545 1.454    C 2541 0.961
  2545  O   1.743        C 2544 1.454    O 2546 0.225
  2546  O   1.799        C 2544 1.509    O 2545 0.225
  2547  C   3.954        O 2548 1.606    N 2549 1.335    C 2539 0.939
  2548  O   1.918        C 2547 1.606    N 2549 0.194
  2549  N   3.484        C 2547 1.335    C 2551 0.966    H 2550 0.917    O 2548 0.194
  2550  H   0.957        N 2549 0.917
  2551  C   3.948        C 2553 0.983    N 2549 0.966    C 2557 0.958    H 2552 0.930
  2552  H   0.988        C 2551 0.930
  2553  C   3.968        C 2551 0.983    H 2554 0.982    H 2556 0.976    H 2555 0.975
  2554  H   0.996        C 2553 0.982
  2555  H   0.992        C 2553 0.975
  2556  H   0.990        C 2553 0.976
  2557  C   3.946        O 2558 1.627    N 2559 1.280    C 2551 0.958
  2558  O   1.941        C 2557 1.627    N 2559 0.187
  2559  N   3.450        C 2557 1.280    C 2561 0.964    H 2560 0.924    O 2558 0.187
  2560  H   0.964        N 2559 0.924
  2561  C   3.954        N 2559 0.964    C 2578 0.961    C 2563 0.955    H 2562 0.943
  2562  H   0.992        C 2561 0.943
  2563  C   3.983        C 2566 0.998    H 2565 0.972    H 2564 0.969    C 2561 0.955
  2564  H   0.996        C 2563 0.969
  2565  H   0.998        C 2563 0.972
  2566  C   3.982        C 2567 1.425    C 2576 1.391    C 2563 0.998
  2567  C   3.988        C 2569 1.444    C 2566 1.425    H 2568 0.968
  2568  H   0.998        C 2567 0.968
  2569  C   3.982        C 2567 1.444    C 2571 1.356    H 2570 0.965    C 2576 0.109
  2570  H   0.995        C 2569 0.965
  2571  C   3.947        C 2569 1.356    C 2574 1.352    O 2572 1.102
  2572  O   2.120        C 2571 1.102    H 2573 0.820
  2573  H   0.882        O 2572 0.820
  2574  C   3.988        C 2576 1.472    C 2571 1.352    H 2575 0.961
  2575  H   0.998        C 2574 0.961
  2576  C   3.990        C 2574 1.472    C 2566 1.391    H 2577 0.961    C 2569 0.109
  2577  H   0.999        C 2576 0.961
  2578  C   3.947        O 2579 1.611    N 2580 1.295    C 2561 0.961
  2579  O   1.922        C 2578 1.611    N 2580 0.197
  2580  N   3.469        C 2578 1.295    C 2582 0.972    H 2581 0.924    O 2579 0.197
  2581  H   0.960        N 2580 0.924
  2582  C   3.952        C 2584 0.994    N 2580 0.972    H 2583 0.961    C 2600 0.887
  2583  H   0.998        C 2582 0.961
  2584  C   3.992        C 2587 1.001    C 2582 0.994    H 2586 0.975    H 2585 0.973
  2585  H   0.998        C 2584 0.973
  2586  H   0.998        C 2584 0.975
  2587  C   3.991        C 2590 1.005    C 2584 1.001    H 2588 0.974    H 2589 0.973
  2588  H   0.997        C 2587 0.974
  2589  H   0.998        C 2587 0.973
  2590  C   3.983        C 2587 1.005    C 2593 0.998    H 2591 0.975    H 2592 0.973
  2591  H   0.994        C 2590 0.975
  2592  H   0.993        C 2590 0.973
  2593  C   3.914        C 2590 0.998    H 2594 0.970    H 2595 0.966    N 2596 0.955
  2594  H   0.989        C 2593 0.970
  2595  H   0.986        C 2593 0.966
  2596  N   3.659        C 2593 0.955    H 2597 0.897    H 2599 0.895    H 2598 0.892
  2597  H   0.910        N 2596 0.897
  2598  H   0.904        N 2596 0.892
  2599  H   0.911        N 2596 0.895
  2600  C   3.931        O 2601 1.539    O 2602 1.460    C 2582 0.887
  2601  O   1.839        C 2600 1.539    O 2602 0.223
  2602  O   1.750        C 2600 1.460    O 2601 0.223

molecular dipole:
                 x           y           z       tot (Debye)
 q only:      617.170     663.446     652.596
   full:      617.635     663.460     661.941    2852.898
molecular quadrupole (traceless):
                xx          xy          yy          xz          yz          zz
 q only:    -7440.062   71317.158    3968.325   70875.989   78037.223    3471.738
  q+dip:    -8180.973   70976.451    3184.615   71780.374   79028.788    4996.358
   full:    -8173.577   70971.838    3161.361   71782.839   79024.877    5012.217


           -------------------------------------------------
          | TOTAL ENERGY            -4085.330285136278 Eh   |
          | GRADIENT NORM               1.328089986322 Eh/α |
          | HOMO-LUMO GAP               1.673793739474 eV   |
           -------------------------------------------------
########################################################################
[WARNING] Runtime exception occurred
-2- restart_readRestart: Dimension missmatch in restart file.
-1- restart_readRestart: Number of electron missmatch in restart file.
########################################################################

------------------------------------------------------------------------
 * finished run on 2020/07/22 at 19:58:32.908     
------------------------------------------------------------------------
 total:
 * wall-time:     0 d,  0 h,  7 min,  8.212 sec
 *  cpu-time:     0 d,  5 h, 18 min, 32.991 sec
 * ratio c/w:    44.634 speedup
 SCF:
 * wall-time:     0 d,  0 h,  6 min, 38.049 sec
 *  cpu-time:     0 d,  5 h,  7 min, 27.337 sec
 * ratio c/w:    46.344 speedup

