      -----------------------------------------------------------      
     |                   =====================                   |     
     |                           x T B                           |     
     |                   =====================                   |     
     |                         S. Grimme                         |     
     |          Mulliken Center for Theoretical Chemistry        |     
     |                    University of Bonn                     |     
      -----------------------------------------------------------      

   * xtb version 6.2.3 (d7bf61a) compiled by 'conda@06d140edd85e' on 2020-05-12

   xtb is free software: you can redistribute it and/or modify it under
   the terms of the GNU Lesser General Public License as published by
   the Free Software Foundation, either version 3 of the License, or
   (at your option) any later version.
   
   xtb is distributed in the hope that it will be useful,
   but WITHOUT ANY WARRANTY; without even the implied warranty of
   MERCHANTABILITY or FITNESS FOR A PARTICULAR PURPOSE.  See the
   GNU Lesser General Public License for more details.
   
   Cite this work as:
   * S. Grimme, C. Bannwarth, P. Shushkov, J. Chem. Theory Comput., 2017,
     13, 1989-2009. DOI: 10.1021/acs.jctc.7b00118
   * C. Bannwarth, S. Ehlert and S. Grimme., J. Chem. Theory Comput., 2019,
     15, 1652-1671. DOI: 10.1021/acs.jctc.8b01176
   * P. Pracht, E. Caldeweyher, S. Ehlert, S. Grimme, ChemRxiv, 2019, preprint.
     DOI: 10.26434/chemrxiv.8326202.v1
   
   for DFT-D4:
   * E. Caldeweyher, C. Bannwarth and S. Grimme, J. Chem. Phys., 2017,
     147, 034112. DOI: 10.1063/1.4993215
   * E. Caldeweyher, S. Ehlert, A. Hansen, H. Neugebauer, S. Spicher,
     C. Bannwarth and S. Grimme, J. Chem. Phys., 2019, 150, 154122.
     DOI: 10.1063/1.5090222
   
   for sTDA-xTB:
   * S. Grimme and C. Bannwarth, J. Chem. Phys., 2016, 145, 054103.
     DOI: 10.1063/1.4959605
   
   in the mass-spec context:
   * V. Asgeirsson, C. Bauer and S. Grimme, Chem. Sci., 2017, 8, 4879.
     DOI: 10.1039/c7sc00601b
   
   for metadynamics refer to:
   * S. Grimme, J. Chem. Theory Comput., 2019, 155, 2847-2862
     DOI: 10.1021/acs.jctc.9b00143
   
   with help from (in alphabetical order)
   C. Bannwarth, F. Bohle, G. Brandenburg, E. Caldeweyher, M. Checinski,
   S. Dohm, S. Ehlert, S. Ehrlich, F. März, H. Neugebauer, J. Pisarek,
   P. Pracht, P. Shushkov, and S. Spicher.
   
 * started run on 2020/07/25 at 08:51:47.553     

           -------------------------------------------------
          |                Calculation Setup                |
           -------------------------------------------------

          program call               : xtb host_30501.xyz --chrg +9 --uhf 0 --gbsa water
          hostname                   : gold54.cluster.local
          coordinate file            : host_30501.xyz
          omp threads                :                    64
          number of atoms            :                  2602
          number of electrons        :                  7192
          charge                     :                     9
          spin                       :                   0.0
          first test random number   :      0.12870396712400

########################################################################
[WARNING] Please study the warnings concerning your input carefully
-2- prog_main: XTBPATH is not set, using XTBHOME instead
-1- prog_main: XTBHOME is not set, using HOME instead
########################################################################
           ------------------------------------------------- 
          |                 G F N 2 - x T B                 |
          | Geometry, Frequencies, Noncovalent interactions |
          |            JCTC 2019 parametrisation            |
           ------------------------------------------------- 
             k(s)              :                1.8500
             k(p)              :                2.2300
             k(d)              :                2.2300
             k(f)              :                2.0000
             kEN (H0ij)        :               -2.0000
             D4 a1             :                0.5200
             D4 a2             :                5.0000
             D4 s6             :                1.0000
             D4 s8             :                2.7000
             D4 s9             :                5.0000
             alphaj            :                2.0000

  Z AO/shell   Hii/eV     exponent
  1     Wed Apr 25 08:07:45 CEST 2018   EN: 2.200 GM2: 0.406  GM3: 0.0800  RAES: 1.40
     1s    -10.707211    1.230000
  6     Wed Apr 25 08:07:45 CEST 2018   EN: 2.550 GM2: 0.538  GM3: 0.1500  RAES: 3.00
     2s    -13.970922    2.096432
     2p    -10.063292    1.800000
  7     Wed Apr 25 08:07:45 CEST 2018   EN: 3.040 GM2: 0.461  GM3:-0.0640  RAES: 1.90
     2s    -16.686243    2.339881
     2p    -12.523956    2.014332
  8     Wed Apr 25 08:07:45 CEST 2018   EN: 3.440 GM2: 0.452  GM3:-0.0517  RAES: 1.80
     2s    -20.229985    2.439742
     2p    -15.503117    2.137023
 16     Tue Apr 24 11:44:34 CEST 2018   EN: 2.580 GM2: 0.340  GM3:-0.0502  RAES: 3.10
     3s    -20.029654    1.981333
     3p    -11.377694    2.025643
     3d     -0.420282    1.702555

 Solvent             : water
 Using internal parameter file: .param_gbsa2_water
 Gsolv ref. state (COSMO-RS): gsolv [1 M gas/solution]
 temperature (mdtemp)       :    298.14999999999998     
 dielectric constant        :    80.200000000000003     
 rho                        :    1.0000000000000000     
 mass                       :    18.000000000000000     
 surface tension            :    15.568945408385856     
 probe radius               :   0.97531378999999996     
 Gshift (Eh)                :    1.8574431267947933E-003
 c1                         :    1.5524381700000001     
 soset                      :   0.13032636000000000     
 HB correction              :  T
           ------------------------------------------------- 
          |        Self-Consistent Charge Iterations        |
           ------------------------------------------------- 

          ...................................................
          :                      SETUP                      :
          :.................................................:
          :  # basis functions                6511          :
          :  # atomic orbitals                6505          :
          :  # shells                         3899          :
          :  # electrons                      7192          :
          :  max. iterations                   250          :
          :  Hamiltonian                  GFN2-xTB          :
          :  restarted?                      false          :
          :  GBSA solvation                   true          :
          :  PC potential                    false          :
          :  electronic temp.          300.0000000     K    :
          :  accuracy                    1.0000000          :
          :  -> integral cutoff          0.2500000E+02      :
          :  -> integral neglect         0.1000000E-07      :
          :  -> SCF convergence          0.1000000E-05 Eh   :
          :  -> wf. convergence          0.1000000E-03 e    :
          :  Broyden damping             0.4000000          :
          ...................................................

 iter      E             dE          RMSdq      gap      omega  full diag
   1  -4120.7491746 -0.412075E+04  0.428E+00    2.05       0.0  T
   2  -4132.9056971 -0.121565E+02  0.226E+00    2.41       1.0  T
   3  -4133.3705162 -0.464819E+00  0.119E+00    2.05       1.0  T
   4  -4133.4397162 -0.692001E-01  0.285E-01    1.86       1.0  T
   5  -4133.5378693 -0.981531E-01  0.141E-01    1.73       1.0  T
   6  -4133.5523141 -0.144447E-01  0.727E-02    1.80       1.0  T
   7  -4133.5546306 -0.231653E-02  0.376E-02    1.76       1.0  T
   8  -4133.5557201 -0.108955E-02  0.165E-02    1.73       1.0  T
   9  -4133.5558864 -0.166230E-03  0.100E-02    1.71       1.0  T
  10  -4133.5559685 -0.820997E-04  0.524E-03    1.69       1.0  T
  11  -4133.5559899 -0.214389E-04  0.261E-03    1.69       1.0  T
  12  -4133.5559960 -0.606703E-05  0.142E-03    1.68       1.4  T
  13  -4133.5559977 -0.175837E-05  0.774E-04    1.68       2.5  T
  14  -4133.5559982 -0.514465E-06  0.393E-04    1.68       5.0  T
  15  -4133.5559984 -0.139888E-06  0.198E-04    1.68       9.9  T

   *** convergence criteria satisfied after 15 iterations ***

         #    Occupation            Energy/Eh            Energy/eV
      -------------------------------------------------------------
         1        2.0000           -0.7503541             -20.4182
       ...           ...                  ...                  ...
      3590        2.0000           -0.3568036              -9.7091
      3591        2.0000           -0.3567777              -9.7084
      3592        2.0000           -0.3555471              -9.6749
      3593        2.0000           -0.3536387              -9.6230
      3594        2.0000           -0.3532582              -9.6126
      3595        2.0000           -0.3504249              -9.5355
      3596        2.0000           -0.3494946              -9.5102 (HOMO)
      3597                         -0.2878130              -7.8318 (LUMO)
      3598                         -0.2702058              -7.3527
      3599                         -0.2689686              -7.3190
      3600                         -0.2669951              -7.2653
      3601                         -0.2668106              -7.2603
       ...                                ...                  ...
      6505                          0.7815008              21.2657
      -------------------------------------------------------------
                  HL-Gap            0.0616817 Eh            1.6784 eV
             Fermi-level           -0.3186538 Eh           -8.6710 eV

 SCC (total)                   0 d,  0 h,  6 min, 41.224 sec
 SCC setup                      ...        0 min,  3.184 sec (  0.794%)
 Dispersion                     ...        0 min,  1.961 sec (  0.489%)
 integral evaluation            ...        0 min, 10.939 sec (  2.726%)
 zeroth order Hamiltonian       ...        0 min,  0.343 sec (  0.085%)
 iterations                     ...        6 min,  7.288 sec ( 91.542%)
 molecular gradient             ...        0 min, 16.840 sec (  4.197%)
 printout                       ...        0 min,  0.668 sec (  0.166%)

         :::::::::::::::::::::::::::::::::::::::::::::::::::::
         ::                     SUMMARY                     ::
         :::::::::::::::::::::::::::::::::::::::::::::::::::::
         :: total energy           -4085.251661927290 Eh    ::
         :: total w/o Gsasa/hb     -4084.855890588711 Eh    ::
         :: gradient norm              1.316449614992 Eh/a0 ::
         :: HOMO-LUMO gap              1.678443834360 eV    ::
         ::.................................................::
         :: SCC energy             -4133.622855917214 Eh    ::
         :: -> isotropic ES           14.180752266243 Eh    ::
         :: -> anisotropic ES         -0.748840072420 Eh    ::
         :: -> anisotropic XC          1.146853810960 Eh    ::
         :: -> dispersion             -3.895357522597 Eh    ::
         :: -> Gsolv                  -4.064886045299 Eh    ::
         ::    -> Gborn               -3.669114706721 Eh    ::
         ::    -> Gsasa               -0.068714970864 Eh    ::
         ::    -> Ghb                 -0.328913810841 Eh    ::
         ::    -> Gshift               0.001857443127 Eh    ::
         :: repulsion energy          47.838234564697 Eh    ::
         :: add. restraining           0.000000000000 Eh    ::
         :::::::::::::::::::::::::::::::::::::::::::::::::::::

           -------------------------------------------------
          |                Property Printout                |
           -------------------------------------------------

    * Orbital Energies and Occupations

         #    Occupation            Energy/Eh            Energy/eV
      -------------------------------------------------------------
         1        2.0000           -0.7503541             -20.4182
       ...           ...                  ...                  ...
      3584        2.0000           -0.3624635              -9.8631
      3585        2.0000           -0.3619448              -9.8490
      3586        2.0000           -0.3612439              -9.8299
      3587        2.0000           -0.3611918              -9.8285
      3588        2.0000           -0.3606968              -9.8151
      3589        2.0000           -0.3584963              -9.7552
      3590        2.0000           -0.3568036              -9.7091
      3591        2.0000           -0.3567777              -9.7084
      3592        2.0000           -0.3555471              -9.6749
      3593        2.0000           -0.3536387              -9.6230
      3594        2.0000           -0.3532582              -9.6126
      3595        2.0000           -0.3504249              -9.5355
      3596        2.0000           -0.3494946              -9.5102 (HOMO)
      3597                         -0.2878130              -7.8318 (LUMO)
      3598                         -0.2702058              -7.3527
      3599                         -0.2689686              -7.3190
      3600                         -0.2669951              -7.2653
      3601                         -0.2668106              -7.2603
      3602                         -0.2649106              -7.2086
      3603                         -0.2645186              -7.1979
      3604                         -0.2641182              -7.1870
      3605                         -0.2638478              -7.1797
      3606                         -0.2634041              -7.1676
      3607                         -0.2619369              -7.1277
       ...                                ...                  ...
      6505                          0.7815008              21.2657
      -------------------------------------------------------------
                  HL-Gap            0.0616817 Eh            1.6784 eV
             Fermi-level           -0.3186538 Eh           -8.6710 eV

     #   Z        covCN         q      C6AA      α(0)
     1   7 N      3.487    -0.133    23.879     7.258
     2   1 H      0.860     0.317     0.665     1.277
     3   1 H      0.860     0.312     0.678     1.290
     4   1 H      0.860     0.296     0.724     1.333
     5   6 C      3.784    -0.045    21.404     6.590
     6   1 H      0.924     0.136     1.491     1.910
     7   6 C      3.819    -0.111    22.603     6.766
     8   1 H      0.925     0.108     1.717     2.049
     9   1 H      0.925     0.116     1.642     2.004
    10   6 C      3.794    -0.028    21.078     6.538
    11   1 H      0.925     0.074     2.042     2.235
    12   1 H      0.925     0.054     2.271     2.357
    13  16 S      1.953    -0.193   149.257    20.562
    14   6 C      3.734    -0.072    21.974     6.690
    15   1 H      0.924     0.041     2.438     2.442
    16   1 H      0.925     0.043     2.408     2.427
    17   1 H      0.925     0.065     2.141     2.288
    18   6 C      2.757     0.266    22.516     7.770
    19   8 O      0.858    -0.435    22.389     6.344
    20   7 N      2.699    -0.161    24.474     7.347
    21   1 H      0.860     0.230     0.963     1.537
    22   6 C      3.791     0.018    20.281     6.413
    23   1 H      0.925     0.102     1.767     2.079
    24   6 C      3.811    -0.119    22.758     6.790
    25   1 H      0.925     0.087     1.907     2.160
    26   1 H      0.924     0.117     1.638     2.001
    27   6 C      2.745     0.278    22.295     7.731
    28   8 O      0.877    -0.522    24.261     6.604
    29   7 N      2.658    -0.285    27.355     7.768
    30   1 H      0.860     0.248     0.892     1.479
    31   1 H      0.860     0.229     0.971     1.544
    32   6 C      2.749     0.265    22.534     7.773
    33   8 O      0.858    -0.480    23.346     6.478
    34   7 N      2.680    -0.181    24.919     7.414
    35   1 H      0.860     0.221     1.003     1.569
    36   6 C      3.778     0.010    20.437     6.441
    37   1 H      0.924     0.103     1.760     2.074
    38   6 C      3.843    -0.034    21.142     6.541
    39   1 H      0.925     0.078     2.000     2.211
    40   6 C      3.751    -0.127    22.996     6.839
    41   1 H      0.925     0.054     2.269     2.356
    42   1 H      0.925     0.031     2.575     2.509
    43   1 H      0.925     0.061     2.185     2.312
    44   6 C      3.805    -0.066    21.753     6.640
    45   1 H      0.925     0.029     2.604     2.524
    46   1 H      0.924     0.046     2.373     2.409
    47   6 C      3.750    -0.116    22.784     6.808
    48   1 H      0.924     0.057     2.236     2.339
    49   1 H      0.924     0.047     2.362     2.403
    50   1 H      0.925     0.033     2.547     2.496
    51   6 C      2.756     0.273    22.386     7.748
    52   8 O      0.859    -0.492    23.606     6.514
    53   7 N      2.694    -0.190    25.121     7.444
    54   1 H      0.860     0.218     1.020     1.582
    55   6 C      3.798     0.037    19.957     6.361
    56   1 H      0.925     0.074     2.046     2.237
    57   6 C      3.812    -0.077    21.956     6.670
    58   1 H      0.925     0.053     2.278     2.360
    59   1 H      0.925     0.064     2.148     2.292
    60   6 C      2.956     0.014    27.708     8.634
    61   6 C      2.918    -0.035    28.881     8.813
    62   1 H      0.926     0.029     2.599     2.521
    63   6 C      2.903    -0.028    28.710     8.786
    64   1 H      0.926     0.031     2.571     2.507
    65   6 C      2.905    -0.041    29.029     8.834
    66   1 H      0.926     0.042     2.421     2.433
    67   6 C      2.906    -0.037    28.924     8.819
    68   1 H      0.926     0.045     2.383     2.414
    69   6 C      2.915    -0.027    28.685     8.783
    70   1 H      0.926     0.029     2.597     2.520
    71   6 C      2.747     0.268    22.479     7.763
    72   8 O      0.863    -0.495    23.675     6.524
    73   7 N      2.679    -0.207    25.501     7.500
    74   1 H      0.860     0.202     1.095     1.639
    75   6 C      3.775     0.032    20.070     6.383
    76   1 H      0.924     0.072     2.065     2.247
    77   6 C      3.796    -0.057    21.598     6.618
    78   1 H      0.925     0.063     2.166     2.302
    79   1 H      0.924     0.067     2.117     2.275
    80   6 C      3.798    -0.099    22.393     6.738
    81   1 H      0.925     0.032     2.552     2.498
    82   1 H      0.925     0.015     2.812     2.622
    83   6 C      2.683     0.379    20.590     7.426
    84   8 O      0.859    -0.636    27.010     6.968
    85   8 O      0.858    -0.656    27.536     7.036
    86   6 C      2.753     0.270    22.445     7.758
    87   8 O      0.861    -0.480    23.355     6.479
    88   7 N      2.684    -0.176    24.802     7.396
    89   1 H      0.860     0.218     1.018     1.581
    90   6 C      3.792     0.021    20.229     6.405
    91   1 H      0.924     0.080     1.979     2.200
    92   6 C      3.832    -0.080    21.996     6.673
    93   1 H      0.924     0.062     2.173     2.305
    94   1 H      0.925     0.077     2.011     2.218
    95   6 C      3.794    -0.012    20.804     6.495
    96   1 H      0.925     0.051     2.313     2.378
    97   1 H      0.924     0.030     2.590     2.517
    98  16 S      1.982    -0.183   148.821    20.532
    99   6 C      3.743    -0.073    21.973     6.687
   100   1 H      0.925     0.053     2.283     2.363
   101   1 H      0.925     0.080     1.974     2.197
   102   1 H      0.925     0.082     1.954     2.186
   103   6 C      2.752     0.264    22.555     7.777
   104   8 O      0.860    -0.491    23.595     6.513
   105   7 N      2.690    -0.187    25.052     7.434
   106   1 H      0.860     0.219     1.015     1.578
   107   6 C      3.780     0.016    20.320     6.422
   108   1 H      0.925     0.078     1.998     2.210
   109   6 C      3.796    -0.081    22.051     6.687
   110   1 H      0.924     0.065     2.140     2.288
   111   1 H      0.924     0.058     2.223     2.332
   112   6 C      3.841    -0.013    20.774     6.484
   113   1 H      0.924     0.055     2.259     2.351
   114   6 C      3.752    -0.115    22.760     6.803
   115   1 H      0.924     0.035     2.518     2.481
   116   1 H      0.924     0.034     2.531     2.488
   117   1 H      0.925     0.043     2.403     2.424
   118   6 C      3.755    -0.128    23.020     6.841
   119   1 H      0.924     0.046     2.368     2.406
   120   1 H      0.924     0.047     2.357     2.401
   121   1 H      0.925     0.051     2.309     2.376
   122   6 C      2.744     0.264    22.549     7.775
   123   8 O      0.858    -0.498    23.745     6.533
   124   7 N      2.680    -0.157    24.403     7.337
   125   1 H      0.860     0.193     1.144     1.676
   126   6 C      3.785     0.002    20.558     6.458
   127   1 H      0.925     0.104     1.750     2.068
   128   6 C      3.806    -0.082    22.054     6.685
   129   1 H      0.925     0.054     2.275     2.359
   130   1 H      0.925     0.074     2.037     2.232
   131   6 C      3.802    -0.089    22.201     6.708
   132   1 H      0.925     0.082     1.957     2.188
   133   1 H      0.924     0.090     1.883     2.146
   134   6 C      3.743    -0.032    21.222     6.572
   135   1 H      0.924     0.107     1.719     2.050
   136   1 H      0.925     0.085     1.927     2.171
   137   7 N      2.699    -0.139    24.013     7.278
   138   1 H      0.860     0.199     1.110     1.650
   139   6 C      2.736     0.225    23.261     7.896
   140   7 N      2.678    -0.255    26.631     7.664
   141   1 H      0.860     0.274     0.798     1.399
   142   1 H      0.860     0.243     0.913     1.497
   143   7 N      2.691    -0.258    26.689     7.673
   144   1 H      0.860     0.253     0.872     1.463
   145   1 H      0.860     0.213     1.043     1.600
   146   6 C      2.745     0.267    22.495     7.766
   147   8 O      0.857    -0.462    22.955     6.424
   148   7 N      2.682    -0.169    24.655     7.375
   149   1 H      0.860     0.211     1.052     1.606
   150   6 C      3.788     0.011    20.409     6.434
   151   1 H      0.925     0.092     1.864     2.135
   152   6 C      3.847    -0.027    21.017     6.521
   153   1 H      0.925     0.046     2.366     2.405
   154   6 C      3.751    -0.121    22.889     6.823
   155   1 H      0.924     0.055     2.260     2.351
   156   1 H      0.925     0.044     2.394     2.420
   157   1 H      0.925     0.053     2.284     2.363
   158   6 C      3.796    -0.054    21.546     6.610
   159   1 H      0.924     0.032     2.556     2.500
   160   1 H      0.925     0.048     2.342     2.393
   161   6 C      3.748    -0.103    22.533     6.770
   162   1 H      0.924     0.046     2.377     2.411
   163   1 H      0.925     0.030     2.581     2.512
   164   1 H      0.925     0.039     2.467     2.456
   165   6 C      2.749     0.268    22.471     7.762
   166   8 O      0.861    -0.485    23.446     6.492
   167   7 N      2.690    -0.199    25.319     7.473
   168   1 H      0.860     0.217     1.022     1.584
   169   6 C      3.786     0.031    20.062     6.380
   170   1 H      0.925     0.093     1.849     2.127
   171   6 C      3.802    -0.090    22.224     6.712
   172   1 H      0.924     0.041     2.435     2.440
   173   1 H      0.925     0.056     2.244     2.343
   174   6 C      2.687     0.358    20.931     7.487
   175   8 O      0.856    -0.577    25.563     6.779
   176   8 O      0.856    -0.579    25.620     6.786
   177   6 C      2.747     0.256    22.697     7.801
   178   8 O      0.857    -0.514    24.090     6.581
   179   7 N      2.678    -0.184    24.980     7.423
   180   1 H      0.860     0.206     1.074     1.623
   181   6 C      3.779     0.020    20.252     6.411
   182   1 H      0.925     0.080     1.979     2.200
   183   6 C      3.798    -0.060    21.660     6.627
   184   1 H      0.925     0.057     2.235     2.338
   185   1 H      0.924     0.056     2.244     2.343
   186   6 C      3.798    -0.103    22.464     6.749
   187   1 H      0.925     0.034     2.534     2.489
   188   1 H      0.925     0.036     2.497     2.471
   189   6 C      2.684     0.360    20.887     7.479
   190   8 O      0.857    -0.655    27.516     7.033
   191   8 O      0.858    -0.620    26.626     6.918
   192   6 C      2.744     0.272    22.395     7.749
   193   8 O      0.860    -0.438    22.448     6.352
   194   7 N      2.671    -0.183    24.958     7.420
   195   1 H      0.860     0.197     1.123     1.660
   196   6 C      3.724    -0.045    21.492     6.620
   197   1 H      0.924     0.105     1.741     2.063
   198   1 H      0.925     0.093     1.854     2.129
   199   6 C      2.746     0.267    22.485     7.764
   200   8 O      0.859    -0.468    23.096     6.443
   201   7 N      2.685    -0.183    24.967     7.421
   202   1 H      0.860     0.217     1.024     1.585
   203   6 C      3.797     0.010    20.411     6.433
   204   1 H      0.925     0.066     2.132     2.284
   205   6 C      3.817    -0.091    22.229     6.710
   206   1 H      0.924     0.080     1.976     2.198
   207   1 H      0.924     0.067     2.113     2.273
   208   6 C      3.841    -0.030    21.076     6.531
   209   1 H      0.925     0.047     2.352     2.398
   210   6 C      3.762    -0.124    22.926     6.825
   211   1 H      0.925     0.032     2.554     2.499
   212   1 H      0.924     0.057     2.240     2.341
   213   1 H      0.925     0.026     2.638     2.540
   214   6 C      3.757    -0.136    23.177     6.864
   215   1 H      0.925     0.059     2.205     2.322
   216   1 H      0.925     0.069     2.098     2.265
   217   1 H      0.925     0.039     2.462     2.454
   218   6 C      2.767     0.261    22.600     7.786
   219   8 O      0.860    -0.499    23.759     6.535
   220   7 N      2.701    -0.153    24.299     7.321
   221   1 H      0.860     0.214     1.037     1.595
   222   6 C      3.816     0.009    20.420     6.431
   223   1 H      0.925     0.086     1.917     2.165
   224   6 C      3.814    -0.085    22.103     6.692
   225   1 H      0.924     0.066     2.133     2.284
   226   1 H      0.924     0.065     2.142     2.289
   227   6 C      3.798    -0.084    22.105     6.694
   228   1 H      0.924     0.060     2.197     2.318
   229   1 H      0.925     0.084     1.938     2.177
   230   6 C      3.735    -0.027    21.136     6.561
   231   1 H      0.924     0.097     1.808     2.103
   232   1 H      0.924     0.066     2.126     2.280
   233   7 N      2.706    -0.159    24.428     7.340
   234   1 H      0.860     0.245     0.902     1.488
   235   6 C      2.734     0.242    22.939     7.841
   236   7 N      2.669    -0.217    25.732     7.534
   237   1 H      0.860     0.240     0.923     1.505
   238   1 H      0.860     0.234     0.950     1.526
   239   7 N      2.668    -0.277    27.146     7.738
   240   1 H      0.860     0.225     0.987     1.557
   241   1 H      0.860     0.255     0.862     1.455
   242   6 C      2.753     0.263    22.574     7.780
   243   8 O      0.857    -0.466    23.054     6.437
   244   7 N      2.690    -0.185    25.009     7.427
   245   1 H      0.860     0.227     0.977     1.548
   246   6 C      3.787     0.017    20.306     6.418
   247   1 H      0.924     0.075     2.029     2.227
   248   6 C      3.812    -0.084    22.095     6.691
   249   1 H      0.924     0.082     1.959     2.189
   250   1 H      0.925     0.056     2.250     2.345
   251   6 C      3.851    -0.017    20.845     6.494
   252   1 H      0.924     0.048     2.346     2.395
   253   6 C      3.761    -0.130    23.049     6.844
   254   1 H      0.925     0.044     2.390     2.418
   255   1 H      0.925     0.060     2.203     2.321
   256   1 H      0.925     0.043     2.407     2.426
   257   6 C      3.758    -0.111    22.682     6.790
   258   1 H      0.925     0.050     2.317     2.380
   259   1 H      0.925     0.023     2.692     2.566
   260   1 H      0.924     0.032     2.557     2.501
   261   6 C      2.741     0.267    22.490     7.765
   262   8 O      0.863    -0.461    22.934     6.421
   263   7 N      2.689    -0.171    24.703     7.382
   264   1 H      0.860     0.191     1.151     1.681
   265   6 C      3.793     0.007    20.473     6.443
   266   1 H      0.925     0.092     1.863     2.134
   267   6 C      3.799    -0.086    22.136     6.699
   268   1 H      0.925     0.083     1.944     2.181
   269   1 H      0.925     0.086     1.923     2.168
   270   6 C      3.807    -0.084    22.098     6.692
   271   1 H      0.924     0.056     2.250     2.346
   272   1 H      0.925     0.064     2.152     2.294
   273   6 C      3.794    -0.103    22.482     6.752
   274   1 H      0.924     0.071     2.077     2.253
   275   1 H      0.925     0.082     1.959     2.189
   276   6 C      3.733    -0.057    21.692     6.648
   277   1 H      0.924     0.121     1.605     1.981
   278   1 H      0.925     0.118     1.629     1.996
   279   7 N      3.491    -0.140    24.018     7.279
   280   1 H      0.860     0.295     0.730     1.338
   281   1 H      0.860     0.304     0.703     1.313
   282   1 H      0.860     0.291     0.740     1.348
   283   6 C      2.751     0.268    22.469     7.762
   284   8 O      0.859    -0.488    23.518     6.502
   285   7 N      2.683    -0.178    24.862     7.405
   286   1 H      0.860     0.219     1.013     1.577
   287   6 C      3.795     0.013    20.368     6.427
   288   1 H      0.924     0.068     2.111     2.272
   289   6 C      3.846    -0.036    21.183     6.547
   290   1 H      0.924     0.075     2.026     2.226
   291   6 C      3.751    -0.125    22.955     6.833
   292   1 H      0.924     0.042     2.417     2.431
   293   1 H      0.924     0.072     2.068     2.249
   294   1 H      0.925     0.030     2.591     2.517
   295   6 C      3.797    -0.085    22.120     6.697
   296   1 H      0.924     0.048     2.347     2.396
   297   1 H      0.925     0.037     2.490     2.468
   298   6 C      3.745    -0.127    23.014     6.843
   299   1 H      0.925     0.036     2.509     2.477
   300   1 H      0.924     0.051     2.301     2.372
   301   1 H      0.925     0.056     2.241     2.341
   302   6 C      2.750     0.285    22.164     7.709
   303   8 O      0.858    -0.475    23.242     6.464
   304   7 N      2.686    -0.186    25.023     7.429
   305   1 H      0.860     0.228     0.974     1.546
   306   6 C      3.782     0.017    20.310     6.420
   307   1 H      0.925     0.102     1.771     2.081
   308   6 C      3.813    -0.082    22.061     6.685
   309   1 H      0.924     0.093     1.855     2.130
   310   1 H      0.925     0.068     2.111     2.272
   311   6 C      2.954     0.006    27.878     8.660
   312   6 C      2.905    -0.047    29.167     8.855
   313   1 H      0.926     0.034     2.526     2.485
   314   6 C      2.897    -0.079    29.973     8.976
   315   1 H      0.926     0.025     2.660     2.550
   316   6 C      2.830     0.135    25.044     8.200
   317   8 O      1.660    -0.432    21.476     6.256
   318   1 H      0.806     0.321     0.661     1.277
   319   6 C      2.901    -0.067    29.657     8.929
   320   1 H      0.926     0.048     2.346     2.395
   321   6 C      2.909    -0.042    29.033     8.835
   322   1 H      0.926     0.083     1.947     2.182
   323   6 C      2.751     0.268    22.483     7.764
   324   8 O      0.860    -0.488    23.524     6.503
   325   7 N      2.684    -0.188    25.087     7.439
   326   1 H      0.860     0.211     1.053     1.607
   327   6 C      3.789     0.020    20.253     6.410
   328   1 H      0.925     0.073     2.051     2.240
   329   6 C      3.802    -0.072    21.875     6.659
   330   1 H      0.924     0.044     2.395     2.420
   331   1 H      0.925     0.079     1.992     2.207
   332   6 C      3.796    -0.079    22.022     6.682
   333   1 H      0.924     0.082     1.963     2.191
   334   1 H      0.925     0.054     2.277     2.360
   335   6 C      3.795    -0.096    22.339     6.730
   336   1 H      0.924     0.068     2.111     2.272
   337   1 H      0.925     0.088     1.895     2.153
   338   6 C      3.724    -0.053    21.639     6.643
   339   1 H      0.924     0.136     1.492     1.910
   340   1 H      0.925     0.119     1.623     1.992
   341   7 N      3.483    -0.166    24.577     7.363
   342   1 H      0.860     0.287     0.754     1.361
   343   1 H      0.860     0.299     0.715     1.325
   344   1 H      0.860     0.311     0.681     1.293
   345   6 C      2.760     0.269    22.450     7.759
   346   8 O      0.860    -0.541    24.722     6.666
   347   7 N      2.695    -0.169    24.656     7.375
   348   1 H      0.861     0.235     0.943     1.521
   349   6 C      3.804     0.051    19.725     6.323
   350   1 H      0.925     0.057     2.229     2.335
   351   6 C      3.818    -0.095    22.305     6.722
   352   1 H      0.925     0.031     2.568     2.506
   353   1 H      0.924     0.062     2.175     2.306
   354   6 C      2.690     0.362    20.866     7.476
   355   8 O      0.857    -0.636    27.019     6.969
   356   8 O      0.856    -0.637    27.042     6.972
   357   6 C      2.751     0.272    22.395     7.749
   358   8 O      0.859    -0.491    23.578     6.510
   359   7 N      2.683    -0.208    25.524     7.503
   360   1 H      0.860     0.228     0.975     1.546
   361   6 C      3.780     0.004    20.541     6.457
   362   1 H      0.924     0.100     1.787     2.090
   363   6 C      3.725     0.130    18.570     6.153
   364   1 H      0.925     0.021     2.716     2.577
   365   6 C      3.756    -0.142    23.290     6.881
   366   1 H      0.925     0.068     2.106     2.269
   367   1 H      0.925     0.077     2.007     2.216
   368   1 H      0.924     0.088     1.902     2.157
   369   8 O      1.659    -0.447    21.786     6.301
   370   1 H      0.806     0.320     0.664     1.280
   371   6 C      2.751     0.272    22.401     7.750
   372   8 O      0.862    -0.510    24.009     6.570
   373   7 N      2.683    -0.176    24.810     7.398
   374   1 H      0.860     0.180     1.216     1.728
   375   6 C      3.763     0.018    20.308     6.424
   376   1 H      0.925     0.084     1.943     2.180
   377   6 C      3.790    -0.050    21.478     6.600
   378   1 H      0.925     0.035     2.511     2.478
   379   1 H      0.925     0.045     2.378     2.412
   380   6 C      3.800    -0.092    22.261     6.718
   381   1 H      0.925     0.046     2.366     2.405
   382   1 H      0.925     0.038     2.481     2.463
   383   6 C      2.688     0.360    20.885     7.479
   384   8 O      0.856    -0.621    26.639     6.920
   385   8 O      0.857    -0.599    26.096     6.849
   386   6 C      2.741     0.277    22.316     7.735
   387   8 O      0.858    -0.483    23.411     6.487
   388   7 N      2.679    -0.198    25.297     7.470
   389   1 H      0.860     0.214     1.037     1.595
   390   6 C      3.739    -0.037    21.319     6.588
   391   1 H      0.924     0.108     1.711     2.046
   392   1 H      0.925     0.106     1.731     2.058
   393   6 C      2.745     0.285    22.164     7.709
   394   8 O      0.868    -0.453    22.762     6.397
   395   7 N      2.692    -0.165    24.564     7.361
   396   1 H      0.860     0.168     1.287     1.777
   397   6 C      3.776     0.025    20.174     6.399
   398   1 H      0.924     0.091     1.871     2.139
   399   6 C      3.806    -0.074    21.910     6.664
   400   1 H      0.925     0.064     2.155     2.296
   401   1 H      0.925     0.040     2.449     2.447
   402   6 C      2.959    -0.001    28.041     8.686
   403   6 C      2.920    -0.042    29.048     8.838
   404   1 H      0.926     0.029     2.601     2.522
   405   6 C      2.902    -0.059    29.458     8.899
   406   1 H      0.926     0.058     2.218     2.329
   407   6 C      2.837     0.144    24.857     8.170
   408   8 O      1.658    -0.440    21.639     6.280
   409   1 H      0.805     0.360     0.566     1.182
   410   6 C      2.903    -0.074    29.853     8.959
   411   1 H      0.926     0.064     2.153     2.294
   412   6 C      2.912    -0.037    28.930     8.820
   413   1 H      0.926     0.049     2.327     2.385
   414   6 C      2.739     0.250    22.803     7.818
   415   8 O      0.858    -0.532    24.506     6.637
   416   7 N      2.683    -0.138    23.991     7.275
   417   1 H      0.860     0.217     1.025     1.586
   418   6 C      3.790     0.017    20.297     6.416
   419   1 H      0.925     0.084     1.940     2.178
   420   6 C      3.814    -0.082    22.048     6.683
   421   1 H      0.925     0.083     1.950     2.184
   422   1 H      0.925     0.055     2.260     2.351
   423   6 C      2.952    -0.020    28.510     8.758
   424   6 C      2.903    -0.042    29.037     8.836
   425   1 H      0.926     0.031     2.569     2.507
   426   6 C      2.898    -0.071    29.760     8.945
   427   1 H      0.926     0.034     2.534     2.490
   428   6 C      2.834     0.138    24.974     8.189
   429   8 O      1.660    -0.402    20.885     6.169
   430   1 H      0.805     0.336     0.622     1.239
   431   6 C      2.900    -0.066    29.631     8.925
   432   1 H      0.926     0.086     1.918     2.166
   433   6 C      2.910    -0.047    29.169     8.856
   434   1 H      0.926     0.053     2.280     2.361
   435   6 C      2.741     0.272    22.397     7.749
   436   8 O      0.859    -0.485    23.462     6.494
   437   7 N      2.689    -0.167    24.616     7.369
   438   1 H      0.860     0.242     0.916     1.499
   439   6 C      3.787     0.009    20.444     6.440
   440   1 H      0.925     0.076     2.022     2.224
   441   6 C      3.729     0.131    18.540     6.147
   442   1 H      0.925     0.031     2.577     2.510
   443   6 C      3.757    -0.114    22.738     6.799
   444   1 H      0.925     0.049     2.326     2.385
   445   1 H      0.924     0.045     2.385     2.415
   446   1 H      0.925     0.053     2.280     2.361
   447   8 O      1.657    -0.483    22.527     6.407
   448   1 H      0.805     0.315     0.678     1.293
   449   6 C      2.744     0.255    22.715     7.804
   450   8 O      0.862    -0.470    23.136     6.449
   451   7 N      2.687    -0.154    24.323     7.325
   452   1 H      0.860     0.215     1.034     1.593
   453   6 C      3.790     0.013    20.373     6.428
   454   1 H      0.925     0.093     1.847     2.125
   455   6 C      3.842    -0.032    21.118     6.537
   456   1 H      0.925     0.070     2.083     2.257
   457   6 C      3.750    -0.127    23.001     6.840
   458   1 H      0.924     0.044     2.403     2.424
   459   1 H      0.925     0.044     2.395     2.420
   460   1 H      0.925     0.058     2.223     2.332
   461   6 C      3.794    -0.079    22.021     6.682
   462   1 H      0.925     0.049     2.339     2.391
   463   1 H      0.924     0.066     2.128     2.281
   464   6 C      3.748    -0.120    22.861     6.819
   465   1 H      0.925     0.051     2.303     2.373
   466   1 H      0.925     0.038     2.475     2.460
   467   1 H      0.924     0.048     2.341     2.393
   468   6 C      2.749     0.272    22.396     7.749
   469   8 O      0.860    -0.457    22.844     6.408
   470   7 N      2.681    -0.191    25.153     7.449
   471   1 H      0.860     0.230     0.967     1.540
   472   6 C      3.737    -0.020    21.008     6.541
   473   1 H      0.924     0.061     2.186     2.312
   474   1 H      0.925     0.101     1.775     2.083
   475   6 C      2.748     0.264    22.550     7.776
   476   8 O      0.859    -0.464    23.001     6.430
   477   7 N      2.689    -0.162    24.499     7.351
   478   1 H      0.860     0.189     1.164     1.690
   479   6 C      3.773     0.009    20.456     6.445
   480   1 H      0.924     0.082     1.962     2.191
   481   6 C      3.843    -0.023    20.956     6.512
   482   1 H      0.925     0.042     2.424     2.435
   483   6 C      3.751    -0.122    22.895     6.824
   484   1 H      0.925     0.059     2.211     2.326
   485   1 H      0.925     0.066     2.126     2.280
   486   1 H      0.924     0.025     2.660     2.550
   487   6 C      3.802    -0.068    21.805     6.648
   488   1 H      0.925     0.033     2.546     2.495
   489   1 H      0.925     0.059     2.210     2.325
   490   6 C      3.750    -0.112    22.702     6.795
   491   1 H      0.925     0.048     2.341     2.393
   492   1 H      0.925     0.038     2.471     2.458
   493   1 H      0.925     0.042     2.419     2.432
   494   6 C      2.746     0.275    22.347     7.741
   495   8 O      0.869    -0.462    22.952     6.424
   496   7 N      2.692    -0.172    24.720     7.384
   497   1 H      0.860     0.206     1.077     1.626
   498   6 C      3.741    -0.032    21.218     6.572
   499   1 H      0.925     0.092     1.855     2.130
   500   1 H      0.924     0.093     1.852     2.128
   501   6 C      2.745     0.267    22.484     7.764
   502   8 O      0.858    -0.518    24.180     6.593
   503   7 N      2.690    -0.170    24.673     7.377
   504   1 H      0.860     0.238     0.932     1.512
   505   6 C      3.802     0.033    20.020     6.370
   506   1 H      0.924     0.045     2.380     2.412
   507   6 C      3.814    -0.094    22.277     6.718
   508   1 H      0.924     0.124     1.584     1.968
   509   1 H      0.925     0.101     1.775     2.083
   510   6 C      3.062     0.053    26.744     8.481
   511   7 N      2.780    -0.027    21.769     6.930
   512   1 H      0.860     0.260     0.844     1.439
   513   6 C      2.987     0.058    26.698     8.476
   514   1 H      0.926     0.147     1.411     1.858
   515   7 N      2.782    -0.025    21.724     6.923
   516   1 H      0.860     0.273     0.801     1.402
   517   6 C      3.002    -0.005    28.142     8.702
   518   1 H      0.926     0.123     1.588     1.971
   519   6 C      2.763     0.273    22.388     7.749
   520   8 O      0.859    -0.478    23.311     6.473
   521   7 N      2.699    -0.159    24.445     7.343
   522   1 H      0.860     0.208     1.068     1.619
   523   6 C      3.795     0.027    20.125     6.388
   524   1 H      0.924     0.066     2.128     2.281
   525   6 C      3.801    -0.081    22.053     6.686
   526   1 H      0.924     0.058     2.221     2.331
   527   1 H      0.925     0.062     2.173     2.305
   528   6 C      3.844    -0.014    20.789     6.486
   529   1 H      0.925     0.032     2.552     2.498
   530   6 C      3.771    -0.113    22.689     6.788
   531   1 H      0.925     0.031     2.575     2.509
   532   1 H      0.925     0.045     2.383     2.414
   533   1 H      0.925     0.048     2.339     2.392
   534   6 C      3.764    -0.129    23.018     6.838
   535   1 H      0.924     0.044     2.396     2.421
   536   1 H      0.924     0.057     2.232     2.337
   537   1 H      0.925     0.039     2.460     2.453
   538   6 C      2.754     0.278    22.304     7.734
   539   8 O      0.860    -0.483    23.413     6.487
   540   7 N      2.680    -0.193    25.179     7.453
   541   1 H      0.860     0.229     0.971     1.544
   542   6 C      3.790     0.006    20.492     6.447
   543   1 H      0.925     0.087     1.911     2.162
   544   6 C      3.802    -0.075    21.931     6.667
   545   1 H      0.925     0.038     2.472     2.459
   546   1 H      0.924     0.063     2.164     2.301
   547   6 C      3.846    -0.019    20.889     6.501
   548   1 H      0.925     0.045     2.384     2.414
   549   6 C      3.756    -0.129    23.033     6.843
   550   1 H      0.925     0.062     2.181     2.309
   551   1 H      0.925     0.043     2.412     2.429
   552   1 H      0.924     0.069     2.101     2.266
   553   6 C      3.747    -0.118    22.832     6.816
   554   1 H      0.925     0.051     2.313     2.379
   555   1 H      0.925     0.018     2.771     2.603
   556   1 H      0.924     0.041     2.432     2.439
   557   6 C      2.748     0.277    22.320     7.736
   558   8 O      0.858    -0.494    23.656     6.521
   559   7 N      2.695    -0.170    24.676     7.378
   560   1 H      0.860     0.229     0.968     1.542
   561   6 C      3.793     0.006    20.478     6.444
   562   1 H      0.925     0.064     2.156     2.296
   563   6 C      3.726     0.118    18.745     6.182
   564   1 H      0.924     0.022     2.707     2.573
   565   6 C      3.759    -0.126    22.967     6.832
   566   1 H      0.924     0.040     2.451     2.448
   567   1 H      0.924     0.048     2.342     2.393
   568   1 H      0.925     0.080     1.983     2.202
   569   8 O      1.664    -0.458    22.012     6.334
   570   1 H      0.806     0.347     0.594     1.211
   571   6 C      2.744     0.264    22.539     7.773
   572   8 O      0.857    -0.441    22.516     6.362
   573   7 N      2.685    -0.191    25.137     7.446
   574   1 H      0.860     0.207     1.072     1.622
   575   6 C      3.782     0.008    20.458     6.443
   576   1 H      0.925     0.085     1.924     2.169
   577   6 C      3.803    -0.076    21.956     6.671
   578   1 H      0.925     0.065     2.140     2.288
   579   1 H      0.924     0.067     2.121     2.277
   580   6 C      3.785    -0.077    21.996     6.680
   581   1 H      0.925     0.048     2.348     2.396
   582   1 H      0.924     0.059     2.214     2.327
   583   6 C      3.791    -0.102    22.447     6.747
   584   1 H      0.925     0.085     1.926     2.170
   585   1 H      0.925     0.074     2.037     2.232
   586   6 C      3.735    -0.047    21.511     6.619
   587   1 H      0.925     0.104     1.747     2.067
   588   1 H      0.925     0.118     1.631     1.997
   589   7 N      3.494    -0.136    23.947     7.268
   590   1 H      0.860     0.303     0.705     1.315
   591   1 H      0.860     0.299     0.716     1.325
   592   1 H      0.860     0.301     0.709     1.319
   593   6 C      2.745     0.276    22.337     7.739
   594   8 O      0.861    -0.460    22.906     6.417
   595   7 N      2.684    -0.187    25.046     7.433
   596   1 H      0.860     0.214     1.039     1.597
   597   6 C      3.792     0.014    20.347     6.424
   598   1 H      0.925     0.074     2.040     2.234
   599   6 C      3.682     0.071    19.594     6.339
   600   1 H      0.925     0.038     2.481     2.463
   601   1 H      0.925     0.063     2.166     2.302
   602   8 O      1.657    -0.494    22.759     6.440
   603   1 H      0.806     0.350     0.589     1.205
   604   6 C      2.762     0.266    22.513     7.770
   605   8 O      0.862    -0.478    23.293     6.471
   606   7 N      2.742    -0.097    23.146     7.145
   607   6 C      3.761    -0.013    20.851     6.510
   608   1 H      0.925     0.066     2.129     2.282
   609   1 H      0.924     0.072     2.069     2.249
   610   6 C      3.798    -0.079    22.017     6.681
   611   1 H      0.924     0.077     2.006     2.215
   612   1 H      0.925     0.068     2.103     2.268
   613   6 C      3.819    -0.076    21.933     6.665
   614   1 H      0.925     0.070     2.083     2.257
   615   1 H      0.925     0.067     2.118     2.276
   616   6 C      3.801     0.014    20.343     6.422
   617   1 H      0.925     0.096     1.822     2.111
   618   6 C      2.749     0.271    22.420     7.753
   619   8 O      0.860    -0.479    23.330     6.476
   620   7 N      2.690    -0.155    24.357     7.330
   621   1 H      0.860     0.192     1.145     1.676
   622   6 C      3.783     0.014    20.351     6.426
   623   1 H      0.925     0.098     1.800     2.098
   624   6 C      3.673     0.060    19.795     6.376
   625   1 H      0.925     0.066     2.131     2.283
   626   1 H      0.925     0.059     2.213     2.326
   627   8 O      1.649    -0.486    22.593     6.416
   628   1 H      0.805     0.331     0.636     1.252
   629   6 C      2.755     0.250    22.803     7.820
   630   8 O      0.858    -0.502    23.824     6.544
   631   7 N      2.684    -0.157    24.395     7.336
   632   1 H      0.860     0.228     0.973     1.545
   633   6 C      3.778     0.005    20.511     6.452
   634   1 H      0.925     0.101     1.775     2.083
   635   6 C      3.792    -0.095    22.314     6.727
   636   1 H      0.925     0.060     2.201     2.320
   637   1 H      0.924     0.085     1.930     2.173
   638   6 C      3.837    -0.027    21.025     6.523
   639   1 H      0.925     0.049     2.337     2.391
   640   6 C      3.755    -0.136    23.163     6.862
   641   1 H      0.924     0.053     2.277     2.360
   642   1 H      0.925     0.062     2.174     2.306
   643   1 H      0.925     0.037     2.484     2.465
   644   6 C      3.752    -0.136    23.183     6.866
   645   1 H      0.925     0.052     2.292     2.368
   646   1 H      0.925     0.065     2.140     2.288
   647   1 H      0.925     0.045     2.384     2.414
   648   6 C      2.740     0.259    22.639     7.790
   649   8 O      0.858    -0.467    23.062     6.439
   650   7 N      2.691    -0.173    24.738     7.387
   651   1 H      0.860     0.221     1.004     1.570
   652   6 C      3.785     0.029    20.103     6.386
   653   1 H      0.924     0.104     1.749     2.068
   654   6 C      3.800    -0.121    22.817     6.801
   655   1 H      0.925     0.086     1.916     2.165
   656   1 H      0.925     0.101     1.775     2.084
   657   6 C      2.734     0.280    22.261     7.725
   658   8 O      0.859    -0.514    24.107     6.583
   659   7 N      2.636    -0.270    26.983     7.715
   660   1 H      0.860     0.244     0.908     1.493
   661   1 H      0.860     0.246     0.899     1.485
   662   6 C      2.748     0.272    22.394     7.749
   663   8 O      0.859    -0.484    23.428     6.489
   664   7 N      2.689    -0.168    24.637     7.372
   665   1 H      0.860     0.223     0.997     1.564
   666   6 C      3.787     0.019    20.265     6.412
   667   1 H      0.925     0.080     1.983     2.202
   668   6 C      3.753    -0.139    23.245     6.875
   669   1 H      0.925     0.085     1.928     2.172
   670   1 H      0.925     0.058     2.228     2.334
   671   1 H      0.924     0.077     2.011     2.218
   672   6 C      2.755     0.266    22.515     7.770
   673   8 O      0.859    -0.484    23.423     6.489
   674   7 N      2.687    -0.178    24.860     7.405
   675   1 H      0.860     0.229     0.971     1.544
   676   6 C      3.803     0.030    20.073     6.379
   677   1 H      0.924     0.067     2.119     2.277
   678   6 C      3.756    -0.142    23.295     6.882
   679   1 H      0.925     0.078     1.998     2.210
   680   1 H      0.925     0.097     1.815     2.107
   681   1 H      0.925     0.074     2.047     2.237
   682   6 C      2.752     0.263    22.565     7.778
   683   8 O      0.857    -0.513    24.075     6.578
   684   7 N      2.684    -0.182    24.951     7.419
   685   1 H      0.860     0.238     0.932     1.512
   686   6 C      3.781     0.004    20.537     6.456
   687   1 H      0.925     0.090     1.880     2.144
   688   6 C      3.807    -0.082    22.059     6.686
   689   1 H      0.924     0.053     2.282     2.362
   690   1 H      0.925     0.064     2.158     2.298
   691   6 C      3.801    -0.081    22.053     6.686
   692   1 H      0.924     0.089     1.889     2.149
   693   1 H      0.925     0.056     2.246     2.344
   694   6 C      3.804    -0.095    22.304     6.723
   695   1 H      0.925     0.066     2.127     2.281
   696   1 H      0.925     0.084     1.940     2.178
   697   6 C      3.731    -0.050    21.560     6.628
   698   1 H      0.925     0.130     1.533     1.936
   699   1 H      0.924     0.104     1.748     2.068
   700   7 N      3.488    -0.140    24.015     7.278
   701   1 H      0.860     0.298     0.719     1.328
   702   1 H      0.860     0.293     0.735     1.343
   703   1 H      0.860     0.301     0.711     1.321
   704   6 C      2.761     0.279    22.284     7.730
   705   8 O      0.863    -0.529    24.427     6.627
   706   7 N      2.696    -0.148    24.198     7.306
   707   1 H      0.860     0.228     0.975     1.547
   708   6 C      3.805     0.022    20.202     6.399
   709   1 H      0.924     0.097     1.813     2.106
   710   6 C      3.681     0.063    19.728     6.361
   711   1 H      0.925     0.072     2.066     2.248
   712   1 H      0.925     0.047     2.355     2.400
   713   8 O      1.654    -0.492    22.724     6.435
   714   1 H      0.806     0.348     0.593     1.209
   715   6 C      2.751     0.261    22.605     7.785
   716   8 O      0.862    -0.499    23.756     6.535
   717   7 N      2.683    -0.195    25.230     7.460
   718   1 H      0.860     0.232     0.956     1.532
   719   6 C      3.779     0.035    20.008     6.373
   720   1 H      0.925     0.065     2.138     2.287
   721   6 C      3.803    -0.053    21.532     6.606
   722   1 H      0.925     0.038     2.470     2.458
   723   1 H      0.925     0.061     2.192     2.315
   724   6 C      3.803    -0.087    22.163     6.702
   725   1 H      0.924     0.034     2.527     2.486
   726   1 H      0.925     0.049     2.330     2.387
   727   6 C      2.688     0.358    20.918     7.485
   728   8 O      0.856    -0.656    27.536     7.035
   729   8 O      0.856    -0.660    27.639     7.049
   730   6 C      2.745     0.262    22.578     7.780
   731   8 O      0.857    -0.518    24.196     6.595
   732   7 N      2.682    -0.174    24.761     7.390
   733   1 H      0.860     0.224     0.993     1.561
   734   6 C      3.790     0.022    20.210     6.403
   735   1 H      0.924     0.078     1.996     2.210
   736   6 C      3.815    -0.080    22.015     6.678
   737   1 H      0.924     0.049     2.334     2.389
   738   1 H      0.924     0.086     1.916     2.165
   739   6 C      3.854    -0.016    20.824     6.490
   740   1 H      0.925     0.033     2.539     2.492
   741   6 C      3.764    -0.113    22.712     6.793
   742   1 H      0.925     0.029     2.607     2.525
   743   1 H      0.924     0.049     2.338     2.391
   744   1 H      0.925     0.061     2.192     2.315
   745   6 C      3.762    -0.127    22.988     6.835
   746   1 H      0.925     0.067     2.123     2.279
   747   1 H      0.924     0.070     2.086     2.259
   748   1 H      0.925     0.026     2.639     2.540
   749   6 C      2.751     0.267    22.497     7.767
   750   8 O      0.858    -0.521    24.254     6.603
   751   7 N      2.687    -0.187    25.057     7.434
   752   1 H      0.860     0.229     0.971     1.544
   753   6 C      3.780     0.039    19.934     6.361
   754   1 H      0.924     0.073     2.058     2.243
   755   6 C      3.812    -0.081    22.042     6.683
   756   1 H      0.924     0.030     2.590     2.517
   757   1 H      0.925     0.038     2.472     2.459
   758   6 C      2.693     0.384    20.506     7.411
   759   8 O      0.863    -0.621    26.625     6.918
   760   8 O      0.858    -0.648    27.317     7.007
   761   6 C      2.748     0.267    22.495     7.766
   762   8 O      0.859    -0.493    23.631     6.518
   763   7 N      2.690    -0.192    25.160     7.450
   764   1 H      0.860     0.200     1.107     1.648
   765   6 C      3.794     0.027    20.127     6.389
   766   1 H      0.925     0.086     1.916     2.165
   767   6 C      3.809    -0.070    21.831     6.651
   768   1 H      0.925     0.065     2.136     2.285
   769   1 H      0.925     0.056     2.244     2.343
   770   6 C      3.798    -0.079    22.018     6.681
   771   1 H      0.925     0.056     2.250     2.346
   772   1 H      0.924     0.064     2.157     2.297
   773   6 C      3.800    -0.097    22.343     6.730
   774   1 H      0.925     0.087     1.913     2.163
   775   1 H      0.925     0.070     2.087     2.259
   776   6 C      3.731    -0.048    21.533     6.624
   777   1 H      0.925     0.115     1.651     2.010
   778   1 H      0.924     0.133     1.512     1.923
   779   7 N      3.488    -0.142    24.068     7.286
   780   1 H      0.860     0.288     0.750     1.356
   781   1 H      0.860     0.291     0.742     1.349
   782   1 H      0.860     0.283     0.766     1.371
   783   6 C      2.755     0.261    22.606     7.786
   784   8 O      0.860    -0.549    24.895     6.690
   785   7 N      2.697    -0.176    24.809     7.398
   786   1 H      0.860     0.229     0.972     1.544
   787   6 C      3.802     0.029    20.094     6.382
   788   1 H      0.924     0.081     1.971     2.195
   789   6 C      3.753    -0.132    23.098     6.853
   790   1 H      0.925     0.058     2.223     2.332
   791   1 H      0.925     0.077     2.007     2.215
   792   1 H      0.925     0.091     1.870     2.138
   793   6 C      2.760     0.283    22.200     7.716
   794   8 O      0.858    -0.505    23.896     6.554
   795   7 N      2.693    -0.173    24.744     7.388
   796   1 H      0.860     0.208     1.068     1.619
   797   6 C      3.790     0.010    20.415     6.435
   798   1 H      0.925     0.082     1.962     2.190
   799   6 C      3.853    -0.014    20.785     6.484
   800   1 H      0.924     0.035     2.518     2.482
   801   6 C      3.756    -0.107    22.601     6.778
   802   1 H      0.925     0.063     2.159     2.298
   803   1 H      0.925     0.047     2.364     2.404
   804   1 H      0.924     0.024     2.668     2.554
   805   6 C      3.806    -0.066    21.758     6.640
   806   1 H      0.925     0.055     2.263     2.353
   807   1 H      0.924     0.042     2.421     2.433
   808   6 C      3.749    -0.113    22.725     6.799
   809   1 H      0.924     0.041     2.437     2.441
   810   1 H      0.925     0.038     2.476     2.461
   811   1 H      0.925     0.055     2.257     2.350
   812   6 C      2.737     0.277    22.320     7.735
   813   8 O      0.865    -0.461    22.925     6.420
   814   7 N      2.687    -0.180    24.895     7.410
   815   1 H      0.860     0.189     1.162     1.689
   816   6 C      3.736    -0.025    21.111     6.557
   817   1 H      0.925     0.105     1.739     2.062
   818   1 H      0.924     0.086     1.921     2.167
   819   6 C      2.742     0.270    22.440     7.756
   820   8 O      0.862    -0.511    24.033     6.573
   821   7 N      2.684    -0.167    24.616     7.369
   822   1 H      0.860     0.195     1.131     1.666
   823   6 C      3.779     0.010    20.424     6.438
   824   1 H      0.924     0.083     1.945     2.181
   825   6 C      3.792    -0.083    22.088     6.693
   826   1 H      0.925     0.076     2.018     2.222
   827   1 H      0.924     0.080     1.984     2.203
   828   6 C      3.788    -0.076    21.959     6.674
   829   1 H      0.925     0.050     2.319     2.381
   830   1 H      0.925     0.054     2.271     2.357
   831   6 C      3.739    -0.024    21.091     6.553
   832   1 H      0.925     0.083     1.944     2.181
   833   1 H      0.924     0.082     1.963     2.191
   834   7 N      2.718    -0.148    24.190     7.305
   835   1 H      0.860     0.243     0.911     1.495
   836   6 C      2.741     0.241    22.974     7.848
   837   7 N      2.667    -0.254    26.599     7.660
   838   1 H      0.860     0.250     0.885     1.473
   839   1 H      0.860     0.232     0.957     1.533
   840   7 N      2.680    -0.280    27.238     7.751
   841   1 H      0.860     0.238     0.932     1.513
   842   1 H      0.860     0.238     0.930     1.510
   843   6 C      2.757     0.275    22.350     7.742
   844   8 O      0.858    -0.480    23.340     6.477
   845   7 N      2.688    -0.173    24.736     7.387
   846   1 H      0.860     0.228     0.972     1.544
   847   6 C      3.795     0.037    19.953     6.361
   848   1 H      0.925     0.069     2.094     2.263
   849   6 C      3.809    -0.105    22.488     6.750
   850   1 H      0.924     0.091     1.867     2.137
   851   1 H      0.925     0.071     2.076     2.253
   852   6 C      2.745     0.297    21.967     7.674
   853   8 O      0.871    -0.496    23.694     6.527
   854   7 N      2.645    -0.292    27.529     7.792
   855   1 H      0.860     0.257     0.857     1.450
   856   1 H      0.860     0.226     0.980     1.551
   857   6 C      2.738     0.268    22.469     7.761
   858   8 O      0.862    -0.489    23.540     6.505
   859   7 N      2.685    -0.183    24.959     7.420
   860   1 H      0.860     0.207     1.073     1.623
   861   6 C      3.815     0.017    20.282     6.410
   862   1 H      0.925     0.102     1.769     2.080
   863   6 C      3.804    -0.009    20.743     6.484
   864   1 H      0.924     0.103     1.759     2.074
   865   1 H      0.925     0.041     2.439     2.442
   866  16 S      1.931    -0.253   151.929    20.746
   867   1 H      0.923     0.149     1.401     1.851
   868   6 C      2.747     0.262    22.581     7.781
   869   8 O      0.858    -0.465    23.030     6.434
   870   7 N      2.687    -0.162    24.516     7.354
   871   1 H      0.860     0.209     1.062     1.614
   872   6 C      3.792     0.024    20.172     6.396
   873   1 H      0.925     0.093     1.847     2.125
   874   6 C      3.814    -0.104    22.477     6.748
   875   1 H      0.924     0.092     1.862     2.134
   876   1 H      0.925     0.087     1.908     2.160
   877   6 C      2.747     0.291    22.067     7.692
   878   8 O      0.874    -0.487    23.499     6.500
   879   7 N      2.655    -0.285    27.343     7.766
   880   1 H      0.860     0.256     0.859     1.452
   881   1 H      0.860     0.224     0.993     1.561
   882   6 C      2.746     0.264    22.552     7.776
   883   8 O      0.858    -0.410    21.885     6.272
   884   7 N      2.683    -0.184    24.978     7.423
   885   1 H      0.860     0.168     1.288     1.778
   886   6 C      3.740    -0.037    21.310     6.587
   887   1 H      0.924     0.120     1.616     1.988
   888   1 H      0.924     0.086     1.914     2.164
   889   6 C      2.747     0.266    22.506     7.768
   890   8 O      0.860    -0.471    23.146     6.450
   891   7 N      2.684    -0.137    23.975     7.272
   892   1 H      0.860     0.182     1.204     1.719
   893   6 C      3.770    -0.001    20.631     6.473
   894   1 H      0.924     0.077     2.008     2.216
   895   6 C      3.848    -0.018    20.854     6.496
   896   1 H      0.925     0.059     2.205     2.322
   897   6 C      3.755    -0.131    23.063     6.848
   898   1 H      0.925     0.069     2.100     2.266
   899   1 H      0.925     0.071     2.075     2.253
   900   1 H      0.925     0.045     2.379     2.412
   901   6 C      3.757    -0.119    22.836     6.813
   902   1 H      0.925     0.039     2.457     2.451
   903   1 H      0.925     0.055     2.261     2.351
   904   1 H      0.925     0.019     2.744     2.590
   905   6 C      2.728     0.270    22.437     7.755
   906   8 O      0.863    -0.475    23.232     6.462
   907   7 N      2.689    -0.154    24.324     7.325
   908   1 H      0.860     0.223     0.998     1.565
   909   6 C      3.786     0.010    20.432     6.438
   910   1 H      0.925     0.072     2.063     2.246
   911   6 C      3.846    -0.023    20.949     6.510
   912   1 H      0.925     0.034     2.534     2.489
   913   6 C      3.756    -0.124    22.934     6.828
   914   1 H      0.925     0.048     2.343     2.394
   915   1 H      0.925     0.043     2.408     2.427
   916   1 H      0.924     0.043     2.409     2.427
   917   6 C      3.802    -0.066    21.764     6.642
   918   1 H      0.925     0.044     2.391     2.418
   919   1 H      0.925     0.063     2.168     2.302
   920   6 C      3.748    -0.121    22.880     6.822
   921   1 H      0.925     0.055     2.253     2.347
   922   1 H      0.925     0.050     2.314     2.379
   923   1 H      0.924     0.031     2.571     2.507
   924   6 C      2.761     0.272    22.398     7.750
   925   8 O      0.861    -0.478    23.311     6.473
   926   7 N      2.688    -0.171    24.698     7.381
   927   1 H      0.860     0.209     1.059     1.612
   928   6 C      3.792     0.013    20.361     6.426
   929   1 H      0.924     0.087     1.906     2.159
   930   6 C      3.724     0.101    19.019     6.227
   931   1 H      0.925     0.048     2.339     2.392
   932   6 C      3.753    -0.140    23.249     6.876
   933   1 H      0.924     0.074     2.043     2.235
   934   1 H      0.924     0.070     2.087     2.259
   935   1 H      0.924     0.069     2.093     2.262
   936   8 O      1.652    -0.542    23.811     6.587
   937   1 H      0.806     0.327     0.644     1.261
   938   6 C      2.749     0.280    22.252     7.724
   939   8 O      0.862    -0.482    23.396     6.485
   940   7 N      2.685    -0.188    25.070     7.436
   941   1 H      0.860     0.212     1.049     1.604
   942   6 C      3.791     0.008    20.454     6.441
   943   1 H      0.925     0.112     1.679     2.027
   944   6 C      3.802    -0.093    22.264     6.718
   945   1 H      0.925     0.058     2.220     2.330
   946   1 H      0.925     0.095     1.834     2.118
   947   6 C      3.796    -0.081    22.055     6.687
   948   1 H      0.925     0.071     2.072     2.251
   949   1 H      0.925     0.044     2.400     2.422
   950   6 C      3.805    -0.103    22.465     6.748
   951   1 H      0.924     0.070     2.090     2.261
   952   1 H      0.925     0.105     1.741     2.063
   953   6 C      3.734    -0.060    21.742     6.655
   954   1 H      0.924     0.135     1.495     1.912
   955   1 H      0.925     0.136     1.489     1.908
   956   7 N      3.491    -0.142    24.067     7.286
   957   1 H      0.860     0.280     0.775     1.379
   958   1 H      0.860     0.285     0.760     1.365
   959   1 H      0.860     0.290     0.744     1.351
   960   6 C      2.752     0.281    22.240     7.722
   961   8 O      0.864    -0.483    23.410     6.487
   962   7 N      2.687    -0.189    25.088     7.439
   963   1 H      0.860     0.198     1.118     1.656
   964   6 C      3.785     0.035    19.997     6.370
   965   1 H      0.925     0.082     1.955     2.187
   966   6 C      3.799    -0.095    22.307     6.725
   967   1 H      0.924     0.030     2.590     2.517
   968   1 H      0.925     0.066     2.135     2.285
   969   6 C      2.688     0.355    20.976     7.495
   970   8 O      0.856    -0.611    26.384     6.887
   971   8 O      0.855    -0.681    28.208     7.121
   972   6 C      2.753     0.278    22.303     7.733
   973   8 O      0.863    -0.511    24.016     6.571
   974   7 N      2.688    -0.172    24.733     7.386
   975   1 H      0.860     0.210     1.057     1.610
   976   6 C      3.783     0.026    20.153     6.395
   977   1 H      0.925     0.076     2.017     2.221
   978   6 C      3.804    -0.063    21.708     6.633
   979   1 H      0.924     0.043     2.409     2.427
   980   1 H      0.925     0.066     2.136     2.285
   981   6 C      3.795    -0.098    22.372     6.735
   982   1 H      0.925     0.036     2.508     2.477
   983   1 H      0.925     0.022     2.704     2.572
   984   6 C      2.681     0.369    20.749     7.454
   985   8 O      0.857    -0.584    25.720     6.799
   986   8 O      0.857    -0.590    25.863     6.818
   987   6 C      2.749     0.263    22.569     7.779
   988   8 O      0.857    -0.491    23.590     6.512
   989   7 N      2.702    -0.199    25.332     7.475
   990   1 H      0.860     0.233     0.953     1.529
   991   6 C      3.800     0.022    20.209     6.401
   992   1 H      0.924     0.079     1.989     2.206
   993   6 C      3.771    -0.137    23.171     6.860
   994   1 H      0.925     0.086     1.922     2.168
   995   1 H      0.924     0.081     1.973     2.197
   996   1 H      0.924     0.081     1.971     2.195
   997   6 C      2.764     0.281    22.248     7.724
   998   8 O      0.864    -0.498    23.729     6.531
   999   7 N      2.692    -0.188    25.086     7.439
  1000   1 H      0.860     0.232     0.957     1.532
  1001   6 C      3.796     0.027    20.129     6.388
  1002   1 H      0.925     0.082     1.962     2.191
  1003   6 C      3.800    -0.062    21.694     6.632
  1004   1 H      0.925     0.042     2.425     2.435
  1005   1 H      0.925     0.090     1.874     2.141
  1006   6 C      3.802    -0.089    22.197     6.708
  1007   1 H      0.925     0.044     2.399     2.422
  1008   1 H      0.925     0.012     2.860     2.645
  1009   6 C      2.690     0.361    20.879     7.478
  1010   8 O      0.857    -0.605    26.250     6.869
  1011   8 O      0.858    -0.619    26.597     6.914
  1012   6 C      2.751     0.262    22.577     7.781
  1013   8 O      0.861    -0.497    23.712     6.529
  1014   7 N      2.684    -0.174    24.771     7.392
  1015   1 H      0.860     0.209     1.059     1.612
  1016   6 C      3.794     0.021    20.229     6.405
  1017   1 H      0.924     0.097     1.815     2.107
  1018   6 C      3.805    -0.079    22.004     6.678
  1019   1 H      0.925     0.075     2.030     2.228
  1020   1 H      0.925     0.066     2.133     2.284
  1021   6 C      3.797    -0.077    21.980     6.676
  1022   1 H      0.924     0.061     2.185     2.312
  1023   1 H      0.925     0.053     2.277     2.360
  1024   6 C      3.799    -0.091    22.239     6.715
  1025   1 H      0.924     0.066     2.130     2.283
  1026   1 H      0.925     0.084     1.938     2.177
  1027   6 C      3.728    -0.035    21.309     6.590
  1028   1 H      0.924     0.111     1.687     2.031
  1029   1 H      0.925     0.097     1.810     2.104
  1030   7 N      3.483    -0.150    24.224     7.310
  1031   1 H      0.860     0.296     0.725     1.334
  1032   1 H      0.860     0.306     0.696     1.307
  1033   1 H      0.860     0.302     0.706     1.316
  1034   6 C      2.752     0.268    22.478     7.763
  1035   8 O      0.859    -0.497    23.714     6.529
  1036   7 N      2.699    -0.194    25.205     7.456
  1037   1 H      0.860     0.210     1.056     1.610
  1038   6 C      3.793     0.021    20.235     6.406
  1039   1 H      0.925     0.068     2.111     2.272
  1040   6 C      3.823    -0.085    22.111     6.691
  1041   1 H      0.925     0.065     2.137     2.286
  1042   1 H      0.925     0.067     2.124     2.279
  1043   6 C      3.851    -0.017    20.846     6.494
  1044   1 H      0.925     0.032     2.563     2.504
  1045   6 C      3.763    -0.134    23.127     6.855
  1046   1 H      0.924     0.042     2.427     2.436
  1047   1 H      0.924     0.067     2.118     2.276
  1048   1 H      0.925     0.063     2.166     2.302
  1049   6 C      3.759    -0.124    22.927     6.826
  1050   1 H      0.925     0.024     2.669     2.555
  1051   1 H      0.924     0.057     2.233     2.337
  1052   1 H      0.924     0.049     2.337     2.391
  1053   6 C      2.763     0.293    22.025     7.686
  1054   8 O      0.863    -0.502    23.831     6.545
  1055   7 N      2.692    -0.194    25.209     7.457
  1056   1 H      0.860     0.232     0.958     1.533
  1057   6 C      3.790     0.029    20.090     6.383
  1058   1 H      0.924     0.068     2.106     2.270
  1059   6 C      3.802    -0.080    22.029     6.682
  1060   1 H      0.925     0.065     2.144     2.290
  1061   1 H      0.924     0.074     2.038     2.232
  1062   6 C      2.959     0.008    27.849     8.656
  1063   6 C      2.901    -0.039    28.965     8.824
  1064   1 H      0.926     0.030     2.588     2.516
  1065   6 C      2.903    -0.042    29.032     8.835
  1066   1 H      0.926     0.050     2.321     2.382
  1067   6 C      2.901    -0.038    28.944     8.821
  1068   1 H      0.926     0.044     2.402     2.423
  1069   6 C      2.909    -0.037    28.923     8.819
  1070   1 H      0.926     0.058     2.226     2.333
  1071   6 C      2.916    -0.042    29.034     8.836
  1072   1 H      0.926     0.044     2.393     2.419
  1073   6 C      2.751     0.264    22.543     7.775
  1074   8 O      0.857    -0.537    24.623     6.653
  1075   7 N      2.689    -0.181    24.920     7.414
  1076   1 H      0.860     0.255     0.865     1.457
  1077   6 C      3.792     0.038    19.938     6.359
  1078   1 H      0.925     0.078     2.005     2.214
  1079   6 C      3.824    -0.105    22.482     6.747
  1080   1 H      0.925     0.065     2.137     2.286
  1081   1 H      0.924     0.103     1.758     2.074
  1082   6 C      2.750     0.296    21.984     7.677
  1083   8 O      0.865    -0.495    23.671     6.523
  1084   7 N      2.643    -0.291    27.501     7.789
  1085   1 H      0.860     0.241     0.921     1.503
  1086   1 H      0.860     0.238     0.932     1.512
  1087   6 C      2.751     0.265    22.524     7.771
  1088   8 O      0.859    -0.499    23.756     6.535
  1089   7 N      2.685    -0.172    24.712     7.383
  1090   1 H      0.860     0.219     1.014     1.577
  1091   6 C      3.795     0.018    20.285     6.413
  1092   1 H      0.925     0.084     1.936     2.176
  1093   6 C      3.801    -0.055    21.566     6.612
  1094   1 H      0.925     0.053     2.281     2.362
  1095   1 H      0.924     0.048     2.347     2.396
  1096   6 C      3.799    -0.107    22.537     6.759
  1097   1 H      0.924     0.090     1.880     2.144
  1098   1 H      0.925     0.071     2.078     2.254
  1099   6 C      2.737     0.292    22.054     7.689
  1100   8 O      0.861    -0.515    24.126     6.585
  1101   7 N      2.638    -0.280    27.240     7.751
  1102   1 H      0.860     0.236     0.938     1.517
  1103   1 H      0.860     0.238     0.930     1.510
  1104   6 C      2.757     0.274    22.359     7.743
  1105   8 O      0.860    -0.489    23.551     6.507
  1106   7 N      2.683    -0.183    24.960     7.420
  1107   1 H      0.860     0.206     1.074     1.623
  1108   6 C      3.788     0.041    19.905     6.354
  1109   1 H      0.925     0.075     2.028     2.227
  1110   6 C      3.802    -0.083    22.087     6.691
  1111   1 H      0.925     0.040     2.444     2.445
  1112   1 H      0.925     0.051     2.313     2.378
  1113   6 C      2.690     0.380    20.561     7.421
  1114   8 O      0.859    -0.605    26.230     6.867
  1115   8 O      0.859    -0.633    26.951     6.960
  1116   6 C      2.743     0.257    22.664     7.795
  1117   8 O      0.856    -0.510    24.002     6.568
  1118   7 N      2.683    -0.175    24.795     7.395
  1119   1 H      0.860     0.215     1.032     1.591
  1120   6 C      3.785     0.028    20.122     6.390
  1121   1 H      0.924     0.086     1.923     2.168
  1122   6 C      3.841    -0.021    20.915     6.506
  1123   1 H      0.925     0.039     2.459     2.452
  1124   6 C      3.767    -0.116    22.751     6.798
  1125   1 H      0.924     0.057     2.240     2.341
  1126   1 H      0.924     0.059     2.214     2.327
  1127   1 H      0.925     0.036     2.496     2.471
  1128   6 C      3.776    -0.126    22.936     6.823
  1129   1 H      0.924     0.049     2.333     2.389
  1130   1 H      0.925     0.064     2.149     2.292
  1131   1 H      0.925     0.058     2.224     2.332
  1132   6 C      2.746     0.264    22.553     7.776
  1133   8 O      0.857    -0.489    23.537     6.505
  1134   7 N      2.688    -0.198    25.303     7.471
  1135   1 H      0.860     0.210     1.056     1.610
  1136   6 C      3.788     0.050    19.754     6.330
  1137   1 H      0.924     0.084     1.938     2.177
  1138   6 C      3.810    -0.094    22.280     6.719
  1139   1 H      0.924     0.033     2.551     2.498
  1140   1 H      0.925     0.052     2.295     2.369
  1141   6 C      2.687     0.363    20.845     7.472
  1142   8 O      0.857    -0.603    26.192     6.862
  1143   8 O      0.856    -0.607    26.286     6.874
  1144   6 C      2.751     0.270    22.440     7.757
  1145   8 O      0.858    -0.482    23.393     6.485
  1146   7 N      2.677    -0.196    25.258     7.464
  1147   1 H      0.860     0.202     1.094     1.638
  1148   6 C      3.772     0.029    20.115     6.391
  1149   1 H      0.925     0.102     1.767     2.079
  1150   6 C      3.743    -0.126    23.005     6.843
  1151   1 H      0.925     0.073     2.058     2.243
  1152   1 H      0.925     0.045     2.387     2.416
  1153   1 H      0.925     0.087     1.905     2.158
  1154   6 C      2.746     0.262    22.574     7.780
  1155   8 O      0.859    -0.530    24.463     6.631
  1156   7 N      2.683    -0.173    24.747     7.388
  1157   1 H      0.860     0.198     1.115     1.654
  1158   6 C      3.789     0.038    19.955     6.362
  1159   1 H      0.924     0.067     2.118     2.276
  1160   6 C      3.757    -0.114    22.738     6.799
  1161   1 H      0.925     0.061     2.185     2.312
  1162   1 H      0.924     0.059     2.210     2.325
  1163   1 H      0.925     0.056     2.248     2.345
  1164   6 C      2.749     0.281    22.234     7.721
  1165   8 O      0.865    -0.481    23.373     6.482
  1166   7 N      2.679    -0.187    25.060     7.435
  1167   1 H      0.860     0.213     1.041     1.598
  1168   6 C      3.792     0.015    20.333     6.421
  1169   1 H      0.924     0.095     1.827     2.114
  1170   6 C      3.842    -0.027    21.018     6.522
  1171   1 H      0.924     0.050     2.322     2.383
  1172   6 C      3.742    -0.121    22.891     6.826
  1173   1 H      0.925     0.057     2.234     2.337
  1174   1 H      0.924     0.045     2.380     2.412
  1175   1 H      0.925     0.030     2.586     2.515
  1176   6 C      3.751    -0.130    23.057     6.848
  1177   1 H      0.924     0.065     2.144     2.290
  1178   1 H      0.925     0.054     2.272     2.357
  1179   1 H      0.925     0.071     2.070     2.250
  1180   6 C      2.759     0.277    22.307     7.734
  1181   8 O      0.860    -0.496    23.699     6.527
  1182   7 N      2.691    -0.185    24.999     7.426
  1183   1 H      0.860     0.218     1.019     1.581
  1184   6 C      3.803     0.017    20.282     6.412
  1185   1 H      0.925     0.098     1.802     2.099
  1186   6 C      3.810    -0.086    22.140     6.698
  1187   1 H      0.925     0.096     1.822     2.111
  1188   1 H      0.924     0.056     2.252     2.347
  1189   6 C      3.788    -0.083    22.101     6.696
  1190   1 H      0.925     0.045     2.377     2.411
  1191   1 H      0.924     0.079     1.986     2.204
  1192   6 C      3.723    -0.034    21.298     6.590
  1193   1 H      0.924     0.085     1.929     2.172
  1194   1 H      0.925     0.111     1.689     2.032
  1195   7 N      2.715    -0.140    24.028     7.280
  1196   1 H      0.860     0.218     1.016     1.579
  1197   6 C      2.734     0.239    23.007     7.853
  1198   7 N      2.655    -0.249    26.492     7.644
  1199   1 H      0.860     0.248     0.890     1.478
  1200   1 H      0.860     0.252     0.874     1.464
  1201   7 N      2.676    -0.276    27.140     7.737
  1202   1 H      0.860     0.241     0.918     1.501
  1203   1 H      0.860     0.230     0.965     1.538
  1204   6 C      2.752     0.263    22.557     7.777
  1205   8 O      0.862    -0.474    23.217     6.460
  1206   7 N      2.686    -0.164    24.544     7.358
  1207   1 H      0.860     0.203     1.092     1.637
  1208   6 C      3.746    -0.018    20.970     6.532
  1209   1 H      0.925     0.083     1.946     2.181
  1210   1 H      0.924     0.095     1.832     2.117
  1211   6 C      2.752     0.272    22.404     7.751
  1212   8 O      0.859    -0.510    24.017     6.571
  1213   7 N      2.683    -0.192    25.163     7.450
  1214   1 H      0.860     0.213     1.043     1.600
  1215   6 C      3.792     0.025    20.162     6.394
[...]
  2283  H   0.988        C 2281 0.949
  2284  C   3.945        O 2285 1.620    N 2286 1.343    C 2281 0.953
  2285  O   1.939        C 2284 1.620    N 2286 0.194
  2286  N   3.414        C 2284 1.343    H 2288 0.920    H 2287 0.917    O 2285 0.194
  2287  H   0.945        N 2286 0.917
  2288  H   0.945        N 2286 0.920
  2289  C   3.952        O 2290 1.620    N 2291 1.337    C 2279 0.917
  2290  O   1.946        C 2289 1.620    N 2291 0.198
  2291  N   3.496        C 2289 1.337    C 2293 0.966    H 2292 0.922    O 2290 0.198
  2292  H   0.961        N 2291 0.922
  2293  C   3.952        C 2295 0.978    N 2291 0.966    H 2294 0.951    C 2313 0.932
  2294  H   0.991        C 2293 0.951
  2295  C   3.984        C 2298 1.003    C 2293 0.978    H 2297 0.969    H 2296 0.966
  2296  H   0.995        C 2295 0.966
  2297  H   0.995        C 2295 0.969
  2298  C   3.986        C 2301 1.009    C 2295 1.003    H 2300 0.973    H 2299 0.968
  2299  H   0.994        C 2298 0.968
  2300  H   0.994        C 2298 0.973
  2301  C   3.956        C 2298 1.009    N 2304 0.979    H 2303 0.963    H 2302 0.957
  2302  H   0.992        C 2301 0.957
  2303  H   0.996        C 2301 0.963
  2304  N   3.454        C 2306 1.332    C 2301 0.979    H 2305 0.851    N 2310 0.107
  2305  H   0.931        N 2304 0.851
  2306  C   3.977        N 2304 1.332    N 2310 1.325    N 2307 1.289
  2307  N   3.380        C 2306 1.289    H 2309 0.927    H 2308 0.927
  2308  H   0.951        N 2307 0.927
  2309  H   0.950        N 2307 0.927
  2310  N   3.402        C 2306 1.325    H 2311 0.928    H 2312 0.878    N 2304 0.107
  2311  H   0.953        N 2310 0.928
  2312  H   0.933        N 2310 0.878
  2313  C   3.956        O 2314 1.604    N 2315 1.337    C 2293 0.932
  2314  O   1.974        C 2313 1.604    N 2315 0.208
  2315  N   3.486        C 2313 1.337    C 2317 0.953    H 2316 0.900    O 2314 0.208
  2316  H   0.947        N 2315 0.900
  2317  C   3.960        C 2319 1.002    C 2323 0.966    N 2315 0.953    H 2318 0.936
  2318  H   0.991        C 2317 0.936
  2319  C   3.981        C 2317 1.002    H 2321 0.976    H 2322 0.974    H 2320 0.970
  2320  H   0.992        C 2319 0.970
  2321  H   0.996        C 2319 0.976
  2322  H   0.994        C 2319 0.974
  2323  C   3.957        O 2324 1.606    N 2325 1.298    C 2317 0.966
  2324  O   1.971        C 2323 1.606    N 2325 0.198
  2325  N   3.465        C 2323 1.298    C 2327 0.972    H 2326 0.903    O 2324 0.198
  2326  H   0.948        N 2325 0.903
  2327  C   3.958        C 2329 0.984    N 2325 0.972    C 2345 0.940    H 2328 0.938
  2328  H   0.990        C 2327 0.938
  2329  C   3.978        C 2332 1.000    C 2327 0.984    H 2331 0.971    H 2330 0.968
  2330  H   0.994        C 2329 0.968
  2331  H   0.995        C 2329 0.971
  2332  C   3.985        C 2329 1.000    C 2335 0.999    H 2334 0.974    H 2333 0.972
  2333  H   0.994        C 2332 0.972
  2334  H   0.994        C 2332 0.974
  2335  C   3.985        C 2338 1.009    C 2332 0.999    H 2337 0.975    H 2336 0.971
  2336  H   0.994        C 2335 0.971
  2337  H   0.995        C 2335 0.975
  2338  C   3.915        C 2335 1.009    N 2341 0.966    H 2339 0.961    H 2340 0.959
  2339  H   0.987        C 2338 0.961
  2340  H   0.986        C 2338 0.959
  2341  N   3.651        C 2338 0.966    H 2344 0.894    H 2343 0.885    H 2342 0.885
  2342  H   0.906        N 2341 0.885
  2343  H   0.912        N 2341 0.885
  2344  H   0.910        N 2341 0.894
  2345  C   3.939        O 2346 1.626    N 2347 1.284    C 2327 0.940
  2346  O   1.978        C 2345 1.626    N 2347 0.189
  2347  N   3.444        C 2345 1.284    C 2349 0.967    H 2348 0.913    O 2346 0.189
  2348  H   0.957        N 2347 0.913
  2349  C   3.962        N 2347 0.967    C 2351 0.961    H 2350 0.954    C 2369 0.948
  2350  H   0.994        C 2349 0.954
  2351  C   3.978        C 2354 1.002    H 2353 0.969    H 2352 0.962    C 2349 0.961
  2352  H   0.994        C 2351 0.962
  2353  H   0.994        C 2351 0.969
  2354  C   3.984        C 2351 1.002    C 2357 1.001    H 2355 0.967    H 2356 0.964
  2355  H   0.992        C 2354 0.967
  2356  H   0.996        C 2354 0.964
  2357  C   3.947        C 2354 1.001    N 2360 0.965    H 2359 0.965    H 2358 0.963
  2358  H   0.993        C 2357 0.963
  2359  H   0.993        C 2357 0.965
  2360  N   3.468        C 2362 1.326    C 2357 0.965    H 2361 0.910    N 2366 0.107
  2361  H   0.949        N 2360 0.910
  2362  C   3.977        N 2366 1.340    N 2360 1.326    N 2363 1.279
  2363  N   3.349        C 2362 1.279    H 2365 0.916    H 2364 0.901
  2364  H   0.939        N 2363 0.901
  2365  H   0.946        N 2363 0.916
  2366  N   3.395        C 2362 1.340    H 2367 0.911    H 2368 0.858    N 2360 0.107
  2367  H   0.943        N 2366 0.911
  2368  H   0.939        N 2366 0.858
  2369  C   3.956        O 2370 1.583    N 2371 1.356    C 2349 0.948
  2370  O   1.937        C 2369 1.583    N 2371 0.198
  2371  N   3.477        C 2369 1.356    C 2373 0.934    H 2372 0.894    O 2370 0.198
  2372  H   0.948        N 2371 0.894
  2373  C   3.950        C 2375 0.976    H 2374 0.956    N 2371 0.934    C 2385 0.930
  2374  H   0.992        C 2373 0.956
  2375  C   3.989        C 2377 1.015    C 2381 1.000    C 2373 0.976    H 2376 0.952
  2376  H   0.996        C 2375 0.952
  2377  C   3.989        C 2375 1.015    H 2379 0.978    H 2378 0.976    H 2380 0.976
  2378  H   0.996        C 2377 0.976
  2379  H   0.998        C 2377 0.978
  2380  H   0.998        C 2377 0.976
  2381  C   3.984        C 2375 1.000    H 2384 0.982    H 2382 0.979    H 2383 0.978
  2382  H   0.997        C 2381 0.979
  2383  H   0.998        C 2381 0.978
  2384  H   0.998        C 2381 0.982
  2385  C   3.954        O 2386 1.628    N 2387 1.327    C 2373 0.930
  2386  O   1.980        C 2385 1.628    N 2387 0.203
  2387  N   3.467        C 2385 1.327    C 2389 0.962    H 2388 0.867    O 2386 0.203
  2388  H   0.939        N 2387 0.867
  2389  C   3.956        C 2404 0.973    N 2387 0.962    H 2390 0.945    C 2391 0.945
  2390  H   0.993        C 2389 0.945
  2391  C   3.977        C 2393 1.025    C 2397 0.981    H 2392 0.959    C 2389 0.945
  2392  H   0.996        C 2391 0.959
  2393  C   3.984        C 2391 1.025    H 2396 0.979    H 2395 0.975    H 2394 0.970
  2394  H   0.993        C 2393 0.970
  2395  H   0.996        C 2393 0.975
  2396  H   0.999        C 2393 0.979
  2397  C   3.988        C 2400 1.015    C 2391 0.981    H 2399 0.971    H 2398 0.968
  2398  H   0.997        C 2397 0.968
  2399  H   0.996        C 2397 0.971
  2400  C   3.989        C 2397 1.015    H 2403 0.984    H 2402 0.976    H 2401 0.976
  2401  H   0.998        C 2400 0.976
  2402  H   0.997        C 2400 0.976
  2403  H   0.997        C 2400 0.984
  2404  C   3.940        O 2405 1.588    N 2406 1.287    C 2389 0.973
  2405  O   1.946        C 2404 1.588    N 2406 0.191
  2406  N   3.457        C 2404 1.287    C 2408 0.986    H 2407 0.896    O 2405 0.191
  2407  H   0.948        N 2406 0.896
  2408  C   3.967        N 2406 0.986    C 2410 0.951    H 2409 0.946    C 2418 0.942
  2409  H   0.992        C 2408 0.946
  2410  C   3.967        O 2416 1.005    C 2412 0.999    H 2411 0.963    C 2408 0.951
  2411  H   0.999        C 2410 0.963
  2412  C   3.990        C 2410 0.999    H 2415 0.986    H 2413 0.981    H 2414 0.980
  2413  H   0.996        C 2412 0.981
  2414  H   0.997        C 2412 0.980
  2415  H   0.999        C 2412 0.986
  2416  O   1.949        C 2410 1.005    H 2417 0.849
  2417  H   0.878        O 2416 0.849
  2418  C   3.947        O 2419 1.630    N 2420 1.291    C 2408 0.942
  2419  O   1.956        C 2418 1.630    N 2420 0.192
  2420  N   3.443        C 2418 1.291    C 2422 0.961    H 2421 0.908    O 2419 0.192
  2421  H   0.955        N 2420 0.908
  2422  C   3.954        N 2420 0.961    H 2423 0.954    C 2424 0.952    C 2432 0.942
  2423  H   0.992        C 2422 0.954
  2424  C   3.959        C 2426 1.000    O 2430 0.999    H 2425 0.961    C 2422 0.952
  2425  H   0.999        C 2424 0.961
  2426  C   3.987        C 2424 1.000    H 2428 0.982    H 2429 0.981    H 2427 0.979
  2427  H   0.994        C 2426 0.979
  2428  H   0.998        C 2426 0.982
  2429  H   0.995        C 2426 0.981
  2430  O   1.951        C 2424 0.999    H 2431 0.860
  2431  H   0.895        O 2430 0.860
  2432  C   3.957        O 2433 1.617    N 2434 1.326    C 2422 0.942
  2433  O   1.941        C 2432 1.617    N 2434 0.196
  2434  N   3.472        C 2432 1.326    C 2436 0.957    H 2435 0.896    O 2433 0.196
  2435  H   0.951        N 2434 0.896
  2436  C   3.955        C 2438 0.978    N 2434 0.957    H 2437 0.941    C 2452 0.941
  2437  H   0.990        C 2436 0.941
  2438  C   3.981        C 2441 1.001    C 2436 0.978    H 2440 0.961    H 2439 0.950
  2439  H   0.992        C 2438 0.950
  2440  H   0.994        C 2438 0.961
  2441  C   3.982        C 2450 1.493    C 2442 1.334    C 2438 1.001    C 2446 0.107
  2442  C   3.988        C 2444 1.521    C 2441 1.334    H 2443 0.960    C 2448 0.114
  2443  H   0.997        C 2442 0.960
  2444  C   3.990        C 2442 1.521    C 2446 1.365    H 2445 0.965    C 2450 0.107
  2445  H   0.997        C 2444 0.965
  2446  C   3.987        C 2448 1.513    C 2444 1.365    H 2447 0.968    C 2441 0.107
  2447  H   0.997        C 2446 0.968
  2448  C   3.983        C 2446 1.513    C 2450 1.357    H 2449 0.968    C 2442 0.114
  2449  H   0.996        C 2448 0.968
  2450  C   3.985        C 2441 1.493    C 2448 1.357    H 2451 0.966    C 2444 0.107
  2451  H   0.998        C 2450 0.966
  2452  C   3.949        O 2453 1.605    N 2454 1.317    C 2436 0.941
  2453  O   1.976        C 2452 1.605    N 2454 0.195
  2454  N   3.474        C 2452 1.317    C 2456 0.976    H 2455 0.877    O 2453 0.195
  2455  H   0.945        N 2454 0.877
  2456  C   3.965        N 2454 0.976    C 2458 0.972    C 2476 0.958    H 2457 0.946
  2457  H   0.991        C 2456 0.946
  2458  C   3.984        C 2461 1.012    C 2456 0.972    H 2459 0.971    H 2460 0.958
  2459  H   0.997        C 2458 0.971
  2460  H   0.991        C 2458 0.958
  2461  C   3.991        C 2458 1.012    C 2464 0.993    H 2463 0.979    H 2462 0.965
  2462  H   0.995        C 2461 0.965
  2463  H   0.998        C 2461 0.979
  2464  C   3.954        C 2461 0.993    N 2467 0.982    H 2465 0.967    H 2466 0.960
  2465  H   0.994        C 2464 0.967
  2466  H   0.992        C 2464 0.960
  2467  N   3.435        C 2469 1.285    C 2464 0.982    H 2468 0.882    N 2473 0.107
  2468  H   0.949        N 2467 0.882
  2469  C   3.976        N 2473 1.363    N 2470 1.301    N 2467 1.285
  2470  N   3.366        C 2469 1.301    H 2472 0.911    H 2471 0.909    N 2473 0.104
  2471  H   0.934        N 2470 0.909
  2472  H   0.942        N 2470 0.911
  2473  N   3.433        C 2469 1.363    H 2474 0.906    H 2475 0.894    N 2467 0.107    N 2470 0.104
  2474  H   0.934        N 2473 0.906
  2475  H   0.947        N 2473 0.894
  2476  C   3.947        O 2477 1.593    N 2478 1.320    C 2456 0.958
  2477  O   1.900        C 2476 1.593    N 2478 0.200
  2478  N   3.481        C 2476 1.320    C 2480 0.970    H 2479 0.899    O 2477 0.200
  2479  H   0.946        N 2478 0.899
  2480  C   3.964        C 2482 0.973    N 2478 0.970    H 2481 0.959    C 2490 0.911
  2481  H   0.992        C 2480 0.959
  2482  C   3.961        O 2488 0.995    C 2484 0.985    C 2480 0.973    H 2483 0.966
  2483  H   0.999        C 2482 0.966
  2484  C   3.985        C 2482 0.985    H 2486 0.984    H 2487 0.982    H 2485 0.977
  2485  H   0.995        C 2484 0.977
  2486  H   0.998        C 2484 0.984
  2487  H   0.996        C 2484 0.982
  2488  O   1.940        C 2482 0.995    H 2489 0.836
  2489  H   0.891        O 2488 0.836
  2490  C   3.950        O 2491 1.652    N 2492 1.310    C 2480 0.911
  2491  O   1.968        C 2490 1.652    N 2492 0.200
  2492  N   3.477        C 2490 1.310    C 2494 0.990    H 2493 0.913    O 2491 0.200
  2493  H   0.954        N 2492 0.913
  2494  C   3.954        N 2492 0.990    H 2495 0.958    H 2496 0.951    C 2497 0.933
  2495  H   0.989        C 2494 0.958
  2496  H   0.987        C 2494 0.951
  2497  C   3.947        O 2498 1.651    N 2499 1.296    C 2494 0.933
  2498  O   1.968        C 2497 1.651    N 2499 0.198
  2499  N   3.473        C 2497 1.296    C 2501 0.990    H 2500 0.916    O 2498 0.198
  2500  H   0.954        N 2499 0.916
  2501  C   3.966        N 2499 0.990    C 2503 0.955    H 2502 0.945    C 2511 0.923
  2502  H   0.988        C 2501 0.945
  2503  C   3.946        C 2505 1.025    H 2504 0.959    C 2501 0.955    O 2509 0.950
  2504  H   0.998        C 2503 0.959
  2505  C   3.988        C 2503 1.025    H 2507 0.978    H 2506 0.976    H 2508 0.971
  2506  H   0.996        C 2505 0.976
  2507  H   0.995        C 2505 0.978
  2508  H   0.996        C 2505 0.971
  2509  O   1.948        C 2503 0.950    H 2510 0.872
  2510  H   0.895        O 2509 0.872
  2511  C   3.956        O 2512 1.627    N 2513 1.334    C 2501 0.923
  2512  O   1.956        C 2511 1.627    N 2513 0.203
  2513  N   3.483        C 2511 1.334    C 2515 0.953    H 2514 0.919    O 2512 0.203
  2514  H   0.952        N 2513 0.919
  2515  C   3.945        C 2517 0.964    N 2513 0.953    C 2535 0.952    H 2516 0.930
  2516  H   0.987        C 2515 0.930
  2517  C   3.960        C 2520 1.004    H 2519 0.966    C 2515 0.964    H 2518 0.948
  2518  H   0.991        C 2517 0.948
  2519  H   0.995        C 2517 0.966
  2520  C   3.961        C 2521 1.585    C 2534 1.178    C 2517 1.004
  2521  C   3.960        C 2520 1.585    N 2523 1.221    H 2522 0.967
  2522  H   0.996        C 2521 0.967
  2523  N   3.527        C 2521 1.221    C 2525 1.141    H 2524 0.932
  2524  H   0.956        N 2523 0.932
  2525  C   3.957        C 2526 1.370    C 2534 1.240    N 2523 1.141
  2526  C   3.984        C 2528 1.450    C 2525 1.370    H 2527 0.963    C 2532 0.112
  2527  H   0.996        C 2526 0.963
  2528  C   3.988        C 2526 1.450    C 2530 1.401    H 2529 0.965
  2529  H   0.996        C 2528 0.965
  2530  C   3.988        C 2532 1.459    C 2528 1.401    H 2531 0.965
  2531  H   0.998        C 2530 0.965
  2532  C   3.992        C 2530 1.459    C 2534 1.370    H 2533 0.966    C 2526 0.112
  2533  H   0.998        C 2532 0.966
  2534  C   3.986        C 2532 1.370    C 2525 1.240    C 2520 1.178
  2535  C   3.926        O 2536 1.642    N 2537 1.242    C 2515 0.952
  2536  O   1.996        C 2535 1.642    N 2537 0.181
  2537  N   3.417        C 2535 1.242    C 2539 0.969    H 2538 0.928    O 2536 0.181
  2538  H   0.962        N 2537 0.928
  2539  C   3.965        C 2541 0.975    N 2537 0.969    H 2540 0.947    C 2547 0.943
  2540  H   0.996        C 2539 0.947
  2541  C   3.982        H 2542 0.983    C 2539 0.975    H 2543 0.974    C 2544 0.892
  2542  H   0.999        C 2541 0.983
  2543  H   0.997        C 2541 0.974
  2544  C   3.929        O 2545 1.531    O 2546 1.489    C 2541 0.892
  2545  O   1.832        C 2544 1.531    O 2546 0.222
  2546  O   1.783        C 2544 1.489    O 2545 0.222
  2547  C   3.939        O 2548 1.651    N 2549 1.272    C 2539 0.943
  2548  O   1.956        C 2547 1.651    N 2549 0.188
  2549  N   3.425        C 2547 1.272    C 2551 0.952    H 2550 0.921    O 2548 0.188
  2550  H   0.958        N 2549 0.921
  2551  C   3.948        C 2553 1.000    N 2549 0.952    C 2557 0.951    H 2552 0.935
  2552  H   0.992        C 2551 0.935
  2553  C   3.975        C 2551 1.000    H 2554 0.980    H 2555 0.974    H 2556 0.966
  2554  H   0.994        C 2553 0.980
  2555  H   0.995        C 2553 0.974
  2556  H   0.992        C 2553 0.966
  2557  C   3.953        O 2558 1.599    N 2559 1.315    C 2551 0.951
  2558  O   1.920        C 2557 1.599    N 2559 0.191
  2559  N   3.490        C 2557 1.315    C 2561 0.986    H 2560 0.907    O 2558 0.191
  2560  H   0.965        N 2559 0.907
  2561  C   3.950        N 2559 0.986    C 2563 0.970    H 2562 0.955    C 2578 0.874
  2562  H   0.993        C 2561 0.955
  2563  C   3.988        C 2566 1.006    C 2561 0.970    H 2565 0.964    H 2564 0.958
  2564  H   0.997        C 2563 0.958
  2565  H   0.995        C 2563 0.964
  2566  C   3.985        C 2576 1.433    C 2567 1.371    C 2563 1.006
  2567  C   3.989        C 2569 1.490    C 2566 1.371    H 2568 0.968    C 2574 0.103
  2568  H   0.999        C 2567 0.968
  2569  C   3.986        C 2567 1.490    C 2571 1.326    H 2570 0.962    C 2576 0.104
  2570  H   0.996        C 2569 0.962
  2571  C   3.946        C 2574 1.371    C 2569 1.326    O 2572 1.112
  2572  O   2.133        C 2571 1.112    H 2573 0.816
  2573  H   0.883        O 2572 0.816
  2574  C   3.983        C 2576 1.422    C 2571 1.371    H 2575 0.965    C 2567 0.103
  2575  H   0.999        C 2574 0.965
  2576  C   3.988        C 2566 1.433    C 2574 1.422    H 2577 0.961    C 2569 0.104
  2577  H   0.999        C 2576 0.961
  2578  C   3.936        O 2579 1.628    N 2580 1.351    C 2561 0.874
  2579  O   1.956        C 2578 1.628    N 2580 0.202
  2580  N   3.489        C 2578 1.351    C 2582 0.950    H 2581 0.900    O 2579 0.202
  2581  H   0.954        N 2580 0.900
  2582  C   3.950        C 2584 0.976    H 2583 0.966    N 2580 0.950    C 2600 0.915
  2583  H   0.998        C 2582 0.966
  2584  C   3.987        C 2587 1.009    C 2582 0.976    H 2586 0.974    H 2585 0.972
  2585  H   0.997        C 2584 0.972
  2586  H   0.999        C 2584 0.974
  2587  C   3.989        C 2584 1.009    C 2590 0.993    H 2588 0.978    H 2589 0.974
  2588  H   0.997        C 2587 0.978
  2589  H   0.997        C 2587 0.974
  2590  C   3.980        C 2593 1.009    C 2587 0.993    H 2591 0.972    H 2592 0.968
  2591  H   0.995        C 2590 0.972
  2592  H   0.989        C 2590 0.968
  2593  C   3.919        C 2590 1.009    N 2596 0.966    H 2595 0.965    H 2594 0.959
  2594  H   0.982        C 2593 0.959
  2595  H   0.988        C 2593 0.965
  2596  N   3.663        C 2593 0.966    H 2598 0.893    H 2597 0.893    H 2599 0.892
  2597  H   0.908        N 2596 0.893
  2598  H   0.911        N 2596 0.893
  2599  H   0.908        N 2596 0.892
  2600  C   3.931        O 2602 1.503    O 2601 1.477    C 2582 0.915
  2601  O   1.771        C 2600 1.477    O 2602 0.221
  2602  O   1.801        C 2600 1.503    O 2601 0.221

molecular dipole:
                 x           y           z       tot (Debye)
 q only:      615.468     661.924     688.137
   full:      613.506     663.724     696.471    2900.257
molecular quadrupole (traceless):
                xx          xy          yy          xz          yz          zz
 q only:   -11696.738   71549.610    4132.573   74659.685   80242.020    7564.164
  q+dip:   -12919.537   71161.895    3854.569   75161.237   81412.917    9064.968
   full:   -12909.686   71164.439    3839.291   75164.137   81404.664    9070.394


           -------------------------------------------------
          | TOTAL ENERGY            -4085.251661927290 Eh   |
          | GRADIENT NORM               1.316449614992 Eh/α |
          | HOMO-LUMO GAP               1.678443834360 eV   |
           -------------------------------------------------
########################################################################
[WARNING] Runtime exception occurred
-2- restart_readRestart: Dimension missmatch in restart file.
-1- restart_readRestart: Number of electron missmatch in restart file.
########################################################################

------------------------------------------------------------------------
 * finished run on 2020/07/25 at 08:58:58.829     
------------------------------------------------------------------------
 total:
 * wall-time:     0 d,  0 h,  7 min, 11.277 sec
 *  cpu-time:     0 d,  5 h, 23 min, 43.127 sec
 * ratio c/w:    45.036 speedup
 SCF:
 * wall-time:     0 d,  0 h,  6 min, 41.287 sec
 *  cpu-time:     0 d,  5 h, 12 min, 43.042 sec
 * ratio c/w:    46.757 speedup

