      -----------------------------------------------------------      
     |                   =====================                   |     
     |                           x T B                           |     
     |                   =====================                   |     
     |                         S. Grimme                         |     
     |          Mulliken Center for Theoretical Chemistry        |     
     |                    University of Bonn                     |     
      -----------------------------------------------------------      

   * xtb version 6.2.3 (d7bf61a) compiled by 'conda@06d140edd85e' on 2020-05-12

   xtb is free software: you can redistribute it and/or modify it under
   the terms of the GNU Lesser General Public License as published by
   the Free Software Foundation, either version 3 of the License, or
   (at your option) any later version.
   
   xtb is distributed in the hope that it will be useful,
   but WITHOUT ANY WARRANTY; without even the implied warranty of
   MERCHANTABILITY or FITNESS FOR A PARTICULAR PURPOSE.  See the
   GNU Lesser General Public License for more details.
   
   Cite this work as:
   * S. Grimme, C. Bannwarth, P. Shushkov, J. Chem. Theory Comput., 2017,
     13, 1989-2009. DOI: 10.1021/acs.jctc.7b00118
   * C. Bannwarth, S. Ehlert and S. Grimme., J. Chem. Theory Comput., 2019,
     15, 1652-1671. DOI: 10.1021/acs.jctc.8b01176
   * P. Pracht, E. Caldeweyher, S. Ehlert, S. Grimme, ChemRxiv, 2019, preprint.
     DOI: 10.26434/chemrxiv.8326202.v1
   
   for DFT-D4:
   * E. Caldeweyher, C. Bannwarth and S. Grimme, J. Chem. Phys., 2017,
     147, 034112. DOI: 10.1063/1.4993215
   * E. Caldeweyher, S. Ehlert, A. Hansen, H. Neugebauer, S. Spicher,
     C. Bannwarth and S. Grimme, J. Chem. Phys., 2019, 150, 154122.
     DOI: 10.1063/1.5090222
   
   for sTDA-xTB:
   * S. Grimme and C. Bannwarth, J. Chem. Phys., 2016, 145, 054103.
     DOI: 10.1063/1.4959605
   
   in the mass-spec context:
   * V. Asgeirsson, C. Bauer and S. Grimme, Chem. Sci., 2017, 8, 4879.
     DOI: 10.1039/c7sc00601b
   
   for metadynamics refer to:
   * S. Grimme, J. Chem. Theory Comput., 2019, 155, 2847-2862
     DOI: 10.1021/acs.jctc.9b00143
   
   with help from (in alphabetical order)
   C. Bannwarth, F. Bohle, G. Brandenburg, E. Caldeweyher, M. Checinski,
   S. Dohm, S. Ehlert, S. Ehrlich, F. März, H. Neugebauer, J. Pisarek,
   P. Pracht, P. Shushkov, and S. Spicher.
   
 * started run on 2020/07/25 at 06:51:24.463     

           -------------------------------------------------
          |                Calculation Setup                |
           -------------------------------------------------

          program call               : xtb host_24421.xyz --chrg +9 --uhf 0 --gbsa water
          hostname                   : gold54.cluster.local
          coordinate file            : host_24421.xyz
          omp threads                :                    64
          number of atoms            :                  2602
          number of electrons        :                  7192
          charge                     :                     9
          spin                       :                   0.0
          first test random number   :      0.64640085054120

########################################################################
[WARNING] Please study the warnings concerning your input carefully
-2- prog_main: XTBPATH is not set, using XTBHOME instead
-1- prog_main: XTBHOME is not set, using HOME instead
########################################################################
           ------------------------------------------------- 
          |                 G F N 2 - x T B                 |
          | Geometry, Frequencies, Noncovalent interactions |
          |            JCTC 2019 parametrisation            |
           ------------------------------------------------- 
             k(s)              :                1.8500
             k(p)              :                2.2300
             k(d)              :                2.2300
             k(f)              :                2.0000
             kEN (H0ij)        :               -2.0000
             D4 a1             :                0.5200
             D4 a2             :                5.0000
             D4 s6             :                1.0000
             D4 s8             :                2.7000
             D4 s9             :                5.0000
             alphaj            :                2.0000

  Z AO/shell   Hii/eV     exponent
  1     Wed Apr 25 08:07:45 CEST 2018   EN: 2.200 GM2: 0.406  GM3: 0.0800  RAES: 1.40
     1s    -10.707211    1.230000
  6     Wed Apr 25 08:07:45 CEST 2018   EN: 2.550 GM2: 0.538  GM3: 0.1500  RAES: 3.00
     2s    -13.970922    2.096432
     2p    -10.063292    1.800000
  7     Wed Apr 25 08:07:45 CEST 2018   EN: 3.040 GM2: 0.461  GM3:-0.0640  RAES: 1.90
     2s    -16.686243    2.339881
     2p    -12.523956    2.014332
  8     Wed Apr 25 08:07:45 CEST 2018   EN: 3.440 GM2: 0.452  GM3:-0.0517  RAES: 1.80
     2s    -20.229985    2.439742
     2p    -15.503117    2.137023
 16     Tue Apr 24 11:44:34 CEST 2018   EN: 2.580 GM2: 0.340  GM3:-0.0502  RAES: 3.10
     3s    -20.029654    1.981333
     3p    -11.377694    2.025643
     3d     -0.420282    1.702555

 Solvent             : water
 Using internal parameter file: .param_gbsa2_water
 Gsolv ref. state (COSMO-RS): gsolv [1 M gas/solution]
 temperature (mdtemp)       :    298.14999999999998     
 dielectric constant        :    80.200000000000003     
 rho                        :    1.0000000000000000     
 mass                       :    18.000000000000000     
 surface tension            :    15.568945408385856     
 probe radius               :   0.97531378999999996     
 Gshift (Eh)                :    1.8574431267947933E-003
 c1                         :    1.5524381700000001     
 soset                      :   0.13032636000000000     
 HB correction              :  T
           ------------------------------------------------- 
          |        Self-Consistent Charge Iterations        |
           ------------------------------------------------- 

          ...................................................
          :                      SETUP                      :
          :.................................................:
          :  # basis functions                6511          :
          :  # atomic orbitals                6505          :
          :  # shells                         3899          :
          :  # electrons                      7192          :
          :  max. iterations                   250          :
          :  Hamiltonian                  GFN2-xTB          :
          :  restarted?                      false          :
          :  GBSA solvation                   true          :
          :  PC potential                    false          :
          :  electronic temp.          300.0000000     K    :
          :  accuracy                    1.0000000          :
          :  -> integral cutoff          0.2500000E+02      :
          :  -> integral neglect         0.1000000E-07      :
          :  -> SCF convergence          0.1000000E-05 Eh   :
          :  -> wf. convergence          0.1000000E-03 e    :
          :  Broyden damping             0.4000000          :
          ...................................................

 iter      E             dE          RMSdq      gap      omega  full diag
   1  -4120.4588617 -0.412046E+04  0.427E+00    2.36       0.0  T
   2  -4132.6202869 -0.121614E+02  0.226E+00    2.32       1.0  T
   3  -4133.0869522 -0.466665E+00  0.119E+00    2.18       1.0  T
   4  -4133.1467346 -0.597823E-01  0.298E-01    1.74       1.0  T
   5  -4133.2608212 -0.114087E+00  0.147E-01    1.78       1.0  T
   6  -4133.2766533 -0.158321E-01  0.768E-02    1.74       1.0  T
   7  -4133.2793914 -0.273811E-02  0.402E-02    1.73       1.0  T
   8  -4133.2805573 -0.116592E-02  0.185E-02    1.69       1.0  T
   9  -4133.2807747 -0.217396E-03  0.116E-02    1.67       1.0  T
  10  -4133.2808850 -0.110295E-03  0.620E-03    1.65       1.0  T
  11  -4133.2809140 -0.290214E-04  0.329E-03    1.65       1.0  T
  12  -4133.2809254 -0.113281E-04  0.171E-03    1.64       1.1  T
  13  -4133.2809280 -0.266185E-05  0.939E-04    1.64       2.1  T
  14  -4133.2809288 -0.800696E-06  0.483E-04    1.64       4.1  T
  15  -4133.2809290 -0.203715E-06  0.253E-04    1.64       7.7  T

   *** convergence criteria satisfied after 15 iterations ***

         #    Occupation            Energy/Eh            Energy/eV
      -------------------------------------------------------------
         1        2.0000           -0.7602427             -20.6873
       ...           ...                  ...                  ...
      3590        2.0000           -0.3611149              -9.8264
      3591        2.0000           -0.3602797              -9.8037
      3592        2.0000           -0.3570062              -9.7146
      3593        2.0000           -0.3559266              -9.6853
      3594        2.0000           -0.3550067              -9.6602
      3595        2.0000           -0.3541826              -9.6378
      3596        2.0000           -0.3467185              -9.4347 (HOMO)
      3597                         -0.2864952              -7.7959 (LUMO)
      3598                         -0.2735841              -7.4446
      3599                         -0.2667478              -7.2586
      3600                         -0.2657187              -7.2306
      3601                         -0.2656983              -7.2300
       ...                                ...                  ...
      6505                          0.7910357              21.5252
      -------------------------------------------------------------
                  HL-Gap            0.0602233 Eh            1.6388 eV
             Fermi-level           -0.3166068 Eh           -8.6153 eV

 SCC (total)                   0 d,  0 h,  6 min, 31.939 sec
 SCC setup                      ...        0 min,  3.097 sec (  0.790%)
 Dispersion                     ...        0 min,  1.961 sec (  0.500%)
 integral evaluation            ...        0 min, 11.335 sec (  2.892%)
 zeroth order Hamiltonian       ...        0 min,  0.339 sec (  0.087%)
 iterations                     ...        5 min, 57.757 sec ( 91.279%)
 molecular gradient             ...        0 min, 16.759 sec (  4.276%)
 printout                       ...        0 min,  0.690 sec (  0.176%)

         :::::::::::::::::::::::::::::::::::::::::::::::::::::
         ::                     SUMMARY                     ::
         :::::::::::::::::::::::::::::::::::::::::::::::::::::
         :: total energy           -4085.258864811465 Eh    ::
         :: total w/o Gsasa/hb     -4084.847623141999 Eh    ::
         :: gradient norm              1.308105591221 Eh/a0 ::
         :: HOMO-LUMO gap              1.638759567008 eV    ::
         ::.................................................::
         :: SCC energy             -4133.345271220552 Eh    ::
         :: -> isotropic ES           14.109016471122 Eh    ::
         :: -> anisotropic ES         -0.720185011789 Eh    ::
         :: -> anisotropic XC          1.160622034440 Eh    ::
         :: -> dispersion             -3.861277493865 Eh    ::
         :: -> Gsolv                  -4.038465909225 Eh    ::
         ::    -> Gborn               -3.627224239759 Eh    ::
         ::    -> Gsasa               -0.066199629575 Eh    ::
         ::    -> Ghb                 -0.346899483018 Eh    ::
         ::    -> Gshift               0.001857443127 Eh    ::
         :: repulsion energy          47.560572865872 Eh    ::
         :: add. restraining           0.000000000000 Eh    ::
         :::::::::::::::::::::::::::::::::::::::::::::::::::::

           -------------------------------------------------
          |                Property Printout                |
           -------------------------------------------------

    * Orbital Energies and Occupations

         #    Occupation            Energy/Eh            Energy/eV
      -------------------------------------------------------------
         1        2.0000           -0.7602427             -20.6873
       ...           ...                  ...                  ...
      3584        2.0000           -0.3652549              -9.9391
      3585        2.0000           -0.3650839              -9.9344
      3586        2.0000           -0.3643112              -9.9134
      3587        2.0000           -0.3642728              -9.9124
      3588        2.0000           -0.3624064              -9.8616
      3589        2.0000           -0.3617590              -9.8440
      3590        2.0000           -0.3611149              -9.8264
      3591        2.0000           -0.3602797              -9.8037
      3592        2.0000           -0.3570062              -9.7146
      3593        2.0000           -0.3559266              -9.6853
      3594        2.0000           -0.3550067              -9.6602
      3595        2.0000           -0.3541826              -9.6378
      3596        2.0000           -0.3467185              -9.4347 (HOMO)
      3597                         -0.2864952              -7.7959 (LUMO)
      3598                         -0.2735841              -7.4446
      3599                         -0.2667478              -7.2586
      3600                         -0.2657187              -7.2306
      3601                         -0.2656983              -7.2300
      3602                         -0.2650519              -7.2124
      3603                         -0.2649299              -7.2091
      3604                         -0.2632010              -7.1621
      3605                         -0.2609279              -7.1002
      3606                         -0.2609214              -7.1000
      3607                         -0.2604385              -7.0869
       ...                                ...                  ...
      6505                          0.7910357              21.5252
      -------------------------------------------------------------
                  HL-Gap            0.0602233 Eh            1.6388 eV
             Fermi-level           -0.3166068 Eh           -8.6153 eV

     #   Z        covCN         q      C6AA      α(0)
     1   7 N      3.494    -0.145    24.123     7.295
     2   1 H      0.860     0.311     0.681     1.293
     3   1 H      0.860     0.321     0.654     1.267
     4   1 H      0.860     0.310     0.683     1.295
     5   6 C      3.793    -0.031    21.127     6.545
     6   1 H      0.925     0.107     1.720     2.051
     7   6 C      3.848    -0.101    22.382     6.729
     8   1 H      0.925     0.112     1.676     2.024
     9   1 H      0.925     0.104     1.748     2.067
    10   6 C      3.800    -0.004    20.646     6.469
    11   1 H      0.925     0.058     2.227     2.334
    12   1 H      0.926     0.063     2.165     2.301
    13  16 S      1.981    -0.206   149.823    20.601
    14   6 C      3.739    -0.056    21.663     6.641
    15   1 H      0.925     0.039     2.469     2.457
    16   1 H      0.925     0.042     2.422     2.434
    17   1 H      0.925     0.051     2.310     2.377
    18   6 C      2.756     0.261    22.600     7.785
    19   8 O      0.862    -0.435    22.400     6.346
    20   7 N      2.694    -0.141    24.061     7.285
    21   1 H      0.860     0.210     1.057     1.610
    22   6 C      3.784     0.008    20.461     6.443
    23   1 H      0.925     0.117     1.634     1.999
    24   6 C      3.800    -0.112    22.638     6.774
    25   1 H      0.925     0.081     1.965     2.192
    26   1 H      0.924     0.105     1.743     2.065
    27   6 C      2.745     0.263    22.565     7.778
    28   8 O      0.857    -0.519    24.219     6.598
    29   7 N      2.633    -0.281    27.255     7.754
    30   1 H      0.860     0.240     0.921     1.504
    31   1 H      0.860     0.260     0.845     1.440
    32   6 C      2.742     0.272    22.410     7.751
    33   8 O      0.863    -0.501    23.803     6.541
    34   7 N      2.687    -0.150    24.241     7.312
    35   1 H      0.860     0.214     1.036     1.594
    36   6 C      3.779    -0.006    20.706     6.483
    37   1 H      0.924     0.098     1.803     2.100
    38   6 C      3.851    -0.044    21.326     6.568
    39   1 H      0.925     0.068     2.106     2.270
    40   6 C      3.750    -0.137    23.210     6.871
    41   1 H      0.925     0.074     2.038     2.233
    42   1 H      0.924     0.050     2.321     2.382
    43   1 H      0.925     0.062     2.175     2.307
    44   6 C      3.799    -0.074    21.919     6.666
    45   1 H      0.925     0.035     2.510     2.478
    46   1 H      0.924     0.065     2.142     2.289
    47   6 C      3.748    -0.118    22.835     6.816
    48   1 H      0.925     0.035     2.513     2.479
    49   1 H      0.925     0.061     2.191     2.315
    50   1 H      0.924     0.035     2.511     2.478
    51   6 C      2.750     0.276    22.331     7.738
    52   8 O      0.860    -0.475    23.245     6.464
    53   7 N      2.690    -0.189    25.097     7.440
    54   1 H      0.860     0.221     1.003     1.569
    55   6 C      3.793     0.023    20.202     6.401
    56   1 H      0.925     0.070     2.086     2.259
    57   6 C      3.816    -0.075    21.919     6.663
    58   1 H      0.925     0.056     2.246     2.343
    59   1 H      0.925     0.068     2.104     2.268
    60   6 C      2.963     0.016    27.655     8.626
    61   6 C      2.909    -0.047    29.173     8.857
    62   1 H      0.926     0.047     2.358     2.401
    63   6 C      2.921    -0.052    29.290     8.875
    64   1 H      0.926     0.037     2.484     2.465
    65   6 C      2.912    -0.038    28.942     8.822
    66   1 H      0.926     0.040     2.451     2.448
    67   6 C      2.921    -0.028    28.692     8.784
    68   1 H      0.926     0.037     2.491     2.468
    69   6 C      2.924    -0.034    28.852     8.809
    70   1 H      0.926     0.042     2.419     2.432
    71   6 C      2.742     0.280    22.257     7.725
    72   8 O      0.865    -0.474    23.213     6.460
    73   7 N      2.689    -0.211    25.587     7.513
    74   1 H      0.860     0.222     1.002     1.568
    75   6 C      3.778     0.031    20.077     6.384
    76   1 H      0.925     0.061     2.188     2.313
    77   6 C      3.800    -0.067    21.789     6.646
    78   1 H      0.925     0.048     2.348     2.396
    79   1 H      0.925     0.072     2.061     2.245
    80   6 C      3.796    -0.096    22.337     6.730
    81   1 H      0.925     0.037     2.496     2.471
    82   1 H      0.925     0.033     2.546     2.495
    83   6 C      2.686     0.369    20.738     7.453
    84   8 O      0.856    -0.685    28.316     7.134
    85   8 O      0.857    -0.640    27.112     6.981
    86   6 C      2.743     0.266    22.507     7.768
    87   8 O      0.859    -0.488    23.531     6.504
    88   7 N      2.690    -0.192    25.167     7.451
    89   1 H      0.860     0.227     0.980     1.550
    90   6 C      3.791     0.010    20.420     6.435
    91   1 H      0.925     0.071     2.074     2.252
    92   6 C      3.809    -0.070    21.828     6.651
    93   1 H      0.925     0.054     2.265     2.353
    94   1 H      0.925     0.072     2.062     2.246
    95   6 C      3.787    -0.016    20.866     6.506
    96   1 H      0.924     0.050     2.321     2.383
    97   1 H      0.925     0.033     2.546     2.495
    98  16 S      1.939    -0.182   148.747    20.527
    99   6 C      3.744    -0.064    21.806     6.662
   100   1 H      0.925     0.075     2.034     2.230
   101   1 H      0.925     0.046     2.368     2.406
   102   1 H      0.925     0.062     2.176     2.307
   103   6 C      2.747     0.293    22.024     7.684
   104   8 O      0.870    -0.461    22.925     6.420
   105   7 N      2.705    -0.190    25.118     7.443
   106   1 H      0.860     0.201     1.102     1.644
   107   6 C      3.785     0.020    20.257     6.411
   108   1 H      0.925     0.087     1.912     2.162
   109   6 C      3.817    -0.082    22.049     6.683
   110   1 H      0.925     0.057     2.233     2.337
   111   1 H      0.925     0.065     2.140     2.288
   112   6 C      3.848    -0.009    20.701     6.472
   113   1 H      0.925     0.037     2.496     2.471
   114   6 C      3.766    -0.117    22.783     6.803
   115   1 H      0.924     0.042     2.417     2.431
   116   1 H      0.925     0.037     2.489     2.467
   117   1 H      0.925     0.068     2.104     2.268
   118   6 C      3.757    -0.125    22.947     6.830
   119   1 H      0.925     0.030     2.590     2.517
   120   1 H      0.925     0.049     2.336     2.390
   121   1 H      0.925     0.037     2.486     2.466
   122   6 C      2.745     0.260    22.627     7.789
   123   8 O      0.859    -0.499    23.751     6.534
   124   7 N      2.685    -0.153    24.307     7.322
   125   1 H      0.860     0.210     1.057     1.610
   126   6 C      3.785     0.009    20.443     6.440
   127   1 H      0.925     0.100     1.788     2.091
   128   6 C      3.812    -0.091    22.230     6.711
   129   1 H      0.925     0.090     1.881     2.145
   130   1 H      0.925     0.067     2.119     2.277
   131   6 C      3.795    -0.097    22.354     6.733
   132   1 H      0.925     0.064     2.150     2.293
   133   1 H      0.925     0.087     1.908     2.160
   134   6 C      3.731    -0.032    21.233     6.577
   135   1 H      0.925     0.111     1.689     2.032
   136   1 H      0.925     0.079     1.986     2.204
   137   7 N      2.719    -0.159    24.441     7.343
   138   1 H      0.860     0.198     1.118     1.656
   139   6 C      2.734     0.241    22.968     7.846
   140   7 N      2.670    -0.233    26.105     7.588
   141   1 H      0.860     0.257     0.857     1.450
   142   1 H      0.860     0.260     0.844     1.439
   143   7 N      2.695    -0.249    26.471     7.641
   144   1 H      0.860     0.242     0.914     1.497
   145   1 H      0.860     0.207     1.071     1.621
   146   6 C      2.749     0.259    22.634     7.790
   147   8 O      0.857    -0.480    23.339     6.477
   148   7 N      2.682    -0.167    24.604     7.367
   149   1 H      0.860     0.204     1.086     1.633
   150   6 C      3.781     0.007    20.484     6.447
   151   1 H      0.925     0.095     1.834     2.118
   152   6 C      3.839    -0.020    20.897     6.503
   153   1 H      0.925     0.055     2.256     2.349
   154   6 C      3.749    -0.120    22.866     6.820
   155   1 H      0.924     0.051     2.308     2.376
   156   1 H      0.925     0.049     2.335     2.389
   157   1 H      0.924     0.051     2.307     2.375
   158   6 C      3.795    -0.064    21.726     6.637
   159   1 H      0.925     0.043     2.411     2.428
   160   1 H      0.925     0.041     2.440     2.443
   161   6 C      3.746    -0.100    22.486     6.764
   162   1 H      0.925     0.027     2.625     2.533
   163   1 H      0.924     0.035     2.514     2.479
   164   1 H      0.925     0.038     2.479     2.462
   165   6 C      2.756     0.273    22.387     7.748
   166   8 O      0.860    -0.489    23.550     6.506
   167   7 N      2.684    -0.185    25.015     7.428
   168   1 H      0.860     0.208     1.068     1.619
   169   6 C      3.798     0.024    20.166     6.394
   170   1 H      0.925     0.085     1.929     2.172
   171   6 C      3.809    -0.096    22.329     6.726
   172   1 H      0.924     0.031     2.567     2.506
   173   1 H      0.925     0.048     2.342     2.393
   174   6 C      2.684     0.370    20.720     7.449
   175   8 O      0.858    -0.570    25.402     6.757
   176   8 O      0.856    -0.580    25.629     6.787
   177   6 C      2.758     0.275    22.347     7.741
   178   8 O      0.859    -0.481    23.357     6.480
   179   7 N      2.682    -0.197    25.268     7.466
   180   1 H      0.860     0.208     1.066     1.617
   181   6 C      3.783     0.004    20.530     6.454
   182   1 H      0.925     0.093     1.849     2.126
   183   6 C      3.800    -0.051    21.496     6.601
   184   1 H      0.925     0.032     2.556     2.500
   185   1 H      0.925     0.044     2.402     2.424
   186   6 C      3.794    -0.099    22.401     6.740
   187   1 H      0.925     0.023     2.686     2.563
   188   1 H      0.925     0.030     2.581     2.512
   189   6 C      2.681     0.355    20.967     7.493
   190   8 O      0.856    -0.650    27.375     7.015
   191   8 O      0.856    -0.628    26.805     6.941
   192   6 C      2.742     0.278    22.287     7.730
   193   8 O      0.857    -0.425    22.186     6.315
   194   7 N      2.683    -0.182    24.950     7.419
   195   1 H      0.860     0.202     1.097     1.641
   196   6 C      3.737    -0.038    21.341     6.592
   197   1 H      0.924     0.100     1.782     2.087
   198   1 H      0.924     0.091     1.867     2.137
   199   6 C      2.744     0.274    22.369     7.744
   200   8 O      0.862    -0.474    23.211     6.459
   201   7 N      2.680    -0.180    24.906     7.412
   202   1 H      0.860     0.217     1.022     1.584
   203   6 C      3.774     0.012    20.409     6.437
   204   1 H      0.925     0.071     2.071     2.250
   205   6 C      3.800    -0.096    22.340     6.730
   206   1 H      0.925     0.087     1.910     2.161
   207   1 H      0.924     0.078     2.001     2.212
   208   6 C      3.846    -0.024    20.974     6.514
   209   1 H      0.925     0.038     2.473     2.459
   210   6 C      3.756    -0.125    22.955     6.831
   211   1 H      0.925     0.027     2.632     2.537
   212   1 H      0.924     0.051     2.304     2.374
   213   1 H      0.925     0.033     2.550     2.497
   214   6 C      3.753    -0.134    23.135     6.859
   215   1 H      0.924     0.036     2.499     2.472
   216   1 H      0.925     0.061     2.185     2.312
   217   1 H      0.924     0.057     2.238     2.339
   218   6 C      2.742     0.258    22.654     7.793
   219   8 O      0.859    -0.480    23.348     6.478
   220   7 N      2.684    -0.163    24.530     7.356
   221   1 H      0.860     0.194     1.136     1.670
   222   6 C      3.776     0.012    20.400     6.435
   223   1 H      0.924     0.095     1.830     2.116
   224   6 C      3.795    -0.084    22.101     6.694
   225   1 H      0.924     0.075     2.027     2.227
   226   1 H      0.925     0.065     2.141     2.288
   227   6 C      3.797    -0.091    22.231     6.714
   228   1 H      0.925     0.064     2.150     2.293
   229   1 H      0.924     0.100     1.785     2.089
   230   6 C      3.730    -0.031    21.228     6.577
   231   1 H      0.925     0.110     1.693     2.035
   232   1 H      0.924     0.102     1.770     2.081
   233   7 N      2.701    -0.150    24.246     7.313
   234   1 H      0.860     0.206     1.075     1.624
   235   6 C      2.731     0.234    23.087     7.866
   236   7 N      2.644    -0.242    26.320     7.619
   237   1 H      0.860     0.245     0.903     1.489
   238   1 H      0.860     0.272     0.802     1.403
   239   7 N      2.656    -0.240    26.278     7.613
   240   1 H      0.860     0.226     0.983     1.553
   241   1 H      0.860     0.210     1.058     1.611
   242   6 C      2.734     0.252    22.771     7.813
   243   8 O      0.858    -0.455    22.801     6.402
   244   7 N      2.682    -0.186    25.025     7.430
   245   1 H      0.860     0.217     1.025     1.586
   246   6 C      3.780     0.009    20.440     6.441
   247   1 H      0.925     0.082     1.954     2.186
   248   6 C      3.797    -0.087    22.161     6.703
   249   1 H      0.924     0.071     2.079     2.255
   250   1 H      0.925     0.064     2.158     2.297
   251   6 C      3.848    -0.021    20.913     6.505
   252   1 H      0.925     0.049     2.335     2.390
   253   6 C      3.759    -0.131    23.058     6.846
   254   1 H      0.925     0.040     2.450     2.448
   255   1 H      0.925     0.058     2.217     2.329
   256   1 H      0.924     0.056     2.242     2.342
   257   6 C      3.751    -0.119    22.844     6.816
   258   1 H      0.925     0.028     2.613     2.528
   259   1 H      0.925     0.049     2.334     2.389
   260   1 H      0.925     0.035     2.519     2.482
   261   6 C      2.744     0.263    22.558     7.777
   262   8 O      0.863    -0.504    23.879     6.552
   263   7 N      2.703    -0.149    24.217     7.309
   264   1 H      0.860     0.207     1.070     1.620
   265   6 C      3.798     0.003    20.527     6.451
   266   1 H      0.925     0.082     1.961     2.190
   267   6 C      3.807    -0.083    22.078     6.689
   268   1 H      0.925     0.064     2.148     2.292
   269   1 H      0.924     0.067     2.119     2.276
   270   6 C      3.803    -0.086    22.135     6.698
   271   1 H      0.925     0.059     2.208     2.324
   272   1 H      0.925     0.060     2.194     2.317
   273   6 C      3.795    -0.097    22.363     6.734
   274   1 H      0.925     0.083     1.950     2.183
   275   1 H      0.925     0.085     1.931     2.173
   276   6 C      3.727    -0.073    22.004     6.697
   277   1 H      0.925     0.124     1.583     1.968
   278   1 H      0.925     0.118     1.628     1.995
   279   7 N      3.486    -0.137    23.964     7.271
   280   1 H      0.860     0.301     0.710     1.320
   281   1 H      0.860     0.294     0.732     1.340
   282   1 H      0.860     0.304     0.701     1.311
   283   6 C      2.771     0.284    22.183     7.714
   284   8 O      0.864    -0.473    23.199     6.458
   285   7 N      2.700    -0.160    24.463     7.346
   286   1 H      0.860     0.218     1.019     1.582
   287   6 C      3.807     0.015    20.316     6.416
   288   1 H      0.925     0.064     2.155     2.296
   289   6 C      3.844    -0.039    21.236     6.555
   290   1 H      0.924     0.063     2.161     2.299
   291   6 C      3.747    -0.130    23.066     6.850
   292   1 H      0.925     0.069     2.094     2.263
   293   1 H      0.925     0.058     2.223     2.332
   294   1 H      0.924     0.034     2.527     2.486
   295   6 C      3.792    -0.089    22.216     6.712
   296   1 H      0.924     0.070     2.080     2.255
   297   1 H      0.924     0.041     2.434     2.440
   298   6 C      3.746    -0.131    23.087     6.854
   299   1 H      0.924     0.054     2.266     2.354
   300   1 H      0.925     0.037     2.487     2.466
   301   1 H      0.924     0.045     2.379     2.412
   302   6 C      2.744     0.262    22.574     7.779
   303   8 O      0.861    -0.500    23.786     6.539
   304   7 N      2.687    -0.167    24.624     7.370
   305   1 H      0.860     0.220     1.011     1.575
   306   6 C      3.787     0.017    20.301     6.418
   307   1 H      0.924     0.104     1.749     2.068
   308   6 C      3.811    -0.090    22.205     6.707
   309   1 H      0.925     0.096     1.820     2.110
   310   1 H      0.925     0.089     1.890     2.150
   311   6 C      2.966    -0.002    28.080     8.692
   312   6 C      2.904    -0.051    29.276     8.872
   313   1 H      0.926     0.069     2.098     2.265
   314   6 C      2.897    -0.080    29.988     8.979
   315   1 H      0.926     0.030     2.587     2.515
   316   6 C      2.833     0.137    24.995     8.193
   317   8 O      1.661    -0.426    21.349     6.238
   318   1 H      0.805     0.326     0.647     1.263
   319   6 C      2.905    -0.062    29.548     8.913
   320   1 H      0.926     0.028     2.616     2.529
   321   6 C      2.900    -0.044    29.096     8.844
   322   1 H      0.926     0.076     2.019     2.222
   323   6 C      2.748     0.259    22.634     7.790
   324   8 O      0.862    -0.519    24.209     6.597
   325   7 N      2.685    -0.148    24.204     7.307
   326   1 H      0.860     0.226     0.984     1.554
   327   6 C      3.784     0.010    20.434     6.439
   328   1 H      0.925     0.074     2.046     2.237
   329   6 C      3.827    -0.076    21.931     6.664
   330   1 H      0.925     0.054     2.272     2.357
   331   1 H      0.925     0.077     2.008     2.216
   332   6 C      3.807    -0.093    22.264     6.717
   333   1 H      0.924     0.079     1.986     2.204
   334   1 H      0.925     0.074     2.043     2.235
   335   6 C      3.816    -0.096    22.310     6.723
   336   1 H      0.925     0.068     2.104     2.268
   337   1 H      0.925     0.094     1.843     2.123
   338   6 C      3.736    -0.056    21.667     6.643
   339   1 H      0.925     0.130     1.535     1.938
   340   1 H      0.925     0.132     1.523     1.930
   341   7 N      3.485    -0.134    23.905     7.262
   342   1 H      0.860     0.281     0.773     1.378
   343   1 H      0.860     0.297     0.722     1.331
   344   1 H      0.860     0.281     0.771     1.376
   345   6 C      2.759     0.274    22.364     7.744
   346   8 O      0.861    -0.493    23.638     6.519
   347   7 N      2.702    -0.200    25.344     7.477
   348   1 H      0.860     0.222     1.001     1.567
   349   6 C      3.792     0.051    19.726     6.325
   350   1 H      0.924     0.063     2.161     2.299
   351   6 C      3.814    -0.095    22.309     6.723
   352   1 H      0.925     0.030     2.580     2.512
   353   1 H      0.925     0.054     2.265     2.354
   354   6 C      2.683     0.359    20.915     7.484
   355   8 O      0.856    -0.634    26.959     6.961
   356   8 O      0.857    -0.646    27.284     7.003
   357   6 C      2.748     0.274    22.362     7.743
   358   8 O      0.859    -0.482    23.396     6.485
   359   7 N      2.682    -0.198    25.308     7.472
   360   1 H      0.860     0.215     1.030     1.590
   361   6 C      3.789     0.010    20.423     6.436
   362   1 H      0.925     0.101     1.776     2.084
   363   6 C      3.726     0.108    18.912     6.209
   364   1 H      0.924     0.043     2.408     2.427
   365   6 C      3.758    -0.142    23.294     6.881
   366   1 H      0.925     0.059     2.216     2.328
   367   1 H      0.924     0.068     2.108     2.270
   368   1 H      0.924     0.086     1.923     2.169
   369   8 O      1.652    -0.479    22.447     6.396
   370   1 H      0.807     0.329     0.640     1.256
   371   6 C      2.759     0.272    22.395     7.750
   372   8 O      0.863    -0.524    24.323     6.612
   373   7 N      2.696    -0.165    24.571     7.362
   374   1 H      0.860     0.185     1.189     1.708
   375   6 C      3.787     0.028    20.112     6.387
   376   1 H      0.924     0.082     1.961     2.190
   377   6 C      3.802    -0.055    21.560     6.611
   378   1 H      0.925     0.040     2.449     2.447
   379   1 H      0.925     0.057     2.234     2.337
   380   6 C      3.798    -0.104    22.487     6.752
   381   1 H      0.924     0.045     2.379     2.412
   382   1 H      0.925     0.047     2.360     2.402
   383   6 C      2.681     0.358    20.925     7.486
   384   8 O      0.856    -0.591    25.889     6.822
   385   8 O      0.856    -0.621    26.648     6.921
   386   6 C      2.738     0.263    22.563     7.777
   387   8 O      0.858    -0.492    23.619     6.516
   388   7 N      2.682    -0.175    24.799     7.396
   389   1 H      0.860     0.204     1.084     1.631
   390   6 C      3.735    -0.037    21.331     6.591
   391   1 H      0.925     0.107     1.726     2.054
   392   1 H      0.925     0.106     1.731     2.058
   393   6 C      2.743     0.268    22.475     7.762
   394   8 O      0.859    -0.426    22.208     6.318
   395   7 N      2.686    -0.165    24.572     7.362
   396   1 H      0.860     0.178     1.224     1.733
   397   6 C      3.782     0.025    20.165     6.397
   398   1 H      0.925     0.076     2.017     2.221
   399   6 C      3.811    -0.081    22.032     6.681
   400   1 H      0.925     0.085     1.925     2.170
   401   1 H      0.924     0.043     2.412     2.429
   402   6 C      2.955    -0.009    28.234     8.715
   403   6 C      2.930    -0.043    29.060     8.841
   404   1 H      0.926     0.024     2.678     2.559
   405   6 C      2.908    -0.060    29.498     8.906
   406   1 H      0.926     0.046     2.367     2.406
   407   6 C      2.847     0.144    24.851     8.170
   408   8 O      1.661    -0.422    21.277     6.227
   409   1 H      0.806     0.361     0.562     1.177
   410   6 C      2.915    -0.087    30.177     9.008
   411   1 H      0.926     0.060     2.202     2.320
   412   6 C      2.920    -0.040    28.993     8.830
   413   1 H      0.926     0.048     2.345     2.395
   414   6 C      2.753     0.267    22.484     7.765
   415   8 O      0.859    -0.466    23.053     6.437
   416   7 N      2.695    -0.156    24.377     7.333
   417   1 H      0.860     0.215     1.035     1.594
   418   6 C      3.803     0.033    20.017     6.370
   419   1 H      0.925     0.081     1.970     2.195
   420   6 C      3.805    -0.093    22.270     6.718
   421   1 H      0.924     0.082     1.961     2.190
   422   1 H      0.925     0.062     2.176     2.307
   423   6 C      2.950    -0.007    28.194     8.709
   424   6 C      2.901    -0.042    29.041     8.836
   425   1 H      0.926     0.034     2.524     2.484
   426   6 C      2.906    -0.075    29.872     8.962
   427   1 H      0.926     0.052     2.297     2.370
   428   6 C      2.826     0.134    25.055     8.202
   429   8 O      1.658    -0.425    21.330     6.235
   430   1 H      0.805     0.341     0.609     1.226
   431   6 C      2.901    -0.063    29.558     8.914
   432   1 H      0.926     0.086     1.920     2.167
   433   6 C      2.906    -0.047    29.158     8.854
   434   1 H      0.926     0.057     2.238     2.340
   435   6 C      2.757     0.256    22.691     7.800
   436   8 O      0.857    -0.531    24.482     6.634
   437   7 N      2.688    -0.155    24.348     7.329
   438   1 H      0.860     0.239     0.927     1.508
   439   6 C      3.799     0.006    20.475     6.443
   440   1 H      0.925     0.072     2.068     2.249
   441   6 C      3.744     0.128    18.569     6.147
   442   1 H      0.925     0.022     2.696     2.568
   443   6 C      3.772    -0.109    22.617     6.777
   444   1 H      0.925     0.040     2.448     2.447
   445   1 H      0.924     0.061     2.182     2.310
   446   1 H      0.924     0.027     2.623     2.533
   447   8 O      1.676    -0.492    22.704     6.433
   448   1 H      0.805     0.334     0.626     1.243
   449   6 C      2.761     0.276    22.327     7.738
   450   8 O      0.864    -0.444    22.583     6.372
   451   7 N      2.700    -0.159    24.433     7.341
   452   1 H      0.860     0.195     1.131     1.666
   453   6 C      3.799     0.012    20.370     6.426
   454   1 H      0.925     0.097     1.811     2.104
   455   6 C      3.852    -0.038    21.218     6.552
   456   1 H      0.925     0.070     2.088     2.260
   457   6 C      3.746    -0.133    23.123     6.859
   458   1 H      0.925     0.077     2.006     2.215
   459   1 H      0.924     0.035     2.522     2.484
   460   1 H      0.925     0.039     2.464     2.455
   461   6 C      3.798    -0.077    21.970     6.674
   462   1 H      0.924     0.053     2.287     2.365
   463   1 H      0.925     0.043     2.415     2.430
   464   6 C      3.745    -0.129    23.047     6.848
   465   1 H      0.925     0.049     2.336     2.390
   466   1 H      0.925     0.057     2.239     2.340
   467   1 H      0.925     0.068     2.112     2.273
   468   6 C      2.753     0.285    22.167     7.710
   469   8 O      0.864    -0.483    23.409     6.487
   470   7 N      2.687    -0.180    24.889     7.410
   471   1 H      0.860     0.226     0.982     1.552
   472   6 C      3.726    -0.030    21.215     6.576
   473   1 H      0.925     0.062     2.173     2.305
   474   1 H      0.925     0.101     1.780     2.086
   475   6 C      2.736     0.258    22.650     7.792
   476   8 O      0.857    -0.462    22.962     6.425
   477   7 N      2.685    -0.157    24.398     7.336
   478   1 H      0.860     0.187     1.177     1.700
   479   6 C      3.787     0.012    20.383     6.430
   480   1 H      0.925     0.078     1.995     2.209
   481   6 C      3.854    -0.009    20.698     6.471
   482   1 H      0.924     0.034     2.537     2.491
   483   6 C      3.772    -0.111    22.660     6.783
   484   1 H      0.925     0.013     2.842     2.637
   485   1 H      0.925     0.043     2.408     2.427
   486   1 H      0.925     0.064     2.155     2.296
   487   6 C      3.811    -0.072    21.863     6.656
   488   1 H      0.925     0.037     2.494     2.469
   489   1 H      0.925     0.065     2.143     2.289
   490   6 C      3.745    -0.120    22.874     6.822
   491   1 H      0.925     0.059     2.205     2.322
   492   1 H      0.925     0.058     2.220     2.330
   493   1 H      0.924     0.030     2.585     2.514
   494   6 C      2.743     0.257    22.680     7.798
   495   8 O      0.856    -0.486    23.471     6.495
   496   7 N      2.682    -0.188    25.070     7.436
   497   1 H      0.860     0.231     0.960     1.534
   498   6 C      3.742    -0.024    21.078     6.550
   499   1 H      0.924     0.091     1.872     2.140
   500   1 H      0.925     0.107     1.724     2.053
   501   6 C      2.748     0.283    22.214     7.718
   502   8 O      0.861    -0.497    23.711     6.529
   503   7 N      2.682    -0.181    24.924     7.415
   504   1 H      0.860     0.216     1.029     1.589
   505   6 C      3.776     0.026    20.163     6.398
   506   1 H      0.925     0.057     2.240     2.340
   507   6 C      3.799    -0.083    22.089     6.692
   508   1 H      0.925     0.110     1.700     2.039
   509   1 H      0.924     0.094     1.837     2.119
   510   6 C      3.102     0.060    26.536     8.441
   511   7 N      2.780    -0.022    21.664     6.913
   512   1 H      0.860     0.258     0.853     1.447
   513   6 C      2.996     0.072    26.375     8.424
   514   1 H      0.926     0.150     1.390     1.843
   515   7 N      2.828    -0.035    21.924     6.954
   516   1 H      0.860     0.273     0.800     1.401
   517   6 C      2.981    -0.000    28.033     8.685
   518   1 H      0.926     0.126     1.562     1.955
   519   6 C      2.741     0.265    22.519     7.770
   520   8 O      0.860    -0.484    23.431     6.490
   521   7 N      2.684    -0.158    24.429     7.341
   522   1 H      0.860     0.199     1.110     1.650
   523   6 C      3.772     0.015    20.348     6.428
   524   1 H      0.925     0.070     2.088     2.260
   525   6 C      3.803    -0.078    21.987     6.676
   526   1 H      0.925     0.051     2.310     2.377
   527   1 H      0.924     0.045     2.381     2.413
   528   6 C      3.843    -0.012    20.756     6.481
   529   1 H      0.924     0.030     2.583     2.514
   530   6 C      3.747    -0.120    22.860     6.820
   531   1 H      0.925     0.039     2.469     2.457
   532   1 H      0.924     0.061     2.184     2.311
   533   1 H      0.924     0.038     2.482     2.463
   534   6 C      3.759    -0.122    22.887     6.820
   535   1 H      0.924     0.041     2.435     2.440
   536   1 H      0.925     0.064     2.158     2.297
   537   1 H      0.925     0.046     2.371     2.408
   538   6 C      2.739     0.276    22.334     7.738
   539   8 O      0.857    -0.469    23.117     6.446
   540   7 N      2.686    -0.201    25.364     7.480
   541   1 H      0.860     0.241     0.921     1.503
   542   6 C      3.792     0.024    20.184     6.398
   543   1 H      0.925     0.075     2.034     2.230
   544   6 C      3.830    -0.073    21.876     6.655
   545   1 H      0.925     0.048     2.341     2.393
   546   1 H      0.925     0.057     2.232     2.336
   547   6 C      3.852    -0.017    20.848     6.494
   548   1 H      0.924     0.035     2.513     2.479
   549   6 C      3.760    -0.131    23.064     6.846
   550   1 H      0.925     0.047     2.363     2.404
   551   1 H      0.925     0.066     2.129     2.282
   552   1 H      0.925     0.069     2.093     2.263
   553   6 C      3.768    -0.129    23.022     6.838
   554   1 H      0.925     0.054     2.274     2.358
   555   1 H      0.924     0.060     2.204     2.322
   556   1 H      0.925     0.025     2.659     2.550
   557   6 C      2.748     0.262    22.584     7.781
   558   8 O      0.859    -0.519    24.200     6.596
   559   7 N      2.683    -0.168    24.638     7.372
   560   1 H      0.860     0.224     0.991     1.560
   561   6 C      3.784     0.011    20.411     6.435
   562   1 H      0.925     0.064     2.154     2.295
   563   6 C      3.719     0.112    18.849     6.201
   564   1 H      0.924     0.030     2.592     2.518
   565   6 C      3.751    -0.129    23.037     6.845
   566   1 H      0.925     0.047     2.362     2.403
   567   1 H      0.924     0.083     1.951     2.184
   568   1 H      0.924     0.058     2.228     2.334
   569   8 O      1.655    -0.476    22.379     6.386
   570   1 H      0.807     0.354     0.578     1.194
   571   6 C      2.748     0.270    22.439     7.756
   572   8 O      0.865    -0.465    23.025     6.434
   573   7 N      2.689    -0.179    24.868     7.406
   574   1 H      0.860     0.206     1.078     1.626
   575   6 C      3.780     0.012    20.391     6.433
   576   1 H      0.925     0.101     1.780     2.086
   577   6 C      3.802    -0.090    22.223     6.712
   578   1 H      0.924     0.087     1.910     2.162
   579   1 H      0.925     0.078     2.005     2.214
   580   6 C      3.798    -0.079    22.012     6.680
   581   1 H      0.924     0.052     2.292     2.367
   582   1 H      0.925     0.059     2.216     2.328
   583   6 C      3.800    -0.100    22.410     6.740
   584   1 H      0.925     0.083     1.949     2.183
   585   1 H      0.925     0.081     1.965     2.192
   586   6 C      3.725    -0.049    21.560     6.630
   587   1 H      0.925     0.125     1.572     1.961
   588   1 H      0.924     0.120     1.617     1.989
   589   7 N      3.483    -0.152    24.287     7.320
   590   1 H      0.860     0.290     0.745     1.352
   591   1 H      0.860     0.302     0.708     1.318
   592   1 H      0.860     0.297     0.721     1.330
   593   6 C      2.743     0.263    22.571     7.779
   594   8 O      0.857    -0.499    23.755     6.535
   595   7 N      2.686    -0.178    24.845     7.403
   596   1 H      0.860     0.217     1.025     1.586
   597   6 C      3.787     0.024    20.185     6.399
   598   1 H      0.924     0.081     1.973     2.197
   599   6 C      3.683     0.073    19.562     6.333
   600   1 H      0.924     0.051     2.306     2.375
   601   1 H      0.925     0.052     2.297     2.370
   602   8 O      1.658    -0.472    22.303     6.375
   603   1 H      0.805     0.342     0.608     1.225
   604   6 C      2.755     0.264    22.546     7.775
   605   8 O      0.863    -0.492    23.612     6.515
   606   7 N      2.741    -0.078    22.762     7.086
   607   6 C      3.849    -0.011    20.746     6.479
   608   1 H      0.925     0.063     2.168     2.303
   609   1 H      0.925     0.065     2.142     2.289
   610   6 C      3.803    -0.080    22.035     6.683
   611   1 H      0.925     0.078     2.002     2.213
   612   1 H      0.924     0.059     2.212     2.326
   613   6 C      3.873    -0.074    21.866     6.649
   614   1 H      0.925     0.073     2.053     2.240
   615   1 H      0.925     0.073     2.050     2.239
   616   6 C      3.834     0.019    20.235     6.400
   617   1 H      0.924     0.093     1.850     2.127
   618   6 C      2.742     0.265    22.522     7.770
   619   8 O      0.858    -0.478    23.305     6.472
   620   7 N      2.680    -0.182    24.936     7.416
   621   1 H      0.860     0.193     1.143     1.675
   622   6 C      3.775     0.014    20.365     6.430
   623   1 H      0.925     0.090     1.881     2.145
   624   6 C      3.668     0.058    19.855     6.389
   625   1 H      0.925     0.052     2.292     2.368
   626   1 H      0.925     0.065     2.145     2.290
   627   8 O      1.654    -0.462    22.092     6.345
   628   1 H      0.805     0.333     0.630     1.247
   629   6 C      2.749     0.269    22.465     7.761
   630   8 O      0.858    -0.505    23.902     6.555
   631   7 N      2.687    -0.164    24.541     7.358
   632   1 H      0.860     0.226     0.983     1.553
   633   6 C      3.783     0.005    20.512     6.451
   634   1 H      0.925     0.102     1.764     2.077
   635   6 C      3.796    -0.087    22.167     6.704
   636   1 H      0.925     0.060     2.200     2.319
   637   1 H      0.925     0.072     2.058     2.244
   638   6 C      3.845    -0.024    20.968     6.514
   639   1 H      0.924     0.044     2.402     2.424
   640   6 C      3.759    -0.132    23.077     6.849
   641   1 H      0.924     0.058     2.223     2.332
   642   1 H      0.925     0.053     2.280     2.361
   643   1 H      0.924     0.037     2.488     2.467
   644   6 C      3.753    -0.141    23.269     6.879
   645   1 H      0.924     0.075     2.028     2.227
   646   1 H      0.925     0.052     2.292     2.367
   647   1 H      0.924     0.050     2.316     2.380
   648   6 C      2.753     0.266    22.516     7.770
   649   8 O      0.860    -0.462    22.958     6.424
   650   7 N      2.688    -0.180    24.896     7.411
   651   1 H      0.860     0.226     0.981     1.551
   652   6 C      3.803     0.029    20.090     6.381
   653   1 H      0.925     0.102     1.766     2.078
   654   6 C      3.804    -0.108    22.564     6.763
   655   1 H      0.924     0.095     1.827     2.114
   656   1 H      0.924     0.106     1.735     2.060
   657   6 C      2.747     0.277    22.318     7.735
   658   8 O      0.862    -0.530    24.463     6.631
   659   7 N      2.638    -0.285    27.358     7.768
   660   1 H      0.860     0.244     0.909     1.493
   661   1 H      0.860     0.239     0.927     1.508
   662   6 C      2.754     0.276    22.336     7.739
   663   8 O      0.857    -0.475    23.245     6.464
   664   7 N      2.687    -0.208    25.520     7.503
   665   1 H      0.860     0.217     1.023     1.584
   666   6 C      3.796     0.034    20.013     6.370
   667   1 H      0.924     0.072     2.062     2.246
   668   6 C      3.757    -0.129    23.028     6.842
   669   1 H      0.925     0.073     2.053     2.240
   670   1 H      0.924     0.066     2.133     2.284
   671   1 H      0.925     0.052     2.294     2.368
   672   6 C      2.755     0.274    22.370     7.745
   673   8 O      0.860    -0.524    24.321     6.612
   674   7 N      2.684    -0.175    24.780     7.393
   675   1 H      0.860     0.233     0.953     1.529
   676   6 C      3.781     0.021    20.234     6.408
   677   1 H      0.925     0.063     2.168     2.302
   678   6 C      3.747    -0.140    23.259     6.879
   679   1 H      0.925     0.095     1.831     2.116
   680   1 H      0.925     0.071     2.078     2.254
   681   1 H      0.924     0.080     1.974     2.197
   682   6 C      2.748     0.265    22.528     7.772
   683   8 O      0.860    -0.499    23.755     6.535
   684   7 N      2.688    -0.176    24.804     7.397
   685   1 H      0.860     0.229     0.968     1.541
   686   6 C      3.796     0.014    20.339     6.422
   687   1 H      0.924     0.097     1.813     2.106
   688   6 C      3.810    -0.086    22.124     6.695
   689   1 H      0.925     0.068     2.106     2.269
   690   1 H      0.924     0.073     2.058     2.243
   691   6 C      3.802    -0.093    22.264     6.718
   692   1 H      0.925     0.085     1.929     2.172
   693   1 H      0.924     0.068     2.102     2.268
   694   6 C      3.788    -0.098    22.386     6.739
   695   1 H      0.925     0.063     2.165     2.301
   696   1 H      0.925     0.085     1.931     2.173
   697   6 C      3.727    -0.063    21.811     6.668
   698   1 H      0.924     0.134     1.508     1.920
   699   1 H      0.925     0.117     1.639     2.002
   700   7 N      3.489    -0.142    24.061     7.285
   701   1 H      0.860     0.282     0.768     1.373
   702   1 H      0.860     0.292     0.738     1.346
   703   1 H      0.860     0.305     0.698     1.309
   704   6 C      2.765     0.270    22.438     7.757
   705   8 O      0.859    -0.502    23.837     6.546
   706   7 N      2.688    -0.179    24.882     7.408
   707   1 H      0.860     0.239     0.926     1.507
   708   6 C      3.806     0.026    20.126     6.386
   709   1 H      0.924     0.083     1.944     2.180
   710   6 C      3.692     0.075    19.498     6.318
   711   1 H      0.925     0.042     2.427     2.436
   712   1 H      0.925     0.041     2.442     2.444
   713   8 O      1.655    -0.465    22.148     6.353
   714   1 H      0.805     0.341     0.608     1.225
   715   6 C      2.800     0.271    22.428     7.758
   716   8 O      0.858    -0.535    24.575     6.646
   717   7 N      2.685    -0.168    24.632     7.371
   718   1 H      0.860     0.230     0.966     1.540
   719   6 C      3.823     0.040    19.893     6.347
   720   1 H      0.925     0.064     2.151     2.294
   721   6 C      3.806    -0.048    21.423     6.589
   722   1 H      0.925     0.046     2.373     2.409
   723   1 H      0.924     0.043     2.405     2.425
   724   6 C      3.797    -0.087    22.164     6.703
   725   1 H      0.924     0.035     2.521     2.483
   726   1 H      0.925     0.039     2.468     2.457
   727   6 C      2.683     0.355    20.971     7.494
   728   8 O      0.856    -0.670    27.892     7.081
   729   8 O      0.856    -0.649    27.367     7.014
   730   6 C      2.742     0.270    22.433     7.755
   731   8 O      0.858    -0.486    23.478     6.496
   732   7 N      2.681    -0.187    25.049     7.433
   733   1 H      0.860     0.219     1.016     1.579
   734   6 C      3.778     0.017    20.308     6.420
   735   1 H      0.925     0.071     2.075     2.253
   736   6 C      3.790    -0.089    22.212     6.712
   737   1 H      0.925     0.070     2.084     2.257
   738   1 H      0.924     0.090     1.884     2.146
   739   6 C      3.841    -0.014    20.802     6.488
   740   1 H      0.924     0.024     2.674     2.557
   741   6 C      3.752    -0.124    22.947     6.831
   742   1 H      0.925     0.068     2.109     2.271
   743   1 H      0.925     0.024     2.675     2.558
   744   1 H      0.924     0.050     2.317     2.380
   745   6 C      3.757    -0.131    23.061     6.847
   746   1 H      0.924     0.075     2.032     2.229
   747   1 H      0.924     0.058     2.221     2.331
   748   1 H      0.924     0.048     2.345     2.395
   749   6 C      2.746     0.275    22.342     7.739
   750   8 O      0.856    -0.478    23.297     6.471
   751   7 N      2.681    -0.220    25.797     7.543
   752   1 H      0.860     0.232     0.958     1.533
   753   6 C      3.785     0.043    19.866     6.349
   754   1 H      0.925     0.056     2.241     2.341
   755   6 C      3.797    -0.097    22.349     6.731
   756   1 H      0.924     0.033     2.539     2.492
   757   1 H      0.925     0.058     2.222     2.331
   758   6 C      2.688     0.380    20.568     7.422
   759   8 O      0.858    -0.643    27.207     6.993
   760   8 O      0.858    -0.641    27.138     6.984
   761   6 C      2.746     0.294    22.004     7.681
   762   8 O      0.858    -0.516    24.146     6.588
   763   7 N      2.671    -0.208    25.527     7.504
   764   1 H      0.860     0.200     1.105     1.647
   765   6 C      3.768     0.011    20.431     6.442
   766   1 H      0.925     0.072     2.063     2.246
   767   6 C      3.799    -0.067    21.779     6.645
   768   1 H      0.925     0.069     2.094     2.263
   769   1 H      0.924     0.053     2.287     2.365
   770   6 C      3.792    -0.074    21.925     6.668
   771   1 H      0.924     0.046     2.375     2.410
   772   1 H      0.925     0.049     2.338     2.391
   773   6 C      3.778    -0.092    22.283     6.725
   774   1 H      0.925     0.082     1.955     2.186
   775   1 H      0.924     0.072     2.059     2.244
   776   6 C      3.719    -0.055    21.679     6.651
   777   1 H      0.924     0.120     1.616     1.988
   778   1 H      0.925     0.130     1.538     1.939
   779   7 N      3.486    -0.132    23.863     7.255
   780   1 H      0.860     0.308     0.689     1.301
   781   1 H      0.860     0.301     0.709     1.319
   782   1 H      0.860     0.282     0.771     1.375
   783   6 C      2.747     0.278    22.304     7.733
   784   8 O      0.860    -0.495    23.663     6.522
   785   7 N      2.689    -0.173    24.751     7.389
   786   1 H      0.860     0.215     1.033     1.592
   787   6 C      3.789     0.018    20.282     6.414
   788   1 H      0.924     0.086     1.923     2.168
   789   6 C      3.751    -0.125    22.952     6.832
   790   1 H      0.924     0.068     2.105     2.269
   791   1 H      0.924     0.066     2.128     2.281
   792   1 H      0.925     0.067     2.124     2.279
   793   6 C      2.744     0.278    22.289     7.730
   794   8 O      0.862    -0.499    23.756     6.535
   795   7 N      2.686    -0.187    25.056     7.434
   796   1 H      0.860     0.216     1.029     1.589
   797   6 C      3.777     0.003    20.562     6.460
   798   1 H      0.925     0.093     1.853     2.129
   799   6 C      3.854    -0.016    20.823     6.490
   800   1 H      0.925     0.076     2.021     2.223
   801   6 C      3.752    -0.109    22.638     6.785
   802   1 H      0.924     0.025     2.658     2.549
   803   1 H      0.925     0.025     2.662     2.552
   804   1 H      0.925     0.052     2.298     2.371
   805   6 C      3.806    -0.063    21.705     6.632
   806   1 H      0.924     0.047     2.359     2.402
   807   1 H      0.925     0.066     2.129     2.282
   808   6 C      3.759    -0.115    22.758     6.801
   809   1 H      0.925     0.056     2.245     2.343
   810   1 H      0.925     0.037     2.492     2.468
   811   1 H      0.925     0.026     2.643     2.542
   812   6 C      2.731     0.273    22.382     7.745
   813   8 O      0.859    -0.476    23.266     6.467
   814   7 N      2.680    -0.174    24.773     7.392
   815   1 H      0.860     0.190     1.156     1.684
   816   6 C      3.727    -0.041    21.402     6.605
   817   1 H      0.925     0.107     1.720     2.051
   818   1 H      0.924     0.093     1.852     2.128
   819   6 C      2.747     0.273    22.381     7.746
   820   8 O      0.857    -0.473    23.190     6.456
   821   7 N      2.686    -0.160    24.453     7.344
   822   1 H      0.860     0.197     1.123     1.660
   823   6 C      3.789     0.017    20.300     6.417
   824   1 H      0.925     0.067     2.115     2.274
   825   6 C      3.797    -0.086    22.152     6.702
   826   1 H      0.925     0.076     2.019     2.222
   827   1 H      0.925     0.070     2.089     2.260
   828   6 C      3.789    -0.078    22.003     6.681
   829   1 H      0.925     0.062     2.170     2.304
   830   1 H      0.925     0.080     1.975     2.198
   831   6 C      3.727    -0.015    20.936     6.533
   832   1 H      0.924     0.090     1.882     2.146
   833   1 H      0.924     0.055     2.260     2.351
   834   7 N      2.696    -0.172    24.711     7.383
   835   1 H      0.860     0.248     0.892     1.479
   836   6 C      2.735     0.241    22.963     7.845
   837   7 N      2.659    -0.278    27.180     7.743
   838   1 H      0.860     0.237     0.934     1.514
   839   1 H      0.860     0.236     0.941     1.520
   840   7 N      2.658    -0.289    27.454     7.782
   841   1 H      0.860     0.221     1.003     1.569
   842   1 H      0.860     0.244     0.907     1.492
   843   6 C      2.742     0.278    22.290     7.730
   844   8 O      0.860    -0.464    23.002     6.430
   845   7 N      2.701    -0.180    24.895     7.410
   846   1 H      0.860     0.210     1.054     1.608
   847   6 C      3.798     0.033    20.025     6.372
   848   1 H      0.925     0.060     2.199     2.319
   849   6 C      3.811    -0.114    22.660     6.776
   850   1 H      0.924     0.088     1.894     2.152
   851   1 H      0.925     0.068     2.103     2.268
   852   6 C      2.746     0.291    22.059     7.690
   853   8 O      0.861    -0.505    23.893     6.554
   854   7 N      2.643    -0.264    26.856     7.697
   855   1 H      0.860     0.254     0.869     1.461
   856   1 H      0.860     0.232     0.957     1.532
   857   6 C      2.763     0.274    22.372     7.746
   858   8 O      0.861    -0.463    22.985     6.428
   859   7 N      2.689    -0.151    24.269     7.317
   860   1 H      0.860     0.205     1.080     1.628
   861   6 C      3.805     0.005    20.496     6.445
   862   1 H      0.924     0.108     1.718     2.050
   863   6 C      3.791    -0.028    21.084     6.539
   864   1 H      0.925     0.053     2.283     2.363
   865   1 H      0.925     0.106     1.735     2.060
   866  16 S      1.907    -0.258   152.135    20.760
   867   1 H      0.923     0.155     1.362     1.825
   868   6 C      2.739     0.265    22.524     7.770
   869   8 O      0.860    -0.443    22.563     6.369
   870   7 N      2.680    -0.185    25.011     7.428
   871   1 H      0.860     0.204     1.088     1.634
   872   6 C      3.782     0.016    20.330     6.423
   873   1 H      0.925     0.096     1.820     2.110
   874   6 C      3.808    -0.110    22.587     6.765
   875   1 H      0.925     0.097     1.817     2.108
   876   1 H      0.924     0.078     1.997     2.210
   877   6 C      2.743     0.305    21.824     7.649
   878   8 O      0.871    -0.461    22.938     6.422
   879   7 N      2.646    -0.298    27.681     7.814
   880   1 H      0.860     0.252     0.874     1.464
   881   1 H      0.860     0.206     1.074     1.623
   882   6 C      2.743     0.268    22.481     7.763
   883   8 O      0.864    -0.429    22.261     6.326
   884   7 N      2.687    -0.175    24.785     7.394
   885   1 H      0.860     0.187     1.176     1.698
   886   6 C      3.735    -0.044    21.444     6.609
   887   1 H      0.924     0.131     1.525     1.931
   888   1 H      0.924     0.111     1.687     2.031
   889   6 C      2.750     0.265    22.521     7.771
   890   8 O      0.859    -0.474    23.208     6.459
   891   7 N      2.683    -0.151    24.270     7.317
   892   1 H      0.860     0.182     1.202     1.717
   893   6 C      3.786     0.008    20.460     6.443
   894   1 H      0.924     0.093     1.847     2.125
   895   6 C      3.849    -0.008    20.683     6.469
   896   1 H      0.925     0.036     2.506     2.476
   897   6 C      3.764    -0.129    23.018     6.838
   898   1 H      0.925     0.058     2.219     2.329
   899   1 H      0.925     0.059     2.205     2.322
   900   1 H      0.924     0.055     2.262     2.352
   901   6 C      3.761    -0.116    22.767     6.802
   902   1 H      0.924     0.055     2.263     2.352
   903   1 H      0.925     0.048     2.346     2.395
   904   1 H      0.924     0.030     2.583     2.513
   905   6 C      2.748     0.271    22.427     7.754
   906   8 O      0.861    -0.487    23.493     6.499
   907   7 N      2.687    -0.186    25.022     7.429
   908   1 H      0.860     0.228     0.973     1.545
   909   6 C      3.790     0.016    20.320     6.420
   910   1 H      0.925     0.061     2.183     2.311
   911   6 C      3.842    -0.025    20.990     6.517
   912   1 H      0.925     0.041     2.436     2.441
   913   6 C      3.747    -0.107    22.618     6.784
   914   1 H      0.924     0.048     2.345     2.395
   915   1 H      0.925     0.048     2.339     2.392
   916   1 H      0.924     0.026     2.649     2.545
   917   6 C      3.800    -0.071    21.857     6.656
   918   1 H      0.925     0.043     2.406     2.426
   919   1 H      0.925     0.066     2.132     2.283
   920   6 C      3.750    -0.114    22.751     6.803
   921   1 H      0.925     0.041     2.442     2.444
   922   1 H      0.925     0.029     2.599     2.521
   923   1 H      0.925     0.046     2.370     2.407
   924   6 C      2.750     0.275    22.342     7.740
   925   8 O      0.860    -0.465    23.020     6.433
   926   7 N      2.689    -0.178    24.847     7.403
   927   1 H      0.860     0.213     1.043     1.600
   928   6 C      3.776    -0.000    20.614     6.469
   929   1 H      0.925     0.075     2.032     2.229
   930   6 C      3.725     0.115    18.792     6.190
   931   1 H      0.924     0.033     2.539     2.492
   932   6 C      3.746    -0.147    23.404     6.901
   933   1 H      0.925     0.051     2.306     2.375
   934   1 H      0.924     0.065     2.144     2.290
   935   1 H      0.925     0.057     2.231     2.336
   936   8 O      1.660    -0.512    23.150     6.495
   937   1 H      0.807     0.340     0.611     1.228
   938   6 C      2.741     0.268    22.475     7.762
   939   8 O      0.859    -0.487    23.502     6.500
   940   7 N      2.680    -0.173    24.735     7.386
   941   1 H      0.860     0.218     1.018     1.581
   942   6 C      3.773    -0.003    20.658     6.476
   943   1 H      0.925     0.115     1.658     2.013
   944   6 C      3.792    -0.093    22.291     6.724
   945   1 H      0.925     0.058     2.222     2.331
   946   1 H      0.925     0.097     1.814     2.106
   947   6 C      3.811    -0.071    21.855     6.654
   948   1 H      0.924     0.074     2.046     2.237
   949   1 H      0.925     0.036     2.505     2.475
   950   6 C      3.811    -0.098    22.350     6.729
   951   1 H      0.925     0.073     2.054     2.241
   952   1 H      0.925     0.097     1.816     2.107
   953   6 C      3.743    -0.058    21.687     6.644
   954   1 H      0.925     0.128     1.551     1.948
   955   1 H      0.924     0.105     1.737     2.061
   956   7 N      3.491    -0.146    24.149     7.299
   957   1 H      0.860     0.307     0.692     1.303
   958   1 H      0.860     0.294     0.731     1.339
   959   1 H      0.860     0.310     0.683     1.295
   960   6 C      2.756     0.273    22.394     7.749
   961   8 O      0.862    -0.503    23.850     6.548
   962   7 N      2.690    -0.162    24.514     7.353
   963   1 H      0.860     0.208     1.065     1.617
   964   6 C      3.805     0.040    19.897     6.350
   965   1 H      0.925     0.078     1.996     2.209
   966   6 C      3.810    -0.090    22.210     6.708
   967   1 H      0.925     0.026     2.644     2.543
   968   1 H      0.924     0.043     2.415     2.430
   969   6 C      2.690     0.366    20.787     7.462
   970   8 O      0.856    -0.667    27.834     7.073
   971   8 O      0.856    -0.642    27.183     6.990
   972   6 C      2.755     0.284    22.190     7.714
   973   8 O      0.861    -0.512    24.053     6.575
   974   7 N      2.683    -0.187    25.055     7.434
   975   1 H      0.860     0.216     1.030     1.590
   976   6 C      3.797     0.027    20.117     6.387
   977   1 H      0.925     0.071     2.075     2.253
   978   6 C      3.808    -0.062    21.687     6.629
   979   1 H      0.925     0.059     2.214     2.327
   980   1 H      0.925     0.073     2.057     2.243
   981   6 C      3.803    -0.098    22.361     6.732
   982   1 H      0.925     0.045     2.379     2.412
   983   1 H      0.925     0.039     2.459     2.452
   984   6 C      2.686     0.370    20.731     7.451
   985   8 O      0.857    -0.601    26.141     6.855
   986   8 O      0.857    -0.552    24.978     6.701
   987   6 C      2.764     0.268    22.483     7.765
   988   8 O      0.858    -0.483    23.407     6.487
   989   7 N      2.686    -0.176    24.817     7.399
   990   1 H      0.860     0.223     0.995     1.563
   991   6 C      3.811     0.019    20.250     6.405
   992   1 H      0.924     0.074     2.047     2.237
   993   6 C      3.766    -0.134    23.109     6.852
   994   1 H      0.925     0.067     2.122     2.278
   995   1 H      0.925     0.088     1.901     2.156
   996   1 H      0.925     0.068     2.105     2.269
   997   6 C      2.762     0.269    22.459     7.761
   998   8 O      0.858    -0.486    23.484     6.497
   999   7 N      2.697    -0.179    24.869     7.407
  1000   1 H      0.860     0.238     0.931     1.512
  1001   6 C      3.799     0.024    20.170     6.395
  1002   1 H      0.925     0.080     1.983     2.202
  1003   6 C      3.814    -0.048    21.417     6.587
  1004   1 H      0.925     0.028     2.620     2.531
  1005   1 H      0.924     0.068     2.103     2.268
  1006   6 C      3.806    -0.088    22.177     6.704
  1007   1 H      0.925     0.046     2.373     2.409
  1008   1 H      0.924     0.018     2.768     2.602
  1009   6 C      2.693     0.365    20.811     7.466
  1010   8 O      0.857    -0.653    27.453     7.025
  1011   8 O      0.856    -0.589    25.853     6.817
  1012   6 C      2.751     0.263    22.562     7.778
  1013   8 O      0.859    -0.496    23.689     6.526
  1014   7 N      2.681    -0.196    25.251     7.463
  1015   1 H      0.860     0.188     1.169     1.693
  1016   6 C      3.785     0.013    20.368     6.428
  1017   1 H      0.924     0.079     1.989     2.205
  1018   6 C      3.804    -0.080    22.033     6.682
  1019   1 H      0.924     0.064     2.151     2.294
  1020   1 H      0.925     0.064     2.151     2.293
  1021   6 C      3.809    -0.075    21.930     6.666
  1022   1 H      0.925     0.056     2.243     2.342
  1023   1 H      0.924     0.051     2.304     2.374
  1024   6 C      3.812    -0.111    22.601     6.767
  1025   1 H      0.925     0.086     1.921     2.167
  1026   1 H      0.925     0.102     1.764     2.077
  1027   6 C      3.738    -0.053    21.604     6.632
  1028   1 H      0.925     0.119     1.621     1.991
  1029   1 H      0.925     0.113     1.670     2.021
  1030   7 N      3.494    -0.145    24.128     7.295
  1031   1 H      0.860     0.295     0.729     1.338
  1032   1 H      0.860     0.301     0.709     1.319
  1033   1 H      0.860     0.305     0.698     1.309
  1034   6 C      2.748     0.276    22.335     7.738
  1035   8 O      0.861    -0.489    23.551     6.507
  1036   7 N      2.688    -0.191    25.137     7.446
  1037   1 H      0.860     0.214     1.035     1.594
  1038   6 C      3.785     0.022    20.216     6.404
  1039   1 H      0.925     0.086     1.918     2.166
  1040   6 C      3.815    -0.083    22.073     6.687
  1041   1 H      0.925     0.067     2.121     2.278
  1042   1 H      0.924     0.071     2.077     2.253
  1043   6 C      3.850    -0.016    20.822     6.490
  1044   1 H      0.925     0.036     2.502     2.474
  1045   6 C      3.760    -0.125    22.954     6.830
  1046   1 H      0.924     0.045     2.378     2.411
  1047   1 H      0.925     0.051     2.303     2.373
  1048   1 H      0.924     0.033     2.539     2.492
  1049   6 C      3.765    -0.129    23.015     6.838
  1050   1 H      0.925     0.065     2.137     2.286
  1051   1 H      0.924     0.045     2.378     2.411
  1052   1 H      0.925     0.034     2.527     2.486
  1053   6 C      2.745     0.281    22.250     7.723
  1054   8 O      0.859    -0.491    23.585     6.511
  1055   7 N      2.689    -0.200    25.350     7.478
  1056   1 H      0.860     0.217     1.024     1.585
  1057   6 C      3.784     0.031    20.075     6.382
  1058   1 H      0.924     0.070     2.087     2.259
  1059   6 C      3.810    -0.081    22.040     6.683
  1060   1 H      0.924     0.065     2.147     2.291
  1061   1 H      0.925     0.082     1.958     2.188
  1062   6 C      2.958     0.003    27.966     8.674
  1063   6 C      2.908    -0.036    28.900     8.815
  1064   1 H      0.926     0.022     2.705     2.572
  1065   6 C      2.905    -0.031    28.784     8.797
  1066   1 H      0.926     0.044     2.398     2.422
  1067   6 C      2.907    -0.035    28.871     8.810
  1068   1 H      0.926     0.044     2.396     2.421
  1069   6 C      2.904    -0.040    29.000     8.830
  1070   1 H      0.926     0.063     2.165     2.301
  1071   6 C      2.903    -0.052    29.302     8.876
  1072   1 H      0.926     0.052     2.292     2.367
  1073   6 C      2.745     0.273    22.389     7.748
  1074   8 O      0.860    -0.531    24.474     6.633
  1075   7 N      2.678    -0.178    24.845     7.403
  1076   1 H      0.860     0.229     0.969     1.542
  1077   6 C      3.770     0.017    20.317     6.423
  1078   1 H      0.925     0.088     1.898     2.155
  1079   6 C      3.801    -0.109    22.590     6.767
  1080   1 H      0.924     0.082     1.963     2.191
  1081   1 H      0.925     0.093     1.855     2.130
  1082   6 C      2.746     0.289    22.102     7.698
  1083   8 O      0.863    -0.519    24.208     6.597
  1084   7 N      2.647    -0.268    26.936     7.708
  1085   1 H      0.860     0.255     0.865     1.457
  1086   1 H      0.860     0.223     0.997     1.564
  1087   6 C      2.738     0.281    22.249     7.723
  1088   8 O      0.858    -0.456    22.832     6.406
  1089   7 N      2.677    -0.192    25.167     7.451
  1090   1 H      0.860     0.211     1.050     1.605
  1091   6 C      3.776     0.012    20.402     6.436
  1092   1 H      0.925     0.086     1.923     2.169
  1093   6 C      3.797    -0.054    21.554     6.611
  1094   1 H      0.925     0.070     2.087     2.259
  1095   1 H      0.924     0.056     2.246     2.344
  1096   6 C      3.802    -0.105    22.504     6.754
  1097   1 H      0.924     0.078     2.001     2.212
  1098   1 H      0.924     0.066     2.128     2.281
  1099   6 C      2.735     0.274    22.357     7.741
  1100   8 O      0.857    -0.515    24.122     6.585
  1101   7 N      2.638    -0.271    27.015     7.719
  1102   1 H      0.860     0.251     0.880     1.469
  1103   1 H      0.860     0.246     0.900     1.486
  1104   6 C      2.743     0.268    22.477     7.763
  1105   8 O      0.857    -0.479    23.318     6.474
  1106   7 N      2.689    -0.184    24.976     7.422
  1107   1 H      0.860     0.201     1.101     1.644
  1108   6 C      3.791     0.045    19.834     6.342
  1109   1 H      0.924     0.070     2.085     2.258
  1110   6 C      3.807    -0.083    22.082     6.689
  1111   1 H      0.924     0.038     2.471     2.458
  1112   1 H      0.925     0.049     2.337     2.391
  1113   6 C      2.688     0.376    20.637     7.434
  1114   8 O      0.861    -0.644    27.210     6.994
  1115   8 O      0.860    -0.607    26.298     6.876
  1116   6 C      2.750     0.268    22.481     7.764
  1117   8 O      0.860    -0.494    23.656     6.521
  1118   7 N      2.688    -0.193    25.178     7.452
  1119   1 H      0.860     0.209     1.063     1.615
  1120   6 C      3.784     0.020    20.261     6.412
  1121   1 H      0.925     0.078     2.000     2.211
  1122   6 C      3.846    -0.022    20.940     6.509
  1123   1 H      0.924     0.031     2.571     2.507
  1124   6 C      3.751    -0.123    22.925     6.828
  1125   1 H      0.925     0.054     2.268     2.355
  1126   1 H      0.925     0.057     2.233     2.337
  1127   1 H      0.925     0.073     2.048     2.238
  1128   6 C      3.751    -0.123    22.923     6.828
  1129   1 H      0.925     0.066     2.135     2.285
  1130   1 H      0.925     0.048     2.341     2.393
  1131   1 H      0.924     0.050     2.314     2.379
  1132   6 C      2.745     0.274    22.365     7.743
  1133   8 O      0.872    -0.449    22.687     6.386
  1134   7 N      2.696    -0.220    25.798     7.544
  1135   1 H      0.860     0.193     1.140     1.672
  1136   6 C      3.783     0.035    19.997     6.370
  1137   1 H      0.924     0.071     2.075     2.253
  1138   6 C      3.798    -0.104    22.490     6.753
  1139   1 H      0.925     0.027     2.630     2.536
  1140   1 H      0.925     0.049     2.337     2.391
  1141   6 C      2.682     0.363    20.842     7.471
  1142   8 O      0.858    -0.606    26.263     6.871
  1143   8 O      0.858    -0.613    26.446     6.895
  1144   6 C      2.760     0.275    22.343     7.741
  1145   8 O      0.864    -0.475    23.234     6.463
  1146   7 N      2.713    -0.163    24.513     7.353
  1147   1 H      0.860     0.199     1.110     1.650
  1148   6 C      3.802     0.027    20.114     6.385
  1149   1 H      0.925     0.098     1.807     2.102
  1150   6 C      3.771    -0.131    23.046     6.841
  1151   1 H      0.924     0.070     2.088     2.260
  1152   1 H      0.924     0.051     2.306     2.375
  1153   1 H      0.925     0.088     1.894     2.152
  1154   6 C      2.756     0.254    22.732     7.807
  1155   8 O      0.859    -0.483    23.416     6.488
  1156   7 N      2.694    -0.174    24.760     7.390
  1157   1 H      0.860     0.194     1.140     1.672
  1158   6 C      3.798     0.037    19.950     6.360
  1159   1 H      0.924     0.092     1.864     2.135
  1160   6 C      3.764    -0.115    22.744     6.798
  1161   1 H      0.924     0.066     2.128     2.281
  1162   1 H      0.925     0.061     2.187     2.313
  1163   1 H      0.925     0.049     2.329     2.386
  1164   6 C      2.744     0.246    22.882     7.832
  1165   8 O      0.857    -0.489    23.537     6.505
  1166   7 N      2.678    -0.188    25.074     7.437
  1167   1 H      0.860     0.214     1.037     1.595
  1168   6 C      3.780     0.017    20.314     6.421
  1169   1 H      0.924     0.115     1.658     2.013
  1170   6 C      3.856    -0.014    20.783     6.484
  1171   1 H      0.924     0.047     2.359     2.402
  1172   6 C      3.759    -0.122    22.895     6.822
  1173   1 H      0.925     0.040     2.453     2.449
  1174   1 H      0.924     0.050     2.322     2.383
  1175   1 H      0.925     0.065     2.136     2.286
  1176   6 C      3.752    -0.127    22.999     6.839
  1177   1 H      0.925     0.044     2.392     2.419
  1178   1 H      0.925     0.049     2.327     2.385
  1179   1 H      0.925     0.067     2.115     2.274
  1180   6 C      2.744     0.262    22.576     7.780
  1181   8 O      0.859    -0.477    23.277     6.469
  1182   7 N      2.683    -0.179    24.882     7.409
  1183   1 H      0.860     0.203     1.092     1.637
  1184   6 C      3.784     0.014    20.354     6.426
  1185   1 H      0.925     0.113     1.675     2.024
  1186   6 C      3.804    -0.092    22.259     6.717
  1187   1 H      0.924     0.085     1.930     2.172
  1188   1 H      0.924     0.049     2.335     2.390
  1189   6 C      3.805    -0.092    22.256     6.716
  1190   1 H      0.925     0.066     2.129     2.282
  1191   1 H      0.925     0.094     1.843     2.123
  1192   6 C      3.733    -0.027    21.144     6.563
  1193   1 H      0.925     0.099     1.792     2.094
  1194   1 H      0.924     0.100     1.780     2.087
  1195   7 N      2.710    -0.161    24.482     7.349
  1196   1 H      0.860     0.200     1.109     1.649
  1197   6 C      2.732     0.246    22.881     7.831
  1198   7 N      2.702    -0.262    26.777     7.685
  1199   1 H      0.860     0.265     0.829     1.426
  1200   1 H      0.860     0.245     0.902     1.487
  1201   7 N      2.712    -0.274    27.076     7.728
  1202   1 H      0.860     0.244     0.907     1.491
  1203   1 H      0.860     0.238     0.931     1.511
  1204   6 C      2.749     0.247    22.850     7.827
  1205   8 O      0.857    -0.467    23.057     6.438
  1206   7 N      2.677    -0.179    24.888     7.409
  1207   1 H      0.860     0.205     1.081     1.628
  1208   6 C      3.747    -0.027    21.117     6.555
  1209   1 H      0.925     0.079     1.988     2.205
  1210   1 H      0.925     0.100     1.783     2.088
  1211   6 C      2.747     0.283    22.200     7.715
  1212   8 O      0.864    -0.495    23.668     6.523
  1213   7 N      2.678    -0.206    25.476     7.496
  1214   1 H      0.860     0.206     1.075     1.624
  1215   6 C      3.757     0.005    20.542     6.462
[...]
  2285  O   1.911        C 2284 1.606    N 2286 0.194
  2286  N   3.404        C 2284 1.329    H 2288 0.926    H 2287 0.915    O 2285 0.194
  2287  H   0.940        N 2286 0.915
  2288  H   0.949        N 2286 0.926
  2289  C   3.947        O 2290 1.661    N 2291 1.282    C 2279 0.925
  2290  O   1.983        C 2289 1.661    N 2291 0.195
  2291  N   3.450        C 2289 1.282    C 2293 0.971    H 2292 0.927    O 2290 0.195
  2292  H   0.960        N 2291 0.927
  2293  C   3.954        C 2295 0.975    N 2291 0.971    H 2294 0.950    C 2313 0.928
  2294  H   0.991        C 2293 0.950
  2295  C   3.986        C 2298 1.005    C 2293 0.975    H 2296 0.975    H 2297 0.967
  2296  H   0.995        C 2295 0.975
  2297  H   0.994        C 2295 0.967
  2298  C   3.986        C 2301 1.007    C 2295 1.005    H 2300 0.973    H 2299 0.965
  2299  H   0.995        C 2298 0.965
  2300  H   0.994        C 2298 0.973
  2301  C   3.945        C 2298 1.007    H 2302 0.965    N 2304 0.963    H 2303 0.959
  2302  H   0.994        C 2301 0.965
  2303  H   0.993        C 2301 0.959
  2304  N   3.458        C 2306 1.344    C 2301 0.963    H 2305 0.862    N 2307 0.104    N 2310 0.102
  2305  H   0.939        N 2304 0.862
  2306  C   3.975        N 2304 1.344    N 2307 1.309    N 2310 1.287
  2307  N   3.393        C 2306 1.309    H 2309 0.922    H 2308 0.920    N 2304 0.104
  2308  H   0.948        N 2307 0.920
  2309  H   0.951        N 2307 0.922
  2310  N   3.362        C 2306 1.287    H 2311 0.926    H 2312 0.888    N 2304 0.102
  2311  H   0.953        N 2310 0.926
  2312  H   0.935        N 2310 0.888
  2313  C   3.956        O 2314 1.623    N 2315 1.322    C 2293 0.928
  2314  O   1.951        C 2313 1.623    N 2315 0.197
  2315  N   3.498        C 2313 1.322    C 2317 0.998    H 2316 0.905    O 2314 0.197
  2316  H   0.950        N 2315 0.905
  2317  C   3.960        N 2315 0.998    C 2319 0.978    H 2318 0.936    C 2323 0.928
  2318  H   0.992        C 2317 0.936
  2319  C   3.983        H 2320 0.983    H 2321 0.980    C 2317 0.978    H 2322 0.977
  2320  H   0.995        C 2319 0.983
  2321  H   0.995        C 2319 0.980
  2322  H   0.995        C 2319 0.977
  2323  C   3.949        O 2324 1.612    N 2325 1.325    C 2317 0.928
  2324  O   1.944        C 2323 1.612    N 2325 0.194
  2325  N   3.467        C 2323 1.325    C 2327 0.949    H 2326 0.906    O 2324 0.194
  2326  H   0.952        N 2325 0.906
  2327  C   3.958        C 2329 1.002    N 2325 0.949    H 2328 0.940    C 2345 0.931
  2328  H   0.991        C 2327 0.940
  2329  C   3.981        C 2327 1.002    C 2332 0.992    H 2330 0.964    H 2331 0.962
  2330  H   0.994        C 2329 0.964
  2331  H   0.994        C 2329 0.962
  2332  C   3.985        C 2335 1.004    C 2329 0.992    H 2334 0.971    H 2333 0.971
  2333  H   0.994        C 2332 0.971
  2334  H   0.994        C 2332 0.971
  2335  C   3.980        C 2332 1.004    C 2338 0.997    H 2337 0.977    H 2336 0.971
  2336  H   0.993        C 2335 0.971
  2337  H   0.995        C 2335 0.977
  2338  C   3.904        C 2335 0.997    H 2339 0.968    N 2341 0.956    H 2340 0.949
  2339  H   0.990        C 2338 0.968
  2340  H   0.986        C 2338 0.949
  2341  N   3.650        C 2338 0.956    H 2344 0.893    H 2342 0.892    H 2343 0.891
  2342  H   0.907        N 2341 0.892
  2343  H   0.908        N 2341 0.891
  2344  H   0.915        N 2341 0.893
  2345  C   3.941        O 2346 1.648    N 2347 1.269    C 2327 0.931
  2346  O   2.009        C 2345 1.648    N 2347 0.189
  2347  N   3.442        C 2345 1.269    C 2349 0.985    H 2348 0.910    O 2346 0.189
  2348  H   0.949        N 2347 0.910
  2349  C   3.968        N 2347 0.985    C 2351 0.976    H 2350 0.947    C 2369 0.941
  2350  H   0.993        C 2349 0.947
  2351  C   3.985        C 2354 1.001    C 2349 0.976    H 2353 0.968    H 2352 0.967
  2352  H   0.995        C 2351 0.967
  2353  H   0.993        C 2351 0.968
  2354  C   3.988        C 2357 1.001    C 2351 1.001    H 2356 0.966    H 2355 0.965
  2355  H   0.993        C 2354 0.965
  2356  H   0.994        C 2354 0.966
  2357  C   3.956        C 2354 1.001    N 2360 0.993    H 2359 0.962    H 2358 0.954
  2358  H   0.993        C 2357 0.954
  2359  H   0.995        C 2357 0.962
  2360  N   3.467        C 2362 1.313    C 2357 0.993    H 2361 0.882    N 2363 0.105
  2361  H   0.944        N 2360 0.882
  2362  C   3.980        N 2363 1.350    N 2360 1.313    N 2366 1.281
  2363  N   3.415        C 2362 1.350    H 2364 0.911    H 2365 0.906    N 2360 0.105    N 2366 0.100
  2364  H   0.934        N 2363 0.911
  2365  H   0.936        N 2363 0.906
  2366  N   3.371        C 2362 1.281    H 2367 0.924    H 2368 0.899    N 2363 0.100
  2367  H   0.944        N 2366 0.924
  2368  H   0.950        N 2366 0.899
  2369  C   3.947        O 2370 1.593    N 2371 1.319    C 2349 0.941
  2370  O   1.957        C 2369 1.593    N 2371 0.194
  2371  N   3.477        C 2369 1.319    C 2373 0.962    H 2372 0.915    O 2370 0.194
  2372  H   0.954        N 2371 0.915
  2373  C   3.952        C 2375 0.971    N 2371 0.962    H 2374 0.952    C 2385 0.918
  2374  H   0.993        C 2373 0.952
  2375  C   3.984        C 2381 1.012    C 2377 0.993    C 2373 0.971    H 2376 0.964
  2376  H   0.997        C 2375 0.964
  2377  C   3.985        C 2375 0.993    H 2378 0.983    H 2380 0.983    H 2379 0.978
  2378  H   0.998        C 2377 0.983
  2379  H   0.994        C 2377 0.978
  2380  H   0.997        C 2377 0.983
  2381  C   3.991        C 2375 1.012    H 2382 0.983    H 2383 0.982    H 2384 0.975
  2382  H   0.999        C 2381 0.983
  2383  H   0.997        C 2381 0.982
  2384  H   0.996        C 2381 0.975
  2385  C   3.949        O 2386 1.595    N 2387 1.348    C 2373 0.918
  2386  O   1.969        C 2385 1.595    N 2387 0.196
  2387  N   3.497        C 2385 1.348    C 2389 0.973    H 2388 0.897    O 2386 0.196
  2388  H   0.947        N 2387 0.897
  2389  C   3.951        N 2387 0.973    C 2391 0.950    C 2404 0.941    H 2390 0.935
  2390  H   0.992        C 2389 0.935
  2391  C   3.981        C 2393 1.006    C 2397 1.002    H 2392 0.961    C 2389 0.950
  2392  H   0.996        C 2391 0.961
  2393  C   3.986        C 2391 1.006    H 2395 0.982    H 2396 0.979    H 2394 0.976
  2394  H   0.998        C 2393 0.976
  2395  H   0.998        C 2393 0.982
  2396  H   0.994        C 2393 0.979
  2397  C   3.993        C 2400 1.012    C 2391 1.002    H 2398 0.974    H 2399 0.973
  2398  H   0.998        C 2397 0.974
  2399  H   0.998        C 2397 0.973
  2400  C   3.992        C 2397 1.012    H 2403 0.986    H 2401 0.985    H 2402 0.982
  2401  H   0.998        C 2400 0.985
  2402  H   0.997        C 2400 0.982
  2403  H   0.998        C 2400 0.986
  2404  C   3.946        O 2405 1.641    N 2406 1.278    C 2389 0.941
  2405  O   1.986        C 2404 1.641    N 2406 0.198
  2406  N   3.449        C 2404 1.278    C 2408 0.966    H 2407 0.912    O 2405 0.198
  2407  H   0.956        N 2406 0.912
  2408  C   3.961        N 2406 0.966    C 2410 0.953    H 2409 0.952    C 2418 0.941
  2409  H   0.990        C 2408 0.952
  2410  C   3.963        O 2416 1.015    C 2412 0.987    H 2411 0.958    C 2408 0.953
  2411  H   0.999        C 2410 0.958
  2412  C   3.984        C 2410 0.987    H 2415 0.986    H 2414 0.986    H 2413 0.982
  2413  H   0.996        C 2412 0.982
  2414  H   0.996        C 2412 0.986
  2415  H   0.999        C 2412 0.986
  2416  O   1.950        C 2410 1.015    H 2417 0.831
  2417  H   0.880        O 2416 0.831
  2418  C   3.947        O 2419 1.630    N 2420 1.297    C 2408 0.941
  2419  O   1.958        C 2418 1.630    N 2420 0.195
  2420  N   3.455        C 2418 1.297    C 2422 0.963    H 2421 0.895    O 2419 0.195
  2421  H   0.950        N 2420 0.895
  2422  C   3.955        C 2424 0.965    N 2420 0.963    H 2423 0.953    C 2432 0.926
  2423  H   0.993        C 2422 0.953
  2424  C   3.961        O 2430 1.008    C 2426 0.999    C 2422 0.965    H 2425 0.950
  2425  H   0.999        C 2424 0.950
  2426  C   3.988        C 2424 0.999    H 2429 0.981    H 2427 0.981    H 2428 0.980
  2427  H   0.998        C 2426 0.981
  2428  H   0.995        C 2426 0.980
  2429  H   0.996        C 2426 0.981
  2430  O   1.957        C 2424 1.008    H 2431 0.847
  2431  H   0.894        O 2430 0.847
  2432  C   3.949        O 2433 1.627    N 2434 1.312    C 2422 0.926
  2433  O   1.950        C 2432 1.627    N 2434 0.201
  2434  N   3.453        C 2432 1.312    C 2436 0.962    H 2435 0.881    O 2433 0.201
  2435  H   0.947        N 2434 0.881
  2436  C   3.952        C 2438 0.977    N 2434 0.962    C 2452 0.945    H 2437 0.944
  2437  H   0.991        C 2436 0.944
  2438  C   3.982        C 2441 1.009    C 2436 0.977    H 2439 0.951    H 2440 0.949
  2439  H   0.993        C 2438 0.951
  2440  H   0.995        C 2438 0.949
  2441  C   3.983        C 2442 1.439    C 2450 1.381    C 2438 1.009    C 2446 0.106
  2442  C   3.987        C 2441 1.439    C 2444 1.419    H 2443 0.964    C 2448 0.107
  2443  H   0.999        C 2442 0.964
  2444  C   3.985        C 2446 1.447    C 2442 1.419    H 2445 0.970    C 2450 0.118
  2445  H   0.996        C 2444 0.970
  2446  C   3.988        C 2444 1.447    C 2448 1.427    H 2447 0.969    C 2441 0.106
  2447  H   0.997        C 2446 0.969
  2448  C   3.989        C 2450 1.457    C 2446 1.427    H 2449 0.965    C 2442 0.107
  2449  H   0.997        C 2448 0.965
  2450  C   3.987        C 2448 1.457    C 2441 1.381    H 2451 0.965    C 2444 0.118
  2451  H   0.999        C 2450 0.965
  2452  C   3.944        O 2453 1.565    N 2454 1.346    C 2436 0.945
  2453  O   1.910        C 2452 1.565    N 2454 0.189
  2454  N   3.496        C 2452 1.346    C 2456 0.968    H 2455 0.907    O 2453 0.189
  2455  H   0.955        N 2454 0.907
  2456  C   3.955        C 2458 0.978    N 2454 0.968    H 2457 0.948    C 2476 0.925
  2457  H   0.991        C 2456 0.948
  2458  C   3.983        C 2461 1.009    C 2456 0.978    H 2459 0.970    H 2460 0.960
  2459  H   0.996        C 2458 0.970
  2460  H   0.990        C 2458 0.960
  2461  C   3.990        C 2458 1.009    C 2464 0.997    H 2463 0.975    H 2462 0.975
  2462  H   0.997        C 2461 0.975
  2463  H   0.997        C 2461 0.975
  2464  C   3.948        C 2461 0.997    H 2466 0.967    H 2465 0.966    N 2467 0.960
  2465  H   0.992        C 2464 0.966
  2466  H   0.992        C 2464 0.967
  2467  N   3.461        C 2469 1.336    C 2464 0.960    H 2468 0.875    N 2473 0.106    N 2470 0.101
  2468  H   0.943        N 2467 0.875
  2469  C   3.978        N 2467 1.336    N 2473 1.310    N 2470 1.309
  2470  N   3.377        C 2469 1.309    H 2471 0.914    H 2472 0.914    N 2467 0.101
  2471  H   0.937        N 2470 0.914
  2472  H   0.940        N 2470 0.914
  2473  N   3.385        C 2469 1.310    H 2474 0.914    H 2475 0.901    N 2467 0.106
  2474  H   0.937        N 2473 0.914
  2475  H   0.944        N 2473 0.901
  2476  C   3.950        O 2477 1.640    N 2478 1.310    C 2456 0.925
  2477  O   1.964        C 2476 1.640    N 2478 0.200
  2478  N   3.484        C 2476 1.310    C 2480 0.992    H 2479 0.903    O 2477 0.200
  2479  H   0.951        N 2478 0.903
  2480  C   3.966        N 2478 0.992    H 2481 0.947    C 2490 0.944    C 2482 0.935
  2481  H   0.990        C 2480 0.947
  2482  C   3.957        C 2484 1.000    O 2488 0.998    H 2483 0.966    C 2480 0.935
  2483  H   0.999        C 2482 0.966
  2484  C   3.985        C 2482 1.000    H 2487 0.984    H 2485 0.980    H 2486 0.976
  2485  H   0.997        C 2484 0.980
  2486  H   0.995        C 2484 0.976
  2487  H   0.996        C 2484 0.984
  2488  O   1.964        C 2482 0.998    H 2489 0.871
  2489  H   0.899        O 2488 0.871
  2490  C   3.954        O 2491 1.666    N 2492 1.262    C 2480 0.944
  2491  O   1.980        C 2490 1.666    N 2492 0.192
  2492  N   3.470        C 2490 1.262    C 2494 1.023    H 2493 0.915    O 2491 0.192
  2493  H   0.954        N 2492 0.915
  2494  C   3.961        N 2492 1.023    H 2495 0.943    H 2496 0.943    C 2497 0.931
  2495  H   0.990        C 2494 0.943
  2496  H   0.991        C 2494 0.943
  2497  C   3.943        O 2498 1.659    N 2499 1.279    C 2494 0.931
  2498  O   1.973        C 2497 1.659    N 2499 0.195
  2499  N   3.463        C 2497 1.279    C 2501 0.997    H 2500 0.908    O 2498 0.195
  2500  H   0.956        N 2499 0.908
  2501  C   3.968        N 2499 0.997    C 2503 0.966    H 2502 0.956    C 2511 0.877
  2502  H   0.993        C 2501 0.956
  2503  C   3.952        C 2505 0.999    O 2509 0.975    C 2501 0.966    H 2504 0.961
  2504  H   0.999        C 2503 0.961
  2505  C   3.987        C 2503 0.999    H 2506 0.984    H 2507 0.984    H 2508 0.980
  2506  H   0.998        C 2505 0.984
  2507  H   0.997        C 2505 0.984
  2508  H   0.996        C 2505 0.980
  2509  O   1.933        C 2503 0.975    H 2510 0.877
  2510  H   0.894        O 2509 0.877
  2511  C   3.950        O 2512 1.657    N 2513 1.336    C 2501 0.877
  2512  O   1.993        C 2511 1.657    N 2513 0.195
  2513  N   3.491        C 2511 1.336    C 2515 0.966    H 2514 0.919    O 2512 0.195
  2514  H   0.956        N 2513 0.919
  2515  C   3.949        C 2517 0.967    N 2513 0.966    H 2516 0.955    C 2535 0.905
  2516  H   0.995        C 2515 0.955
  2517  C   3.981        C 2520 1.008    H 2519 0.975    H 2518 0.967    C 2515 0.967
  2518  H   0.996        C 2517 0.967
  2519  H   0.996        C 2517 0.975
  2520  C   3.967        C 2521 1.572    C 2534 1.213    C 2517 1.008
  2521  C   3.960        C 2520 1.572    N 2523 1.219    H 2522 0.968
  2522  H   0.997        C 2521 0.968
  2523  N   3.546        C 2521 1.219    C 2525 1.165    H 2524 0.930
  2524  H   0.958        N 2523 0.930
  2525  C   3.963        C 2526 1.376    C 2534 1.240    N 2523 1.165
  2526  C   3.988        C 2528 1.457    C 2525 1.376    H 2527 0.962    C 2532 0.111
  2527  H   0.997        C 2526 0.962
  2528  C   3.985        C 2526 1.457    C 2530 1.375    H 2529 0.968
  2529  H   0.996        C 2528 0.968
  2530  C   3.989        C 2532 1.513    C 2528 1.375    H 2531 0.969
  2531  H   0.999        C 2530 0.969
  2532  C   3.990        C 2530 1.513    C 2534 1.316    H 2533 0.963    C 2526 0.111
  2533  H   0.999        C 2532 0.963
  2534  C   3.983        C 2532 1.316    C 2525 1.240    C 2520 1.213
  2535  C   3.943        O 2536 1.665    N 2537 1.294    C 2515 0.905
  2536  O   1.985        C 2535 1.665    N 2537 0.201
  2537  N   3.458        C 2535 1.294    C 2539 0.968    H 2538 0.912    O 2536 0.201
  2538  H   0.956        N 2537 0.912
  2539  C   3.962        C 2541 0.976    N 2537 0.968    H 2540 0.955    C 2547 0.926
  2540  H   0.995        C 2539 0.955
  2541  C   3.980        C 2539 0.976    H 2542 0.970    H 2543 0.965    C 2544 0.925
  2542  H   0.999        C 2541 0.970
  2543  H   0.997        C 2541 0.965
  2544  C   3.942        O 2546 1.507    O 2545 1.491    C 2541 0.925
  2545  O   1.783        C 2544 1.491    O 2546 0.225
  2546  O   1.801        C 2544 1.507    O 2545 0.225
  2547  C   3.950        O 2548 1.622    N 2549 1.321    C 2539 0.926
  2548  O   1.936        C 2547 1.622    N 2549 0.191
  2549  N   3.466        C 2547 1.321    C 2551 0.957    H 2550 0.918    O 2548 0.191
  2550  H   0.957        N 2549 0.918
  2551  C   3.946        C 2553 0.991    N 2549 0.957    H 2552 0.945    C 2557 0.938
  2552  H   0.988        C 2551 0.945
  2553  C   3.974        C 2551 0.991    H 2555 0.978    H 2554 0.976    H 2556 0.971
  2554  H   0.994        C 2553 0.976
  2555  H   0.993        C 2553 0.978
  2556  H   0.993        C 2553 0.971
  2557  C   3.945        O 2558 1.685    N 2559 1.245    C 2551 0.938
  2558  O   1.998        C 2557 1.685    N 2559 0.196
  2559  N   3.431        C 2557 1.245    C 2561 0.974    H 2560 0.933    O 2558 0.196
  2560  H   0.965        N 2559 0.933
  2561  C   3.957        N 2559 0.974    C 2563 0.973    H 2562 0.947    C 2578 0.929
  2562  H   0.993        C 2561 0.947
  2563  C   3.986        C 2566 1.010    C 2561 0.973    H 2565 0.963    H 2564 0.960
  2564  H   0.996        C 2563 0.960
  2565  H   0.997        C 2563 0.963
  2566  C   3.983        C 2576 1.413    C 2567 1.411    C 2563 1.010
  2567  C   3.987        C 2569 1.444    C 2566 1.411    H 2568 0.966    C 2574 0.107
  2568  H   0.997        C 2567 0.966
  2569  C   3.983        C 2567 1.444    C 2571 1.363    H 2570 0.966    C 2576 0.120
  2570  H   0.994        C 2569 0.966
  2571  C   3.944        C 2574 1.396    C 2569 1.363    O 2572 1.068
  2572  O   2.089        C 2571 1.068    H 2573 0.843
  2573  H   0.893        O 2572 0.843
  2574  C   3.985        C 2576 1.421    C 2571 1.396    H 2575 0.961    C 2567 0.107
  2575  H   0.998        C 2574 0.961
  2576  C   3.987        C 2574 1.421    C 2566 1.413    H 2577 0.969    C 2569 0.120
  2577  H   0.999        C 2576 0.969
  2578  C   3.944        O 2579 1.619    N 2580 1.308    C 2561 0.929
  2579  O   1.937        C 2578 1.619    N 2580 0.202
  2580  N   3.495        C 2578 1.308    C 2582 0.992    H 2581 0.933    O 2579 0.202
  2581  H   0.966        N 2580 0.933
  2582  C   3.939        N 2580 0.992    C 2584 0.965    H 2583 0.954    C 2600 0.871
  2583  H   0.998        C 2582 0.954
  2584  C   3.993        C 2587 1.001    H 2586 0.978    H 2585 0.977    C 2582 0.965
  2585  H   0.999        C 2584 0.977
  2586  H   0.998        C 2584 0.978
  2587  C   3.994        C 2584 1.001    C 2590 1.000    H 2588 0.980    H 2589 0.979
  2588  H   0.999        C 2587 0.980
  2589  H   0.998        C 2587 0.979
  2590  C   3.987        C 2593 1.005    C 2587 1.000    H 2592 0.976    H 2591 0.973
  2591  H   0.996        C 2590 0.973
  2592  H   0.995        C 2590 0.976
  2593  C   3.909        C 2590 1.005    H 2594 0.966    H 2595 0.964    N 2596 0.952
  2594  H   0.985        C 2593 0.966
  2595  H   0.986        C 2593 0.964
  2596  N   3.661        C 2593 0.952    H 2598 0.904    H 2599 0.894    H 2597 0.892
  2597  H   0.907        N 2596 0.892
  2598  H   0.916        N 2596 0.904
  2599  H   0.908        N 2596 0.894
  2600  C   3.936        O 2601 1.523    O 2602 1.502    C 2582 0.871
  2601  O   1.826        C 2600 1.523    O 2602 0.221
  2602  O   1.806        C 2600 1.502    O 2601 0.221

molecular dipole:
                 x           y           z       tot (Debye)
 q only:      578.921     656.493     665.225
   full:      575.464     657.509     673.297    2803.774
molecular quadrupole (traceless):
                xx          xy          yy          xz          yz          zz
 q only:   -12700.256   67654.661    5710.126   67842.995   77639.237    6990.130
  q+dip:   -13979.271   66980.596    5453.973   68142.573   78555.021    8525.298
   full:   -13966.417   66982.340    5434.856   68145.397   78550.025    8531.560


           -------------------------------------------------
          | TOTAL ENERGY            -4085.258864811465 Eh   |
          | GRADIENT NORM               1.308105591221 Eh/α |
          | HOMO-LUMO GAP               1.638759567008 eV   |
           -------------------------------------------------
########################################################################
[WARNING] Runtime exception occurred
-2- restart_readRestart: Dimension missmatch in restart file.
-1- restart_readRestart: Number of electron missmatch in restart file.
########################################################################

------------------------------------------------------------------------
 * finished run on 2020/07/25 at 06:58:26.692     
------------------------------------------------------------------------
 total:
 * wall-time:     0 d,  0 h,  7 min,  2.229 sec
 *  cpu-time:     0 d,  5 h, 14 min,  1.308 sec
 * ratio c/w:    44.623 speedup
 SCF:
 * wall-time:     0 d,  0 h,  6 min, 32.001 sec
 *  cpu-time:     0 d,  5 h,  2 min, 49.440 sec
 * ratio c/w:    46.350 speedup

