      -----------------------------------------------------------      
     |                   =====================                   |     
     |                           x T B                           |     
     |                   =====================                   |     
     |                         S. Grimme                         |     
     |          Mulliken Center for Theoretical Chemistry        |     
     |                    University of Bonn                     |     
      -----------------------------------------------------------      

   * xtb version 6.2.3 (d7bf61a) compiled by 'conda@06d140edd85e' on 2020-05-12

   xtb is free software: you can redistribute it and/or modify it under
   the terms of the GNU Lesser General Public License as published by
   the Free Software Foundation, either version 3 of the License, or
   (at your option) any later version.
   
   xtb is distributed in the hope that it will be useful,
   but WITHOUT ANY WARRANTY; without even the implied warranty of
   MERCHANTABILITY or FITNESS FOR A PARTICULAR PURPOSE.  See the
   GNU Lesser General Public License for more details.
   
   Cite this work as:
   * S. Grimme, C. Bannwarth, P. Shushkov, J. Chem. Theory Comput., 2017,
     13, 1989-2009. DOI: 10.1021/acs.jctc.7b00118
   * C. Bannwarth, S. Ehlert and S. Grimme., J. Chem. Theory Comput., 2019,
     15, 1652-1671. DOI: 10.1021/acs.jctc.8b01176
   * P. Pracht, E. Caldeweyher, S. Ehlert, S. Grimme, ChemRxiv, 2019, preprint.
     DOI: 10.26434/chemrxiv.8326202.v1
   
   for DFT-D4:
   * E. Caldeweyher, C. Bannwarth and S. Grimme, J. Chem. Phys., 2017,
     147, 034112. DOI: 10.1063/1.4993215
   * E. Caldeweyher, S. Ehlert, A. Hansen, H. Neugebauer, S. Spicher,
     C. Bannwarth and S. Grimme, J. Chem. Phys., 2019, 150, 154122.
     DOI: 10.1063/1.5090222
   
   for sTDA-xTB:
   * S. Grimme and C. Bannwarth, J. Chem. Phys., 2016, 145, 054103.
     DOI: 10.1063/1.4959605
   
   in the mass-spec context:
   * V. Asgeirsson, C. Bauer and S. Grimme, Chem. Sci., 2017, 8, 4879.
     DOI: 10.1039/c7sc00601b
   
   for metadynamics refer to:
   * S. Grimme, J. Chem. Theory Comput., 2019, 155, 2847-2862
     DOI: 10.1021/acs.jctc.9b00143
   
   with help from (in alphabetical order)
   C. Bannwarth, F. Bohle, G. Brandenburg, E. Caldeweyher, M. Checinski,
   S. Dohm, S. Ehlert, S. Ehrlich, F. März, H. Neugebauer, J. Pisarek,
   P. Pracht, P. Shushkov, and S. Spicher.
   
 * started run on 2020/07/22 at 15:38:23.955     

           -------------------------------------------------
          |                Calculation Setup                |
           -------------------------------------------------

          program call               : xtb host_2761.xyz --chrg +9 --uhf 0 --gbsa water
          hostname                   : gold53.cluster.local
          coordinate file            : host_2761.xyz
          omp threads                :                    64
          number of atoms            :                  2602
          number of electrons        :                  7192
          charge                     :                     9
          spin                       :                   0.0
          first test random number   :      0.02012016979821

########################################################################
[WARNING] Please study the warnings concerning your input carefully
-2- prog_main: XTBPATH is not set, using XTBHOME instead
-1- prog_main: XTBHOME is not set, using HOME instead
########################################################################
           ------------------------------------------------- 
          |                 G F N 2 - x T B                 |
          | Geometry, Frequencies, Noncovalent interactions |
          |            JCTC 2019 parametrisation            |
           ------------------------------------------------- 
             k(s)              :                1.8500
             k(p)              :                2.2300
             k(d)              :                2.2300
             k(f)              :                2.0000
             kEN (H0ij)        :               -2.0000
             D4 a1             :                0.5200
             D4 a2             :                5.0000
             D4 s6             :                1.0000
             D4 s8             :                2.7000
             D4 s9             :                5.0000
             alphaj            :                2.0000

  Z AO/shell   Hii/eV     exponent
  1     Wed Apr 25 08:07:45 CEST 2018   EN: 2.200 GM2: 0.406  GM3: 0.0800  RAES: 1.40
     1s    -10.707211    1.230000
  6     Wed Apr 25 08:07:45 CEST 2018   EN: 2.550 GM2: 0.538  GM3: 0.1500  RAES: 3.00
     2s    -13.970922    2.096432
     2p    -10.063292    1.800000
  7     Wed Apr 25 08:07:45 CEST 2018   EN: 3.040 GM2: 0.461  GM3:-0.0640  RAES: 1.90
     2s    -16.686243    2.339881
     2p    -12.523956    2.014332
  8     Wed Apr 25 08:07:45 CEST 2018   EN: 3.440 GM2: 0.452  GM3:-0.0517  RAES: 1.80
     2s    -20.229985    2.439742
     2p    -15.503117    2.137023
 16     Tue Apr 24 11:44:34 CEST 2018   EN: 2.580 GM2: 0.340  GM3:-0.0502  RAES: 3.10
     3s    -20.029654    1.981333
     3p    -11.377694    2.025643
     3d     -0.420282    1.702555

 Solvent             : water
 Using internal parameter file: .param_gbsa2_water
 Gsolv ref. state (COSMO-RS): gsolv [1 M gas/solution]
 temperature (mdtemp)       :    298.14999999999998     
 dielectric constant        :    80.200000000000003     
 rho                        :    1.0000000000000000     
 mass                       :    18.000000000000000     
 surface tension            :    15.568945408385856     
 probe radius               :   0.97531378999999996     
 Gshift (Eh)                :    1.8574431267947933E-003
 c1                         :    1.5524381700000001     
 soset                      :   0.13032636000000000     
 HB correction              :  T
           ------------------------------------------------- 
          |        Self-Consistent Charge Iterations        |
           ------------------------------------------------- 

          ...................................................
          :                      SETUP                      :
          :.................................................:
          :  # basis functions                6511          :
          :  # atomic orbitals                6505          :
          :  # shells                         3899          :
          :  # electrons                      7192          :
          :  max. iterations                   250          :
          :  Hamiltonian                  GFN2-xTB          :
          :  restarted?                      false          :
          :  GBSA solvation                   true          :
          :  PC potential                    false          :
          :  electronic temp.          300.0000000     K    :
          :  accuracy                    1.0000000          :
          :  -> integral cutoff          0.2500000E+02      :
          :  -> integral neglect         0.1000000E-07      :
          :  -> SCF convergence          0.1000000E-05 Eh   :
          :  -> wf. convergence          0.1000000E-03 e    :
          :  Broyden damping             0.4000000          :
          ...................................................

 iter      E             dE          RMSdq      gap      omega  full diag
   1  -4120.6573564 -0.412066E+04  0.427E+00    2.19       0.0  T
   2  -4132.7579429 -0.121006E+02  0.225E+00    2.46       1.0  T
   3  -4133.2259820 -0.468039E+00  0.119E+00    2.25       1.0  T
   4  -4133.2928156 -0.668337E-01  0.289E-01    1.90       1.0  T
   5  -4133.3967014 -0.103886E+00  0.143E-01    1.87       1.0  T
   6  -4133.4117753 -0.150739E-01  0.733E-02    1.98       1.0  T
   7  -4133.4142605 -0.248522E-02  0.381E-02    1.93       1.0  T
   8  -4133.4153459 -0.108537E-02  0.176E-02    1.87       1.0  T
   9  -4133.4155493 -0.203386E-03  0.113E-02    1.85       1.0  T
  10  -4133.4156693 -0.119987E-03  0.632E-03    1.83       1.0  T
  11  -4133.4157056 -0.363775E-04  0.353E-03    1.81       1.0  T
  12  -4133.4157204 -0.147888E-04  0.188E-03    1.80       1.0  T
  13  -4133.4157241 -0.367788E-05  0.102E-03    1.80       1.9  T
  14  -4133.4157251 -0.989789E-06  0.510E-04    1.80       3.8  T
  15  -4133.4157253 -0.242580E-06  0.256E-04    1.80       7.7  T

   *** convergence criteria satisfied after 15 iterations ***

         #    Occupation            Energy/Eh            Energy/eV
      -------------------------------------------------------------
         1        2.0000           -0.7609462             -20.7064
       ...           ...                  ...                  ...
      3590        2.0000           -0.3617867              -9.8447
      3591        2.0000           -0.3593204              -9.7776
      3592        2.0000           -0.3578973              -9.7389
      3593        2.0000           -0.3573812              -9.7248
      3594        2.0000           -0.3570245              -9.7151
      3595        2.0000           -0.3566504              -9.7050
      3596        2.0000           -0.3515223              -9.5654 (HOMO)
      3597                         -0.2854994              -7.7688 (LUMO)
      3598                         -0.2748626              -7.4794
      3599                         -0.2689186              -7.3176
      3600                         -0.2678068              -7.2874
      3601                         -0.2674612              -7.2780
       ...                                ...                  ...
      6505                          0.7473674              20.3369
      -------------------------------------------------------------
                  HL-Gap            0.0660229 Eh            1.7966 eV
             Fermi-level           -0.3185109 Eh           -8.6671 eV

 SCC (total)                   0 d,  0 h,  6 min, 40.276 sec
 SCC setup                      ...        0 min,  3.133 sec (  0.783%)
 Dispersion                     ...        0 min,  1.978 sec (  0.494%)
 integral evaluation            ...        0 min,  8.500 sec (  2.123%)
 zeroth order Hamiltonian       ...        0 min,  0.345 sec (  0.086%)
 iterations                     ...        6 min,  8.679 sec ( 92.106%)
 molecular gradient             ...        0 min, 17.045 sec (  4.258%)
 printout                       ...        0 min,  0.596 sec (  0.149%)

         :::::::::::::::::::::::::::::::::::::::::::::::::::::
         ::                     SUMMARY                     ::
         :::::::::::::::::::::::::::::::::::::::::::::::::::::
         :: total energy           -4085.349073387053 Eh    ::
         :: total w/o Gsasa/hb     -4084.946922925868 Eh    ::
         :: gradient norm              1.305752415656 Eh/a0 ::
         :: HOMO-LUMO gap              1.796573219859 eV    ::
         ::.................................................::
         :: SCC energy             -4133.479062990240 Eh    ::
         :: -> isotropic ES           14.123177176583 Eh    ::
         :: -> anisotropic ES         -0.749859013925 Eh    ::
         :: -> anisotropic XC          1.168163012306 Eh    ::
         :: -> dispersion             -3.917851973983 Eh    ::
         :: -> Gsolv                  -4.020952696629 Eh    ::
         ::    -> Gborn               -3.618802235444 Eh    ::
         ::    -> Gsasa               -0.065195091410 Eh    ::
         ::    -> Ghb                 -0.338812812902 Eh    ::
         ::    -> Gshift               0.001857443127 Eh    ::
         :: repulsion energy          47.585838511899 Eh    ::
         :: add. restraining           0.000000000000 Eh    ::
         :::::::::::::::::::::::::::::::::::::::::::::::::::::

           -------------------------------------------------
          |                Property Printout                |
           -------------------------------------------------

    * Orbital Energies and Occupations

         #    Occupation            Energy/Eh            Energy/eV
      -------------------------------------------------------------
         1        2.0000           -0.7609462             -20.7064
       ...           ...                  ...                  ...
      3584        2.0000           -0.3659858              -9.9590
      3585        2.0000           -0.3644492              -9.9172
      3586        2.0000           -0.3634847              -9.8909
      3587        2.0000           -0.3631558              -9.8820
      3588        2.0000           -0.3623689              -9.8606
      3589        2.0000           -0.3622992              -9.8587
      3590        2.0000           -0.3617867              -9.8447
      3591        2.0000           -0.3593204              -9.7776
      3592        2.0000           -0.3578973              -9.7389
      3593        2.0000           -0.3573812              -9.7248
      3594        2.0000           -0.3570245              -9.7151
      3595        2.0000           -0.3566504              -9.7050
      3596        2.0000           -0.3515223              -9.5654 (HOMO)
      3597                         -0.2854994              -7.7688 (LUMO)
      3598                         -0.2748626              -7.4794
      3599                         -0.2689186              -7.3176
      3600                         -0.2678068              -7.2874
      3601                         -0.2674612              -7.2780
      3602                         -0.2662362              -7.2447
      3603                         -0.2645708              -7.1993
      3604                         -0.2619966              -7.1293
      3605                         -0.2604579              -7.0874
      3606                         -0.2602477              -7.0817
      3607                         -0.2597284              -7.0676
       ...                                ...                  ...
      6505                          0.7473674              20.3369
      -------------------------------------------------------------
                  HL-Gap            0.0660229 Eh            1.7966 eV
             Fermi-level           -0.3185109 Eh           -8.6671 eV

     #   Z        covCN         q      C6AA      α(0)
     1   7 N      3.492    -0.145    24.138     7.297
     2   1 H      0.860     0.299     0.716     1.325
     3   1 H      0.860     0.302     0.708     1.318
     4   1 H      0.860     0.304     0.702     1.313
     5   6 C      3.797    -0.025    21.030     6.530
     6   1 H      0.924     0.114     1.663     2.016
     7   6 C      3.844    -0.082    22.030     6.677
     8   1 H      0.925     0.094     1.839     2.120
     9   1 H      0.925     0.075     2.029     2.227
    10   6 C      3.799    -0.019    20.914     6.511
    11   1 H      0.925     0.078     1.999     2.211
    12   1 H      0.925     0.060     2.193     2.316
    13  16 S      1.980    -0.214   150.199    20.627
    14   6 C      3.742    -0.061    21.758     6.655
    15   1 H      0.925     0.045     2.381     2.413
    16   1 H      0.925     0.048     2.347     2.396
    17   1 H      0.925     0.060     2.200     2.320
    18   6 C      2.761     0.267    22.487     7.766
    19   8 O      0.858    -0.458    22.871     6.412
    20   7 N      2.700    -0.135    23.922     7.264
    21   1 H      0.860     0.229     0.970     1.543
    22   6 C      3.806     0.011    20.396     6.429
    23   1 H      0.924     0.107     1.721     2.052
    24   6 C      3.809    -0.118    22.757     6.791
    25   1 H      0.925     0.087     1.906     2.159
    26   1 H      0.925     0.102     1.768     2.079
    27   6 C      2.743     0.291    22.060     7.690
    28   8 O      0.858    -0.487    23.501     6.500
    29   7 N      2.635    -0.267    26.913     7.705
    30   1 H      0.860     0.219     1.016     1.579
    31   1 H      0.860     0.235     0.943     1.521
    32   6 C      2.747     0.271    22.412     7.752
    33   8 O      0.858    -0.452    22.747     6.394
    34   7 N      2.685    -0.187    25.045     7.433
    35   1 H      0.860     0.218     1.019     1.581
    36   6 C      3.798     0.007    20.457     6.440
    37   1 H      0.925     0.091     1.868     2.137
    38   6 C      3.863    -0.033    21.123     6.536
    39   1 H      0.925     0.079     1.986     2.204
    40   6 C      3.759    -0.132    23.094     6.851
    41   1 H      0.925     0.035     2.513     2.479
    42   1 H      0.925     0.056     2.243     2.342
    43   1 H      0.925     0.062     2.173     2.305
    44   6 C      3.792    -0.070    21.848     6.656
    45   1 H      0.925     0.032     2.560     2.502
    46   1 H      0.924     0.054     2.271     2.357
    47   6 C      3.741    -0.120    22.881     6.825
    48   1 H      0.924     0.047     2.356     2.400
    49   1 H      0.925     0.039     2.460     2.453
    50   1 H      0.925     0.058     2.228     2.334
    51   6 C      2.764     0.271    22.417     7.754
    52   8 O      0.859    -0.508    23.961     6.563
    53   7 N      2.694    -0.179    24.876     7.408
    54   1 H      0.860     0.228     0.974     1.546
    55   6 C      3.796     0.019    20.252     6.408
    56   1 H      0.925     0.082     1.954     2.186
    57   6 C      3.808    -0.093    22.264     6.717
    58   1 H      0.925     0.072     2.068     2.249
    59   1 H      0.925     0.080     1.974     2.197
    60   6 C      2.954     0.007    27.857     8.657
    61   6 C      2.918    -0.051    29.271     8.872
    62   1 H      0.926     0.042     2.418     2.432
    63   6 C      2.901    -0.031    28.772     8.795
    64   1 H      0.926     0.019     2.753     2.595
    65   6 C      2.914    -0.034    28.854     8.808
    66   1 H      0.926     0.028     2.618     2.530
    67   6 C      2.905    -0.040    29.006     8.831
    68   1 H      0.926     0.058     2.225     2.333
    69   6 C      2.907    -0.041    29.023     8.834
    70   1 H      0.926     0.060     2.197     2.318
    71   6 C      2.749     0.255    22.713     7.804
    72   8 O      0.858    -0.497    23.719     6.530
    73   7 N      2.686    -0.166    24.602     7.367
    74   1 H      0.860     0.223     0.995     1.562
    75   6 C      3.788     0.025    20.173     6.397
    76   1 H      0.924     0.086     1.916     2.165
    77   6 C      3.807    -0.060    21.645     6.623
    78   1 H      0.925     0.051     2.305     2.374
    79   1 H      0.925     0.051     2.304     2.374
    80   6 C      3.798    -0.108    22.571     6.765
    81   1 H      0.925     0.042     2.423     2.434
    82   1 H      0.925     0.042     2.419     2.432
    83   6 C      2.685     0.362    20.864     7.475
    84   8 O      0.856    -0.640    27.114     6.981
    85   8 O      0.857    -0.619    26.590     6.914
    86   6 C      2.764     0.262    22.583     7.782
    87   8 O      0.861    -0.519    24.200     6.596
    88   7 N      2.691    -0.187    25.049     7.433
    89   1 H      0.860     0.244     0.909     1.493
    90   6 C      3.796     0.034    20.002     6.368
    91   1 H      0.925     0.065     2.146     2.291
    92   6 C      3.835    -0.080    22.001     6.673
    93   1 H      0.925     0.056     2.241     2.341
    94   1 H      0.925     0.080     1.974     2.197
    95   6 C      3.791    -0.011    20.784     6.493
    96   1 H      0.925     0.043     2.412     2.429
    97   1 H      0.925     0.028     2.609     2.526
    98  16 S      1.980    -0.179   148.648    20.520
    99   6 C      3.741    -0.073    21.978     6.689
   100   1 H      0.925     0.054     2.269     2.356
   101   1 H      0.925     0.064     2.152     2.294
   102   1 H      0.925     0.073     2.054     2.241
   103   6 C      2.753     0.271    22.423     7.754
   104   8 O      0.857    -0.516    24.136     6.587
   105   7 N      2.689    -0.164    24.548     7.358
   106   1 H      0.860     0.225     0.988     1.557
   107   6 C      3.794     0.024    20.180     6.397
   108   1 H      0.925     0.065     2.146     2.291
   109   6 C      3.814    -0.077    21.953     6.669
   110   1 H      0.925     0.040     2.447     2.446
   111   1 H      0.925     0.067     2.122     2.278
   112   6 C      3.849    -0.027    21.018     6.521
   113   1 H      0.925     0.064     2.156     2.296
   114   6 C      3.757    -0.117    22.792     6.807
   115   1 H      0.925     0.023     2.684     2.562
   116   1 H      0.925     0.053     2.285     2.364
   117   1 H      0.925     0.047     2.352     2.398
   118   6 C      3.752    -0.120    22.869     6.820
   119   1 H      0.924     0.042     2.419     2.432
   120   1 H      0.925     0.041     2.435     2.440
   121   1 H      0.924     0.045     2.384     2.415
   122   6 C      2.753     0.262    22.591     7.783
   123   8 O      0.857    -0.517    24.175     6.592
   124   7 N      2.685    -0.189    25.104     7.441
   125   1 H      0.860     0.237     0.937     1.516
   126   6 C      3.782     0.016    20.326     6.422
   127   1 H      0.925     0.095     1.831     2.116
   128   6 C      3.801    -0.084    22.106     6.694
   129   1 H      0.925     0.081     1.969     2.195
   130   1 H      0.925     0.060     2.194     2.316
   131   6 C      3.802    -0.088    22.175     6.704
   132   1 H      0.924     0.070     2.089     2.260
   133   1 H      0.925     0.079     1.990     2.206
   134   6 C      3.734    -0.031    21.217     6.574
   135   1 H      0.924     0.077     2.011     2.218
   136   1 H      0.925     0.098     1.805     2.101
   137   7 N      2.719    -0.169    24.645     7.373
   138   1 H      0.860     0.246     0.900     1.486
   139   6 C      2.736     0.242    22.942     7.842
   140   7 N      2.675    -0.255    26.629     7.664
   141   1 H      0.860     0.242     0.916     1.499
   142   1 H      0.860     0.232     0.958     1.533
   143   7 N      2.685    -0.256    26.641     7.666
   144   1 H      0.860     0.266     0.823     1.421
   145   1 H      0.860     0.269     0.815     1.414
   146   6 C      2.739     0.273    22.376     7.745
   147   8 O      0.859    -0.477    23.277     6.469
   148   7 N      2.682    -0.174    24.765     7.391
   149   1 H      0.860     0.201     1.103     1.645
   150   6 C      3.774     0.009    20.459     6.445
   151   1 H      0.925     0.082     1.959     2.189
   152   6 C      3.835    -0.020    20.912     6.506
   153   1 H      0.925     0.050     2.317     2.380
   154   6 C      3.752    -0.120    22.858     6.818
   155   1 H      0.925     0.058     2.219     2.329
   156   1 H      0.924     0.059     2.205     2.322
   157   1 H      0.925     0.038     2.476     2.461
   158   6 C      3.797    -0.065    21.742     6.639
   159   1 H      0.925     0.041     2.435     2.440
   160   1 H      0.925     0.033     2.541     2.493
   161   6 C      3.748    -0.105    22.567     6.776
   162   1 H      0.925     0.042     2.419     2.432
   163   1 H      0.925     0.039     2.461     2.453
   164   1 H      0.925     0.038     2.471     2.458
   165   6 C      2.744     0.262    22.588     7.782
   166   8 O      0.857    -0.504    23.882     6.552
   167   7 N      2.677    -0.190    25.131     7.445
   168   1 H      0.860     0.211     1.054     1.608
   169   6 C      3.775     0.009    20.461     6.445
   170   1 H      0.925     0.089     1.885     2.147
   171   6 C      3.797    -0.105    22.502     6.754
   172   1 H      0.924     0.054     2.273     2.358
   173   1 H      0.925     0.040     2.447     2.446
   174   6 C      2.685     0.360    20.896     7.481
   175   8 O      0.857    -0.574    25.480     6.768
   176   8 O      0.857    -0.594    25.970     6.833
   177   6 C      2.741     0.276    22.326     7.736
   178   8 O      0.862    -0.453    22.771     6.398
   179   7 N      2.697    -0.179    24.882     7.408
   180   1 H      0.860     0.207     1.073     1.623
   181   6 C      3.798     0.030    20.077     6.380
   182   1 H      0.924     0.107     1.722     2.052
   183   6 C      3.814    -0.044    21.344     6.576
   184   1 H      0.925     0.033     2.541     2.493
   185   1 H      0.924     0.037     2.484     2.465
   186   6 C      3.803    -0.082    22.061     6.687
   187   1 H      0.924     0.015     2.813     2.623
   188   1 H      0.925     0.033     2.540     2.492
   189   6 C      2.692     0.361    20.878     7.478
   190   8 O      0.857    -0.667    27.828     7.073
   191   8 O      0.856    -0.651    27.409     7.019
   192   6 C      2.759     0.267    22.487     7.766
   193   8 O      0.864    -0.499    23.752     6.534
   194   7 N      2.686    -0.137    23.970     7.271
   195   1 H      0.860     0.187     1.173     1.696
   196   6 C      3.738    -0.035    21.277     6.582
   197   1 H      0.925     0.105     1.744     2.065
   198   1 H      0.924     0.109     1.707     2.043
   199   6 C      2.743     0.271    22.411     7.751
   200   8 O      0.862    -0.504    23.867     6.550
   201   7 N      2.684    -0.177    24.838     7.402
   202   1 H      0.860     0.211     1.051     1.606
   203   6 C      3.777     0.021    20.239     6.410
   204   1 H      0.925     0.060     2.197     2.318
   205   6 C      3.802    -0.079    22.010     6.679
   206   1 H      0.924     0.090     1.878     2.143
   207   1 H      0.925     0.070     2.080     2.255
   208   6 C      3.844    -0.030    21.076     6.530
   209   1 H      0.924     0.018     2.758     2.597
   210   6 C      3.752    -0.133    23.119     6.857
   211   1 H      0.924     0.068     2.109     2.271
   212   1 H      0.924     0.046     2.367     2.406
   213   1 H      0.925     0.052     2.298     2.370
   214   6 C      3.744    -0.129    23.050     6.849
   215   1 H      0.925     0.065     2.143     2.289
   216   1 H      0.925     0.049     2.328     2.386
   217   1 H      0.925     0.028     2.613     2.528
   218   6 C      2.751     0.251    22.779     7.815
   219   8 O      0.857    -0.490    23.573     6.509
   220   7 N      2.693    -0.141    24.061     7.285
   221   1 H      0.860     0.203     1.090     1.635
   222   6 C      3.795     0.006    20.491     6.446
   223   1 H      0.924     0.093     1.848     2.126
   224   6 C      3.805    -0.089    22.197     6.707
   225   1 H      0.925     0.076     2.020     2.222
   226   1 H      0.925     0.062     2.173     2.305
   227   6 C      3.800    -0.089    22.192     6.707
   228   1 H      0.924     0.069     2.095     2.264
   229   1 H      0.925     0.094     1.843     2.123
   230   6 C      3.737    -0.036    21.298     6.586
   231   1 H      0.925     0.099     1.797     2.096
   232   1 H      0.924     0.093     1.853     2.129
   233   7 N      2.705    -0.147    24.185     7.304
   234   1 H      0.860     0.209     1.063     1.615
   235   6 C      2.737     0.239    22.997     7.852
   236   7 N      2.718    -0.242    26.317     7.619
   237   1 H      0.860     0.256     0.860     1.453
   238   1 H      0.860     0.263     0.835     1.432
   239   7 N      2.715    -0.263    26.811     7.690
   240   1 H      0.860     0.231     0.963     1.537
   241   1 H      0.860     0.229     0.968     1.542
   242   6 C      2.757     0.270    22.436     7.757
   243   8 O      0.863    -0.479    23.328     6.476
   244   7 N      2.695    -0.169    24.661     7.376
   245   1 H      0.860     0.219     1.013     1.577
   246   6 C      3.793     0.018    20.278     6.413
   247   1 H      0.925     0.090     1.884     2.146
   248   6 C      3.803    -0.084    22.103     6.693
   249   1 H      0.925     0.085     1.933     2.174
   250   1 H      0.925     0.063     2.170     2.303
   251   6 C      3.832    -0.023    20.960     6.514
   252   1 H      0.925     0.047     2.360     2.403
   253   6 C      3.751    -0.124    22.949     6.832
   254   1 H      0.924     0.054     2.269     2.356
   255   1 H      0.925     0.046     2.371     2.408
   256   1 H      0.924     0.040     2.448     2.447
   257   6 C      3.740    -0.127    23.011     6.844
   258   1 H      0.925     0.033     2.544     2.494
   259   1 H      0.925     0.032     2.554     2.499
   260   1 H      0.925     0.046     2.375     2.410
   261   6 C      2.747     0.271    22.415     7.752
   262   8 O      0.863    -0.456    22.825     6.406
   263   7 N      2.682    -0.187    25.048     7.433
   264   1 H      0.860     0.194     1.137     1.670
   265   6 C      3.776     0.012    20.393     6.434
   266   1 H      0.925     0.087     1.908     2.160
   267   6 C      3.792    -0.087    22.174     6.706
   268   1 H      0.924     0.061     2.184     2.311
   269   1 H      0.925     0.069     2.097     2.265
   270   6 C      3.789    -0.090    22.221     6.714
   271   1 H      0.925     0.064     2.154     2.295
   272   1 H      0.925     0.065     2.140     2.288
   273   6 C      3.806    -0.101    22.423     6.741
   274   1 H      0.925     0.099     1.795     2.095
   275   1 H      0.924     0.085     1.930     2.173
   276   6 C      3.737    -0.065    21.838     6.669
   277   1 H      0.925     0.117     1.635     2.000
   278   1 H      0.925     0.111     1.690     2.033
   279   7 N      3.496    -0.142    24.056     7.285
   280   1 H      0.860     0.300     0.712     1.322
   281   1 H      0.860     0.306     0.697     1.308
   282   1 H      0.860     0.297     0.721     1.330
   283   6 C      2.742     0.273    22.391     7.748
   284   8 O      0.858    -0.479    23.324     6.475
   285   7 N      2.677    -0.193    25.187     7.454
   286   1 H      0.860     0.227     0.978     1.549
   287   6 C      3.792     0.002    20.562     6.458
   288   1 H      0.924     0.077     2.012     2.218
   289   6 C      3.841    -0.035    21.176     6.546
   290   1 H      0.924     0.085     1.925     2.170
   291   6 C      3.753    -0.130    23.055     6.847
   292   1 H      0.925     0.079     1.987     2.204
   293   1 H      0.925     0.040     2.452     2.449
   294   1 H      0.924     0.044     2.398     2.421
   295   6 C      3.795    -0.088    22.190     6.708
   296   1 H      0.925     0.051     2.307     2.375
   297   1 H      0.924     0.037     2.483     2.464
   298   6 C      3.744    -0.131    23.089     6.855
   299   1 H      0.925     0.031     2.568     2.506
   300   1 H      0.925     0.047     2.354     2.399
   301   1 H      0.924     0.073     2.056     2.242
   302   6 C      2.753     0.286    22.153     7.707
   303   8 O      0.858    -0.488    23.523     6.503
   304   7 N      2.714    -0.171    24.688     7.380
   305   1 H      0.860     0.222     1.000     1.567
   306   6 C      3.776     0.009    20.458     6.444
   307   1 H      0.924     0.095     1.827     2.114
   308   6 C      3.828    -0.091    22.210     6.706
   309   1 H      0.925     0.097     1.813     2.106
   310   1 H      0.925     0.073     2.053     2.241
   311   6 C      2.957    -0.010    28.264     8.720
   312   6 C      2.894    -0.058    29.428     8.894
   313   1 H      0.926     0.065     2.141     2.288
   314   6 C      2.917    -0.082    30.054     8.990
   315   1 H      0.926     0.015     2.817     2.625
   316   6 C      2.827     0.148    24.772     8.156
   317   8 O      1.662    -0.412    21.076     6.198
   318   1 H      0.805     0.309     0.695     1.309
   319   6 C      2.901    -0.078    29.949     8.973
   320   1 H      0.926     0.041     2.430     2.438
   321   6 C      2.902    -0.049    29.208     8.861
   322   1 H      0.926     0.074     2.046     2.237
   323   6 C      2.731     0.268    22.473     7.761
   324   8 O      0.861    -0.478    23.300     6.472
   325   7 N      2.676    -0.162    24.516     7.354
   326   1 H      0.860     0.219     1.014     1.577
   327   6 C      3.771     0.010    20.445     6.443
   328   1 H      0.924     0.075     2.033     2.230
   329   6 C      3.800    -0.080    22.032     6.683
   330   1 H      0.925     0.048     2.340     2.392
   331   1 H      0.924     0.076     2.018     2.221
   332   6 C      3.798    -0.080    22.027     6.683
   333   1 H      0.924     0.083     1.946     2.181
   334   1 H      0.924     0.058     2.228     2.334
   335   6 C      3.807    -0.102    22.433     6.742
   336   1 H      0.925     0.087     1.908     2.160
   337   1 H      0.925     0.100     1.787     2.090
   338   6 C      3.732    -0.056    21.680     6.646
   339   1 H      0.925     0.110     1.701     2.039
   340   1 H      0.925     0.103     1.759     2.074
   341   7 N      3.491    -0.146    24.146     7.298
   342   1 H      0.860     0.307     0.692     1.303
   343   1 H      0.860     0.293     0.733     1.341
   344   1 H      0.860     0.309     0.687     1.298
   345   6 C      2.746     0.267    22.501     7.767
   346   8 O      0.859    -0.496    23.691     6.526
   347   7 N      2.685    -0.192    25.170     7.451
   348   1 H      0.860     0.219     1.012     1.576
   349   6 C      3.789     0.050    19.741     6.328
   350   1 H      0.925     0.062     2.173     2.305
   351   6 C      3.803    -0.089    22.187     6.706
   352   1 H      0.925     0.041     2.430     2.438
   353   1 H      0.925     0.052     2.299     2.371
   354   6 C      2.695     0.368    20.760     7.457
   355   8 O      0.859    -0.672    27.946     7.088
   356   8 O      0.856    -0.631    26.897     6.953
   357   6 C      2.748     0.270    22.446     7.758
   358   8 O      0.859    -0.494    23.650     6.520
   359   7 N      2.685    -0.163    24.537     7.357
   360   1 H      0.860     0.204     1.087     1.633
   361   6 C      3.788     0.019    20.276     6.413
   362   1 H      0.925     0.104     1.747     2.067
   363   6 C      3.735     0.123    18.664     6.166
   364   1 H      0.925     0.036     2.500     2.473
   365   6 C      3.756    -0.140    23.261     6.877
   366   1 H      0.925     0.066     2.132     2.284
   367   1 H      0.925     0.065     2.136     2.286
   368   1 H      0.925     0.056     2.250     2.346
   369   8 O      1.662    -0.485    22.578     6.415
   370   1 H      0.807     0.344     0.603     1.219
   371   6 C      2.759     0.262    22.580     7.782
   372   8 O      0.857    -0.506    23.924     6.558
   373   7 N      2.681    -0.178    24.851     7.404
   374   1 H      0.860     0.195     1.132     1.667
   375   6 C      3.783     0.028    20.124     6.390
   376   1 H      0.924     0.085     1.930     2.173
   377   6 C      3.787    -0.061    21.692     6.634
   378   1 H      0.924     0.083     1.948     2.183
   379   1 H      0.925     0.042     2.420     2.432
   380   6 C      3.792    -0.100    22.415     6.742
   381   1 H      0.925     0.057     2.232     2.336
   382   1 H      0.925     0.023     2.692     2.566
   383   6 C      2.686     0.357    20.933     7.488
   384   8 O      0.858    -0.598    26.057     6.844
   385   8 O      0.857    -0.623    26.693     6.927
   386   6 C      2.745     0.268    22.480     7.763
   387   8 O      0.859    -0.467    23.062     6.439
   388   7 N      2.675    -0.197    25.279     7.467
   389   1 H      0.860     0.185     1.183     1.704
   390   6 C      3.728    -0.046    21.494     6.619
   391   1 H      0.925     0.118     1.633     1.998
   392   1 H      0.925     0.111     1.689     2.032
   393   6 C      2.748     0.277    22.308     7.734
   394   8 O      0.860    -0.450    22.695     6.387
   395   7 N      2.690    -0.155    24.351     7.329
   396   1 H      0.860     0.178     1.226     1.734
   397   6 C      3.789     0.017    20.308     6.418
   398   1 H      0.924     0.100     1.782     2.088
   399   6 C      3.810    -0.079    21.997     6.676
   400   1 H      0.924     0.067     2.118     2.276
   401   1 H      0.925     0.048     2.340     2.392
   402   6 C      2.959    -0.001    28.060     8.689
   403   6 C      2.910    -0.049    29.223     8.864
   404   1 H      0.926     0.032     2.552     2.498
   405   6 C      2.905    -0.068    29.681     8.933
   406   1 H      0.926     0.056     2.250     2.346
   407   6 C      2.834     0.140    24.939     8.184
   408   8 O      1.661    -0.425    21.329     6.235
   409   1 H      0.807     0.356     0.574     1.190
   410   6 C      2.909    -0.070    29.753     8.944
   411   1 H      0.926     0.052     2.293     2.368
   412   6 C      2.910    -0.034    28.851     8.808
   413   1 H      0.926     0.055     2.257     2.349
   414   6 C      2.748     0.262    22.586     7.782
   415   8 O      0.856    -0.512    24.046     6.574
   416   7 N      2.683    -0.160    24.471     7.347
   417   1 H      0.860     0.223     0.998     1.565
   418   6 C      3.786     0.013    20.376     6.429
   419   1 H      0.924     0.091     1.868     2.137
   420   6 C      3.804    -0.085    22.126     6.697
   421   1 H      0.924     0.084     1.938     2.177
   422   1 H      0.925     0.060     2.199     2.319
   423   6 C      2.976    -0.013    28.343     8.733
   424   6 C      2.921    -0.035    28.871     8.811
   425   1 H      0.926     0.036     2.502     2.474
   426   6 C      2.931    -0.073    29.824     8.956
   427   1 H      0.926     0.035     2.523     2.484
   428   6 C      2.894     0.146    24.822     8.169
   429   8 O      1.662    -0.427    21.381     6.242
   430   1 H      0.805     0.344     0.602     1.219
   431   6 C      2.902    -0.059    29.462     8.900
   432   1 H      0.926     0.087     1.908     2.160
   433   6 C      2.971    -0.043    29.065     8.843
   434   1 H      0.926     0.053     2.280     2.361
   435   6 C      2.745     0.262    22.579     7.780
   436   8 O      0.861    -0.498    23.731     6.531
   437   7 N      2.690    -0.183    24.955     7.419
   438   1 H      0.860     0.241     0.919     1.502
   439   6 C      3.781     0.013    20.381     6.431
   440   1 H      0.925     0.095     1.833     2.117
   441   6 C      3.721     0.119    18.746     6.184
   442   1 H      0.924     0.027     2.636     2.539
   443   6 C      3.750    -0.101    22.496     6.764
   444   1 H      0.924     0.035     2.515     2.480
   445   1 H      0.924     0.037     2.490     2.468
   446   1 H      0.924     0.037     2.494     2.470
   447   8 O      1.660    -0.477    22.404     6.390
   448   1 H      0.806     0.318     0.670     1.285
   449   6 C      2.753     0.251    22.788     7.817
   450   8 O      0.858    -0.466    23.051     6.437
   451   7 N      2.691    -0.155    24.345     7.328
   452   1 H      0.860     0.214     1.036     1.594
   453   6 C      3.789     0.015    20.327     6.421
   454   1 H      0.924     0.092     1.857     2.131
   455   6 C      3.846    -0.040    21.262     6.559
   456   1 H      0.925     0.074     2.038     2.233
   457   6 C      3.744    -0.132    23.118     6.859
   458   1 H      0.924     0.045     2.383     2.414
   459   1 H      0.925     0.074     2.038     2.232
   460   1 H      0.925     0.038     2.471     2.458
   461   6 C      3.802    -0.073    21.891     6.661
   462   1 H      0.925     0.042     2.423     2.434
   463   1 H      0.925     0.033     2.549     2.497
   464   6 C      3.750    -0.127    22.998     6.840
   465   1 H      0.925     0.053     2.280     2.362
   466   1 H      0.925     0.053     2.280     2.362
   467   1 H      0.925     0.059     2.207     2.323
   468   6 C      2.748     0.271    22.425     7.754
   469   8 O      0.859    -0.498    23.744     6.533
   470   7 N      2.680    -0.176    24.804     7.397
   471   1 H      0.860     0.239     0.928     1.509
   472   6 C      3.739    -0.039    21.344     6.592
   473   1 H      0.924     0.069     2.098     2.265
   474   1 H      0.925     0.108     1.714     2.047
   475   6 C      2.748     0.279    22.276     7.728
   476   8 O      0.860    -0.476    23.256     6.466
   477   7 N      2.692    -0.172    24.732     7.386
   478   1 H      0.860     0.201     1.101     1.643
   479   6 C      3.784     0.000    20.593     6.464
   480   1 H      0.925     0.087     1.909     2.160
   481   6 C      3.840    -0.025    20.993     6.518
   482   1 H      0.924     0.043     2.414     2.430
   483   6 C      3.773    -0.112    22.667     6.784
   484   1 H      0.925     0.012     2.861     2.645
   485   1 H      0.925     0.059     2.214     2.327
   486   1 H      0.924     0.055     2.258     2.350
   487   6 C      3.818    -0.078    21.976     6.672
   488   1 H      0.925     0.060     2.204     2.322
   489   1 H      0.925     0.061     2.188     2.313
   490   6 C      3.749    -0.124    22.946     6.832
   491   1 H      0.924     0.046     2.373     2.409
   492   1 H      0.925     0.028     2.615     2.529
   493   1 H      0.925     0.068     2.113     2.273
   494   6 C      2.748     0.281    22.246     7.723
   495   8 O      0.864    -0.477    23.269     6.468
   496   7 N      2.691    -0.173    24.755     7.389
   497   1 H      0.860     0.218     1.020     1.582
   498   6 C      3.743    -0.007    20.770     6.502
   499   1 H      0.925     0.067     2.118     2.276
   500   1 H      0.925     0.085     1.926     2.170
   501   6 C      2.745     0.281    22.246     7.723
   502   8 O      0.858    -0.507    23.941     6.560
   503   7 N      2.677    -0.184    25.000     7.426
   504   1 H      0.860     0.228     0.973     1.545
   505   6 C      3.787     0.030    20.082     6.383
   506   1 H      0.924     0.062     2.180     2.309
   507   6 C      3.799    -0.083    22.088     6.692
   508   1 H      0.924     0.120     1.617     1.988
   509   1 H      0.925     0.106     1.730     2.057
   510   6 C      3.010     0.053    26.785     8.490
   511   7 N      2.817    -0.036    21.945     6.958
   512   1 H      0.860     0.246     0.898     1.485
   513   6 C      2.924     0.069    26.459     8.435
   514   1 H      0.926     0.148     1.407     1.855
   515   7 N      2.808    -0.011    21.469     6.882
   516   1 H      0.860     0.271     0.806     1.406
   517   6 C      2.975    -0.019    28.488     8.755
   518   1 H      0.926     0.145     1.425     1.867
   519   6 C      2.748     0.258    22.656     7.794
   520   8 O      0.858    -0.463    22.979     6.427
   521   7 N      2.689    -0.170    24.671     7.377
   522   1 H      0.860     0.189     1.162     1.688
   523   6 C      3.782     0.021    20.241     6.409
   524   1 H      0.924     0.074     2.039     2.233
   525   6 C      3.810    -0.070    21.828     6.651
   526   1 H      0.925     0.053     2.286     2.364
   527   1 H      0.924     0.049     2.327     2.386
   528   6 C      3.847    -0.013    20.774     6.483
   529   1 H      0.925     0.045     2.382     2.413
   530   6 C      3.765    -0.121    22.863     6.815
   531   1 H      0.925     0.061     2.182     2.310
   532   1 H      0.925     0.041     2.430     2.438
   533   1 H      0.925     0.035     2.516     2.481
   534   6 C      3.774    -0.128    22.987     6.832
   535   1 H      0.925     0.040     2.455     2.450
   536   1 H      0.925     0.067     2.119     2.277
   537   1 H      0.924     0.034     2.537     2.491
   538   6 C      2.745     0.265    22.523     7.771
   539   8 O      0.868    -0.506    23.922     6.558
   540   7 N      2.695    -0.168    24.625     7.370
   541   1 H      0.860     0.225     0.987     1.556
   542   6 C      3.805     0.012    20.375     6.426
   543   1 H      0.925     0.092     1.863     2.134
   544   6 C      3.811    -0.078    21.975     6.673
   545   1 H      0.925     0.054     2.268     2.355
   546   1 H      0.924     0.062     2.174     2.306
   547   6 C      3.853    -0.020    20.898     6.502
   548   1 H      0.925     0.037     2.485     2.465
   549   6 C      3.755    -0.127    22.984     6.836
   550   1 H      0.925     0.064     2.153     2.294
   551   1 H      0.924     0.037     2.483     2.464
   552   1 H      0.924     0.057     2.240     2.341
   553   6 C      3.756    -0.128    23.013     6.840
   554   1 H      0.924     0.047     2.352     2.399
   555   1 H      0.924     0.063     2.166     2.302
   556   1 H      0.924     0.028     2.614     2.528
   557   6 C      2.755     0.291    22.074     7.694
   558   8 O      0.869    -0.476    23.264     6.467
   559   7 N      2.686    -0.190    25.121     7.444
   560   1 H      0.860     0.215     1.032     1.592
   561   6 C      3.784     0.008    20.468     6.444
   562   1 H      0.924     0.072     2.060     2.245
   563   6 C      3.717     0.111    18.870     6.205
   564   1 H      0.925     0.035     2.511     2.478
   565   6 C      3.751    -0.124    22.949     6.832
   566   1 H      0.925     0.047     2.355     2.400
   567   1 H      0.925     0.057     2.236     2.339
   568   1 H      0.925     0.065     2.144     2.290
   569   8 O      1.652    -0.483    22.531     6.408
   570   1 H      0.805     0.341     0.611     1.227
   571   6 C      2.761     0.271    22.417     7.754
   572   8 O      0.857    -0.451    22.717     6.390
   573   7 N      2.686    -0.185    24.999     7.426
   574   1 H      0.860     0.223     0.998     1.565
   575   6 C      3.798     0.012    20.375     6.427
   576   1 H      0.925     0.101     1.779     2.086
   577   6 C      3.801    -0.082    22.072     6.689
   578   1 H      0.924     0.073     2.050     2.239
   579   1 H      0.925     0.063     2.160     2.298
   580   6 C      3.807    -0.083    22.075     6.688
   581   1 H      0.925     0.071     2.071     2.251
   582   1 H      0.925     0.056     2.248     2.345
   583   6 C      3.808    -0.099    22.384     6.735
   584   1 H      0.925     0.080     1.979     2.200
   585   1 H      0.924     0.096     1.823     2.112
   586   6 C      3.735    -0.043    21.434     6.607
   587   1 H      0.924     0.118     1.630     1.997
   588   1 H      0.925     0.108     1.712     2.046
   589   7 N      3.484    -0.158    24.406     7.337
   590   1 H      0.860     0.299     0.716     1.325
   591   1 H      0.860     0.297     0.722     1.331
   592   1 H      0.860     0.293     0.734     1.342
   593   6 C      2.749     0.264    22.544     7.775
   594   8 O      0.859    -0.509    23.982     6.566
   595   7 N      2.691    -0.162    24.514     7.353
   596   1 H      0.860     0.209     1.060     1.613
   597   6 C      3.784     0.014    20.365     6.428
   598   1 H      0.925     0.077     2.012     2.218
   599   6 C      3.684     0.075    19.519     6.326
   600   1 H      0.925     0.040     2.449     2.447
   601   1 H      0.925     0.059     2.208     2.324
   602   8 O      1.654    -0.478    22.424     6.392
   603   1 H      0.805     0.350     0.588     1.205
   604   6 C      2.748     0.256    22.695     7.801
   605   8 O      0.858    -0.486    23.473     6.496
   606   7 N      2.742    -0.091    23.023     7.126
   607   6 C      3.788    -0.022    20.975     6.523
   608   1 H      0.925     0.058     2.218     2.329
   609   1 H      0.924     0.073     2.052     2.240
   610   6 C      3.799    -0.072    21.877     6.660
   611   1 H      0.925     0.074     2.038     2.232
   612   1 H      0.924     0.067     2.119     2.276
   613   6 C      3.834    -0.072    21.849     6.650
   614   1 H      0.924     0.072     2.067     2.248
   615   1 H      0.925     0.084     1.943     2.180
   616   6 C      3.810     0.021    20.219     6.401
   617   1 H      0.924     0.086     1.918     2.166
   618   6 C      2.753     0.263    22.574     7.780
   619   8 O      0.859    -0.510    23.995     6.568
   620   7 N      2.673    -0.174    24.773     7.392
   621   1 H      0.860     0.214     1.036     1.595
   622   6 C      3.775     0.001    20.584     6.464
   623   1 H      0.925     0.098     1.805     2.101
   624   6 C      3.666     0.056    19.885     6.395
   625   1 H      0.924     0.060     2.203     2.321
   626   1 H      0.924     0.071     2.071     2.250
   627   8 O      1.651    -0.485    22.571     6.413
   628   1 H      0.805     0.352     0.584     1.200
   629   6 C      2.743     0.270    22.429     7.754
   630   8 O      0.859    -0.458    22.883     6.414
   631   7 N      2.691    -0.182    24.948     7.418
   632   1 H      0.860     0.215     1.034     1.593
   633   6 C      3.787    -0.005    20.676     6.476
   634   1 H      0.925     0.101     1.778     2.085
   635   6 C      3.793    -0.102    22.446     6.747
   636   1 H      0.925     0.062     2.173     2.305
   637   1 H      0.925     0.082     1.960     2.189
   638   6 C      3.833    -0.034    21.161     6.545
   639   1 H      0.924     0.051     2.302     2.373
   640   6 C      3.753    -0.137    23.188     6.867
   641   1 H      0.924     0.059     2.209     2.324
   642   1 H      0.925     0.057     2.236     2.338
   643   1 H      0.924     0.039     2.461     2.453
   644   6 C      3.749    -0.138    23.229     6.874
   645   1 H      0.925     0.050     2.326     2.385
   646   1 H      0.924     0.077     2.009     2.217
   647   1 H      0.925     0.056     2.244     2.343
   648   6 C      2.746     0.277    22.314     7.735
   649   8 O      0.859    -0.440    22.490     6.358
   650   7 N      2.687    -0.197    25.283     7.468
   651   1 H      0.860     0.224     0.991     1.560
   652   6 C      3.792     0.013    20.365     6.427
   653   1 H      0.925     0.093     1.852     2.128
   654   6 C      3.793    -0.126    22.926     6.818
   655   1 H      0.925     0.075     2.035     2.231
   656   1 H      0.925     0.114     1.665     2.018
   657   6 C      2.732     0.296    21.969     7.674
   658   8 O      0.877    -0.473    23.190     6.457
   659   7 N      2.653    -0.288    27.431     7.779
   660   1 H      0.860     0.230     0.966     1.540
   661   1 H      0.860     0.226     0.982     1.553
   662   6 C      2.748     0.272    22.409     7.751
   663   8 O      0.859    -0.481    23.358     6.480
   664   7 N      2.682    -0.202    25.392     7.484
   665   1 H      0.860     0.234     0.950     1.527
   666   6 C      3.788     0.030    20.075     6.381
   667   1 H      0.924     0.072     2.068     2.249
   668   6 C      3.758    -0.130    23.048     6.845
   669   1 H      0.925     0.054     2.277     2.360
   670   1 H      0.924     0.074     2.041     2.234
   671   1 H      0.924     0.085     1.931     2.173
   672   6 C      2.746     0.264    22.542     7.774
   673   8 O      0.858    -0.527    24.394     6.622
   674   7 N      2.695    -0.180    24.892     7.410
   675   1 H      0.860     0.239     0.927     1.508
   676   6 C      3.776     0.018    20.291     6.418
   677   1 H      0.924     0.069     2.100     2.266
   678   6 C      3.770    -0.140    23.226     6.868
   679   1 H      0.925     0.072     2.063     2.246
   680   1 H      0.925     0.078     1.995     2.209
   681   1 H      0.925     0.089     1.887     2.148
   682   6 C      2.739     0.261    22.591     7.782
   683   8 O      0.860    -0.505    23.891     6.553
   684   7 N      2.677    -0.175    24.801     7.396
   685   1 H      0.860     0.242     0.915     1.498
   686   6 C      3.766     0.000    20.615     6.471
   687   1 H      0.924     0.095     1.832     2.117
   688   6 C      3.815    -0.072    21.856     6.654
   689   1 H      0.925     0.048     2.343     2.394
   690   1 H      0.925     0.064     2.152     2.294
   691   6 C      3.814    -0.094    22.276     6.718
   692   1 H      0.925     0.109     1.705     2.042
   693   1 H      0.924     0.075     2.035     2.231
   694   6 C      3.825    -0.094    22.268     6.715
   695   1 H      0.924     0.064     2.152     2.294
   696   1 H      0.925     0.067     2.116     2.275
   697   6 C      3.738    -0.067    21.874     6.674
   698   1 H      0.925     0.135     1.494     1.912
   699   1 H      0.924     0.122     1.595     1.975
   700   7 N      3.482    -0.152    24.279     7.318
   701   1 H      0.860     0.299     0.718     1.327
   702   1 H      0.860     0.316     0.666     1.279
   703   1 H      0.860     0.294     0.733     1.341
   704   6 C      2.749     0.277    22.309     7.734
   705   8 O      0.859    -0.504    23.862     6.549
   706   7 N      2.688    -0.185    25.011     7.428
   707   1 H      0.860     0.242     0.914     1.497
   708   6 C      3.793     0.032    20.040     6.375
   709   1 H      0.925     0.066     2.132     2.283
   710   6 C      3.684     0.076    19.501     6.323
   711   1 H      0.925     0.031     2.574     2.509
   712   1 H      0.925     0.054     2.273     2.357
   713   8 O      1.657    -0.468    22.211     6.362
   714   1 H      0.806     0.347     0.595     1.211
   715   6 C      2.748     0.259    22.641     7.791
   716   8 O      0.857    -0.515    24.129     6.586
   717   7 N      2.689    -0.190    25.115     7.443
   718   1 H      0.860     0.232     0.956     1.532
   719   6 C      3.798     0.033    20.027     6.372
   720   1 H      0.924     0.067     2.124     2.279
   721   6 C      3.807    -0.055    21.563     6.610
   722   1 H      0.924     0.057     2.238     2.340
   723   1 H      0.925     0.048     2.347     2.396
   724   6 C      3.803    -0.102    22.444     6.745
   725   1 H      0.925     0.048     2.344     2.394
   726   1 H      0.925     0.044     2.397     2.421
   727   6 C      2.689     0.373    20.687     7.443
   728   8 O      0.859    -0.637    27.047     6.973
   729   8 O      0.861    -0.641    27.138     6.985
   730   6 C      2.766     0.275    22.342     7.741
   731   8 O      0.862    -0.506    23.908     6.556
   732   7 N      2.690    -0.192    25.157     7.449
   733   1 H      0.860     0.215     1.033     1.592
   734   6 C      3.789     0.025    20.166     6.396
   735   1 H      0.925     0.098     1.799     2.097
   736   6 C      3.809    -0.090    22.213     6.709
   737   1 H      0.925     0.053     2.284     2.363
   738   1 H      0.924     0.100     1.782     2.088
   739   6 C      3.846    -0.025    20.982     6.516
   740   1 H      0.925     0.020     2.728     2.583
   741   6 C      3.752    -0.131    23.088     6.852
   742   1 H      0.925     0.072     2.065     2.247
   743   1 H      0.925     0.038     2.470     2.458
   744   1 H      0.924     0.050     2.316     2.380
   745   6 C      3.749    -0.125    22.970     6.836
   746   1 H      0.925     0.059     2.207     2.323
   747   1 H      0.924     0.029     2.599     2.521
   748   1 H      0.924     0.067     2.116     2.275
   749   6 C      2.745     0.268    22.473     7.762
   750   8 O      0.857    -0.498    23.740     6.533
   751   7 N      2.688    -0.191    25.145     7.447
   752   1 H      0.860     0.215     1.031     1.591
   753   6 C      3.798     0.053    19.690     6.318
   754   1 H      0.925     0.077     2.014     2.219
   755   6 C      3.805    -0.090    22.209     6.709
   756   1 H      0.924     0.015     2.814     2.623
   757   1 H      0.924     0.032     2.560     2.502
   758   6 C      2.681     0.372    20.697     7.445
   759   8 O      0.857    -0.564    25.241     6.736
   760   8 O      0.856    -0.674    28.011     7.096
   761   6 C      2.759     0.263    22.565     7.779
   762   8 O      0.859    -0.554    25.013     6.705
   763   7 N      2.704    -0.157    24.392     7.335
   764   1 H      0.860     0.203     1.089     1.635
   765   6 C      3.786     0.018    20.282     6.415
   766   1 H      0.925     0.082     1.960     2.190
   767   6 C      3.812    -0.086    22.126     6.695
   768   1 H      0.925     0.068     2.105     2.269
   769   1 H      0.925     0.059     2.206     2.322
   770   6 C      3.809    -0.082    22.057     6.685
   771   1 H      0.925     0.062     2.173     2.305
   772   1 H      0.925     0.050     2.322     2.383
   773   6 C      3.797    -0.101    22.434     6.744
   774   1 H      0.924     0.088     1.900     2.156
   775   1 H      0.925     0.087     1.910     2.161
   776   6 C      3.741    -0.040    21.361     6.594
   777   1 H      0.925     0.099     1.791     2.093
   778   1 H      0.925     0.097     1.812     2.105
   779   7 N      3.490    -0.144    24.099     7.291
   780   1 H      0.860     0.299     0.718     1.327
   781   1 H      0.860     0.295     0.730     1.338
   782   1 H      0.860     0.297     0.722     1.331
   783   6 C      2.741     0.276    22.332     7.738
   784   8 O      0.861    -0.517    24.159     6.590
   785   7 N      2.693    -0.178    24.864     7.406
   786   1 H      0.860     0.221     1.006     1.571
   787   6 C      3.790     0.021    20.229     6.405
   788   1 H      0.925     0.078     2.002     2.213
   789   6 C      3.763    -0.143    23.295     6.880
   790   1 H      0.925     0.084     1.940     2.178
   791   1 H      0.925     0.083     1.950     2.184
   792   1 H      0.924     0.078     2.004     2.214
   793   6 C      2.752     0.284    22.192     7.714
   794   8 O      0.861    -0.522    24.280     6.607
   795   7 N      2.689    -0.188    25.085     7.439
   796   1 H      0.860     0.223     0.994     1.562
   797   6 C      3.784     0.013    20.370     6.429
   798   1 H      0.924     0.090     1.882     2.145
   799   6 C      3.847    -0.022    20.926     6.507
   800   1 H      0.924     0.044     2.393     2.419
   801   6 C      3.755    -0.115    22.760     6.802
   802   1 H      0.925     0.038     2.470     2.458
   803   1 H      0.924     0.069     2.099     2.266
   804   1 H      0.924     0.048     2.347     2.396
   805   6 C      3.795    -0.074    21.914     6.666
   806   1 H      0.924     0.066     2.135     2.285
   807   1 H      0.924     0.041     2.430     2.438
   808   6 C      3.743    -0.113    22.740     6.803
   809   1 H      0.925     0.034     2.527     2.486
   810   1 H      0.924     0.041     2.436     2.441
   811   1 H      0.925     0.057     2.234     2.337
   812   6 C      2.743     0.277    22.318     7.735
   813   8 O      0.859    -0.484    23.423     6.489
   814   7 N      2.674    -0.175    24.784     7.394
   815   1 H      0.860     0.205     1.082     1.630
   816   6 C      3.744    -0.028    21.141     6.559
   817   1 H      0.924     0.093     1.851     2.127
   818   1 H      0.924     0.091     1.872     2.140
   819   6 C      2.747     0.284    22.196     7.714
   820   8 O      0.858    -0.503    23.848     6.547
   821   7 N      2.691    -0.170    24.689     7.380
   822   1 H      0.860     0.210     1.055     1.609
   823   6 C      3.783     0.012    20.398     6.433
   824   1 H      0.924     0.073     2.049     2.239
   825   6 C      3.796    -0.078    21.995     6.678
   826   1 H      0.925     0.073     2.049     2.238
   827   1 H      0.925     0.072     2.066     2.248
   828   6 C      3.799    -0.075    21.930     6.668
   829   1 H      0.924     0.061     2.191     2.315
   830   1 H      0.924     0.049     2.329     2.386
   831   6 C      3.736    -0.014    20.918     6.527
   832   1 H      0.925     0.087     1.905     2.158
   833   1 H      0.924     0.083     1.949     2.183
   834   7 N      2.693    -0.158    24.411     7.338
   835   1 H      0.860     0.237     0.937     1.516
   836   6 C      2.733     0.236    23.063     7.862
   837   7 N      2.692    -0.254    26.599     7.660
   838   1 H      0.860     0.265     0.827     1.425
   839   1 H      0.861     0.242     0.914     1.498
   840   7 N      2.697    -0.274    27.069     7.727
   841   1 H      0.860     0.231     0.961     1.536
   842   1 H      0.860     0.248     0.890     1.478
   843   6 C      2.757     0.277    22.321     7.737
   844   8 O      0.860    -0.490    23.567     6.509
   845   7 N      2.686    -0.175    24.789     7.395
   846   1 H      0.860     0.218     1.017     1.580
   847   6 C      3.791     0.024    20.182     6.398
   848   1 H      0.924     0.049     2.328     2.386
   849   6 C      3.806    -0.113    22.663     6.777
   850   1 H      0.925     0.083     1.950     2.184
   851   1 H      0.925     0.109     1.709     2.045
   852   6 C      2.740     0.296    21.979     7.676
   853   8 O      0.861    -0.497    23.710     6.529
   854   7 N      2.643    -0.298    27.671     7.812
   855   1 H      0.860     0.230     0.967     1.540
   856   1 H      0.860     0.237     0.934     1.514
   857   6 C      2.747     0.278    22.298     7.732
   858   8 O      0.864    -0.455    22.806     6.403
   859   7 N      2.689    -0.187    25.055     7.434
   860   1 H      0.860     0.220     1.009     1.574
   861   6 C      3.865     0.007    20.418     6.426
   862   1 H      0.924     0.103     1.762     2.076
   863   6 C      3.793    -0.014    20.840     6.501
   864   1 H      0.925     0.116     1.647     2.007
   865   1 H      0.924     0.048     2.346     2.395
   866  16 S      1.981    -0.294   153.769    20.871
   867   1 H      0.923     0.166     1.291     1.777
   868   6 C      2.743     0.277    22.315     7.735
   869   8 O      0.861    -0.402    21.713     6.248
   870   7 N      2.691    -0.202    25.384     7.483
   871   1 H      0.860     0.179     1.218     1.729
   872   6 C      3.778     0.023    20.216     6.406
   873   1 H      0.924     0.096     1.826     2.113
   874   6 C      3.819    -0.093    22.258     6.714
   875   1 H      0.925     0.078     2.002     2.213
   876   1 H      0.925     0.077     2.010     2.217
   877   6 C      2.744     0.292    22.051     7.689
   878   8 O      0.874    -0.520    24.216     6.598
   879   7 N      2.656    -0.272    27.029     7.721
   880   1 H      0.860     0.250     0.882     1.471
   881   1 H      0.860     0.221     1.007     1.572
   882   6 C      2.741     0.258    22.662     7.795
   883   8 O      0.856    -0.443    22.562     6.368
   884   7 N      2.675    -0.165    24.575     7.363
   885   1 H      0.860     0.183     1.200     1.716
   886   6 C      3.732    -0.056    21.682     6.646
   887   1 H      0.925     0.135     1.494     1.912
   888   1 H      0.925     0.104     1.753     2.070
   889   6 C      2.740     0.271    22.424     7.753
   890   8 O      0.861    -0.443    22.565     6.369
   891   7 N      2.686    -0.156    24.384     7.334
   892   1 H      0.860     0.200     1.108     1.649
   893   6 C      3.789     0.006    20.488     6.447
   894   1 H      0.925     0.083     1.953     2.185
   895   6 C      3.847    -0.019    20.883     6.500
   896   1 H      0.925     0.056     2.251     2.346
   897   6 C      3.755    -0.144    23.341     6.889
   898   1 H      0.924     0.073     2.057     2.243
   899   1 H      0.925     0.047     2.355     2.400
   900   1 H      0.924     0.081     1.971     2.195
   901   6 C      3.753    -0.121    22.869     6.819
   902   1 H      0.925     0.049     2.326     2.385
   903   1 H      0.925     0.052     2.298     2.371
   904   1 H      0.924     0.020     2.733     2.585
   905   6 C      2.746     0.262    22.584     7.781
   906   8 O      0.857    -0.497    23.726     6.531
   907   7 N      2.677    -0.185    25.005     7.427
   908   1 H      0.860     0.233     0.951     1.528
   909   6 C      3.784     0.016    20.322     6.421
   910   1 H      0.925     0.070     2.090     2.261
   911   6 C      3.843    -0.024    20.979     6.515
   912   1 H      0.925     0.042     2.418     2.432
   913   6 C      3.756    -0.112    22.688     6.791
   914   1 H      0.925     0.049     2.332     2.388
   915   1 H      0.924     0.052     2.297     2.370
   916   1 H      0.924     0.041     2.442     2.444
   917   6 C      3.787    -0.068    21.812     6.652
   918   1 H      0.924     0.033     2.546     2.495
   919   1 H      0.925     0.063     2.168     2.302
   920   6 C      3.745    -0.113    22.725     6.800
   921   1 H      0.925     0.047     2.352     2.398
   922   1 H      0.924     0.049     2.338     2.391
   923   1 H      0.925     0.019     2.744     2.590
   924   6 C      2.739     0.258    22.647     7.792
   925   8 O      0.858    -0.472    23.183     6.456
   926   7 N      2.684    -0.199    25.319     7.473
   927   1 H      0.860     0.225     0.986     1.556
   928   6 C      3.779     0.003    20.544     6.457
   929   1 H      0.925     0.076     2.020     2.222
   930   6 C      3.725     0.109    18.894     6.206
   931   1 H      0.924     0.035     2.517     2.481
   932   6 C      3.749    -0.140    23.270     6.880
   933   1 H      0.924     0.059     2.212     2.326
   934   1 H      0.925     0.073     2.054     2.241
   935   1 H      0.925     0.060     2.200     2.320
   936   8 O      1.655    -0.525    23.432     6.535
   937   1 H      0.805     0.332     0.632     1.249
   938   6 C      2.740     0.272    22.402     7.750
   939   8 O      0.859    -0.462    22.961     6.425
   940   7 N      2.680    -0.201    25.366     7.480
   941   1 H      0.860     0.214     1.038     1.596
   942   6 C      3.779     0.016    20.324     6.423
   943   1 H      0.925     0.110     1.694     2.035
   944   6 C      3.793    -0.081    22.063     6.689
   945   1 H      0.925     0.045     2.379     2.412
   946   1 H      0.924     0.087     1.907     2.159
   947   6 C      3.794    -0.084    22.110     6.696
   948   1 H      0.924     0.081     1.970     2.195
   949   1 H      0.925     0.057     2.229     2.335
   950   6 C      3.796    -0.095    22.325     6.728
   951   1 H      0.924     0.068     2.106     2.269
   952   1 H      0.924     0.097     1.816     2.107
   953   6 C      3.729    -0.051    21.584     6.632
   954   1 H      0.924     0.124     1.580     1.966
   955   1 H      0.925     0.115     1.657     2.013
   956   7 N      3.485    -0.155    24.339     7.327
   957   1 H      0.860     0.306     0.696     1.307
   958   1 H      0.860     0.306     0.695     1.306
   959   1 H      0.860     0.293     0.735     1.343
   960   6 C      2.747     0.270    22.447     7.758
   961   8 O      0.860    -0.499    23.769     6.537
   962   7 N      2.692    -0.179    24.885     7.409
   963   1 H      0.860     0.202     1.094     1.639
   964   6 C      3.789     0.049    19.760     6.331
   965   1 H      0.924     0.073     2.053     2.241
   966   6 C      3.798    -0.104    22.496     6.753
   967   1 H      0.924     0.048     2.351     2.398
   968   1 H      0.925     0.044     2.393     2.419
   969   6 C      2.681     0.355    20.967     7.493
   970   8 O      0.856    -0.620    26.624     6.918
   971   8 O      0.856    -0.629    26.836     6.945
   972   6 C      2.748     0.264    22.545     7.775
   973   8 O      0.861    -0.510    24.012     6.570
   974   7 N      2.686    -0.186    25.041     7.432
   975   1 H      0.860     0.210     1.059     1.612
   976   6 C      3.791     0.027    20.135     6.390
   977   1 H      0.925     0.075     2.030     2.228
   978   6 C      3.806    -0.068    21.792     6.645
   979   1 H      0.925     0.077     2.007     2.215
   980   1 H      0.925     0.070     2.085     2.258
   981   6 C      3.807    -0.101    22.417     6.740
   982   1 H      0.925     0.051     2.307     2.375
   983   1 H      0.925     0.049     2.338     2.391
   984   6 C      2.689     0.359    20.906     7.483
   985   8 O      0.856    -0.592    25.924     6.826
   986   8 O      0.857    -0.595    25.987     6.835
   987   6 C      2.754     0.262    22.591     7.783
   988   8 O      0.860    -0.514    24.095     6.581
   989   7 N      2.702    -0.156    24.373     7.332
   990   1 H      0.860     0.214     1.037     1.595
   991   6 C      3.796     0.021    20.225     6.404
   992   1 H      0.925     0.092     1.860     2.133
   993   6 C      3.768    -0.138    23.192     6.863
   994   1 H      0.924     0.091     1.871     2.139
   995   1 H      0.925     0.078     1.998     2.210
   996   1 H      0.925     0.061     2.186     2.312
   997   6 C      2.751     0.277    22.307     7.734
   998   8 O      0.861    -0.467    23.069     6.440
   999   7 N      2.682    -0.185    25.006     7.427
  1000   1 H      0.860     0.207     1.070     1.621
  1001   6 C      3.775     0.016    20.330     6.424
  1002   1 H      0.925     0.081     1.971     2.195
  1003   6 C      3.794    -0.053    21.536     6.609
  1004   1 H      0.925     0.040     2.445     2.445
  1005   1 H      0.924     0.030     2.588     2.516
  1006   6 C      3.788    -0.099    22.411     6.742
  1007   1 H      0.925     0.044     2.399     2.422
  1008   1 H      0.924     0.046     2.376     2.411
  1009   6 C      2.683     0.366    20.791     7.462
  1010   8 O      0.856    -0.700    28.723     7.185
  1011   8 O      0.857    -0.611    26.384     6.887
  1012   6 C      2.745     0.270    22.442     7.757
  1013   8 O      0.859    -0.481    23.378     6.483
  1014   7 N      2.681    -0.185    25.008     7.427
  1015   1 H      0.860     0.213     1.043     1.600
  1016   6 C      3.785     0.010    20.433     6.439
  1017   1 H      0.924     0.086     1.920     2.167
  1018   6 C      3.793    -0.082    22.067     6.690
  1019   1 H      0.925     0.075     2.036     2.231
  1020   1 H      0.925     0.071     2.070     2.250
  1021   6 C      3.801    -0.077    21.977     6.675
  1022   1 H      0.925     0.064     2.154     2.295
  1023   1 H      0.925     0.051     2.308     2.376
  1024   6 C      3.810    -0.096    22.329     6.726
  1025   1 H      0.925     0.079     1.985     2.203
  1026   1 H      0.924     0.085     1.929     2.172
  1027   6 C      3.735    -0.041    21.399     6.602
  1028   1 H      0.924     0.096     1.818     2.109
  1029   1 H      0.925     0.120     1.614     1.987
  1030   7 N      3.494    -0.141    24.046     7.283
  1031   1 H      0.860     0.290     0.745     1.352
  1032   1 H      0.860     0.291     0.740     1.347
  1033   1 H      0.860     0.274     0.797     1.398
  1034   6 C      2.746     0.281    22.236     7.721
  1035   8 O      0.863    -0.487    23.488     6.498
  1036   7 N      2.696    -0.171    24.697     7.381
  1037   1 H      0.860     0.212     1.049     1.605
  1038   6 C      3.785     0.006    20.495     6.448
  1039   1 H      0.924     0.088     1.897     2.154
  1040   6 C      3.809    -0.088    22.161     6.701
  1041   1 H      0.925     0.060     2.196     2.318
  1042   1 H      0.925     0.064     2.151     2.294
  1043   6 C      3.846    -0.022    20.933     6.508
  1044   1 H      0.925     0.054     2.273     2.358
  1045   6 C      3.768    -0.135    23.132     6.854
  1046   1 H      0.925     0.048     2.347     2.396
  1047   1 H      0.924     0.047     2.357     2.401
  1048   1 H      0.924     0.072     2.066     2.248
  1049   6 C      3.758    -0.131    23.061     6.846
  1050   1 H      0.924     0.022     2.711     2.575
  1051   1 H      0.924     0.048     2.344     2.394
  1052   1 H      0.925     0.068     2.112     2.273
  1053   6 C      2.748     0.276    22.324     7.737
  1054   8 O      0.860    -0.493    23.637     6.518
  1055   7 N      2.689    -0.199    25.331     7.475
  1056   1 H      0.860     0.236     0.940     1.519
  1057   6 C      3.784     0.033    20.036     6.376
  1058   1 H      0.925     0.068     2.107     2.270
  1059   6 C      3.805    -0.083    22.086     6.690
  1060   1 H      0.924     0.062     2.176     2.307
  1061   1 H      0.925     0.089     1.891     2.151
  1062   6 C      2.955    -0.001    28.059     8.688
  1063   6 C      2.903    -0.036    28.896     8.814
  1064   1 H      0.926     0.031     2.578     2.511
  1065   6 C      2.906    -0.033    28.818     8.802
  1066   1 H      0.926     0.043     2.411     2.428
  1067   6 C      2.919    -0.038    28.949     8.823
  1068   1 H      0.926     0.053     2.283     2.363
  1069   6 C      2.905    -0.032    28.804     8.800
  1070   1 H      0.926     0.058     2.217     2.329
  1071   6 C      2.912    -0.043    29.074     8.842
  1072   1 H      0.926     0.038     2.476     2.461
  1073   6 C      2.741     0.272    22.395     7.748
  1074   8 O      0.856    -0.472    23.180     6.455
  1075   7 N      2.680    -0.196    25.265     7.465
  1076   1 H      0.860     0.210     1.056     1.610
  1077   6 C      3.787     0.022    20.220     6.405
  1078   1 H      0.925     0.088     1.896     2.153
  1079   6 C      3.811    -0.109    22.565     6.762
  1080   1 H      0.924     0.058     2.222     2.331
  1081   1 H      0.925     0.100     1.784     2.089
  1082   6 C      2.741     0.298    21.940     7.669
  1083   8 O      0.872    -0.509    23.980     6.566
  1084   7 N      2.653    -0.274    27.084     7.729
  1085   1 H      0.860     0.252     0.875     1.465
  1086   1 H      0.860     0.228     0.973     1.546
  1087   6 C      2.752     0.282    22.223     7.719
  1088   8 O      0.866    -0.488    23.511     6.501
  1089   7 N      2.698    -0.187    25.059     7.435
  1090   1 H      0.860     0.219     1.016     1.579
  1091   6 C      3.795     0.034    20.011     6.370
  1092   1 H      0.925     0.083     1.946     2.182
  1093   6 C      3.813    -0.060    21.646     6.622
  1094   1 H      0.925     0.067     2.122     2.278
  1095   1 H      0.925     0.052     2.293     2.368
  1096   6 C      3.814    -0.105    22.486     6.749
  1097   1 H      0.925     0.069     2.097     2.265
  1098   1 H      0.924     0.084     1.933     2.174
  1099   6 C      2.750     0.301    21.885     7.660
  1100   8 O      0.863    -0.501    23.810     6.542
  1101   7 N      2.646    -0.291    27.493     7.787
  1102   1 H      0.860     0.220     1.011     1.575
  1103   1 H      0.860     0.221     1.004     1.570
  1104   6 C      2.750     0.258    22.662     7.795
  1105   8 O      0.857    -0.495    23.677     6.524
  1106   7 N      2.680    -0.191    25.148     7.448
  1107   1 H      0.860     0.198     1.117     1.655
  1108   6 C      3.782     0.028    20.122     6.390
  1109   1 H      0.925     0.071     2.072     2.251
  1110   6 C      3.803    -0.086    22.133     6.698
  1111   1 H      0.924     0.045     2.378     2.411
  1112   1 H      0.924     0.039     2.460     2.453
  1113   6 C      2.689     0.363    20.836     7.470
  1114   8 O      0.858    -0.623    26.683     6.926
  1115   8 O      0.856    -0.609    26.330     6.880
  1116   6 C      2.758     0.275    22.352     7.742
  1117   8 O      0.864    -0.489    23.547     6.506
  1118   7 N      2.690    -0.177    24.830     7.401
  1119   1 H      0.860     0.206     1.074     1.623
  1120   6 C      3.806     0.013    20.358     6.423
  1121   1 H      0.925     0.089     1.891     2.150
  1122   6 C      3.844    -0.018    20.862     6.497
  1123   1 H      0.924     0.036     2.498     2.472
  1124   6 C      3.757    -0.125    22.956     6.831
  1125   1 H      0.924     0.066     2.127     2.281
  1126   1 H      0.925     0.061     2.191     2.315
  1127   1 H      0.925     0.055     2.258     2.350
  1128   6 C      3.751    -0.123    22.922     6.828
  1129   1 H      0.924     0.047     2.355     2.400
  1130   1 H      0.925     0.064     2.152     2.294
  1131   1 H      0.925     0.044     2.400     2.423
  1132   6 C      2.749     0.271    22.419     7.753
  1133   8 O      0.859    -0.443    22.565     6.369
  1134   7 N      2.689    -0.194    25.212     7.457
  1135   1 H      0.860     0.172     1.260     1.758
  1136   6 C      3.784     0.039    19.941     6.361
  1137   1 H      0.925     0.084     1.941     2.178
  1138   6 C      3.809    -0.092    22.248     6.714
  1139   1 H      0.924     0.029     2.599     2.521
  1140   1 H      0.925     0.037     2.489     2.467
  1141   6 C      2.694     0.373    20.681     7.443
  1142   8 O      0.858    -0.610    26.370     6.885
  1143   8 O      0.859    -0.628    26.809     6.942
  1144   6 C      2.740     0.254    22.720     7.804
  1145   8 O      0.866    -0.472    23.164     6.453
  1146   7 N      2.703    -0.163    24.530     7.356
  1147   1 H      0.860     0.190     1.160     1.687
  1148   6 C      3.793     0.018    20.275     6.412
  1149   1 H      0.925     0.087     1.910     2.161
  1150   6 C      3.762    -0.133    23.101     6.851
  1151   1 H      0.925     0.076     2.019     2.222
  1152   1 H      0.925     0.051     2.302     2.372
  1153   1 H      0.925     0.075     2.032     2.229
  1154   6 C      2.746     0.274    22.358     7.742
  1155   8 O      0.858    -0.449    22.677     6.385
  1156   7 N      2.690    -0.178    24.853     7.404
  1157   1 H      0.860     0.201     1.099     1.642
  1158   6 C      3.793     0.032    20.051     6.377
  1159   1 H      0.925     0.071     2.077     2.254
  1160   6 C      3.753    -0.126    22.982     6.836
  1161   1 H      0.925     0.056     2.244     2.343
  1162   1 H      0.925     0.064     2.156     2.296
  1163   1 H      0.925     0.071     2.071     2.250
  1164   6 C      2.758     0.257    22.665     7.796
  1165   8 O      0.858    -0.479    23.318     6.474
  1166   7 N      2.684    -0.181    24.920     7.414
  1167   1 H      0.860     0.212     1.046     1.602
  1168   6 C      3.793     0.013    20.367     6.427
  1169   1 H      0.925     0.097     1.814     2.106
  1170   6 C      3.849    -0.029    21.054     6.527
  1171   1 H      0.925     0.038     2.481     2.463
  1172   6 C      3.746    -0.128    23.037     6.846
  1173   1 H      0.924     0.060     2.202     2.320
  1174   1 H      0.925     0.063     2.164     2.300
  1175   1 H      0.925     0.049     2.329     2.387
  1176   6 C      3.750    -0.137    23.199     6.869
  1177   1 H      0.925     0.070     2.088     2.260
  1178   1 H      0.924     0.052     2.293     2.368
  1179   1 H      0.925     0.044     2.402     2.424
  1180   6 C      2.738     0.274    22.361     7.742
  1181   8 O      0.860    -0.430    22.287     6.330
  1182   7 N      2.687    -0.188    25.073     7.437
  1183   1 H      0.860     0.197     1.120     1.657
  1184   6 C      3.783     0.015    20.333     6.423
  1185   1 H      0.925     0.107     1.724     2.053
  1186   6 C      3.798    -0.089    22.199     6.709
  1187   1 H      0.924     0.070     2.090     2.261
  1188   1 H      0.924     0.056     2.244     2.343
  1189   6 C      3.794    -0.100    22.407     6.741
  1190   1 H      0.925     0.074     2.042     2.235
  1191   1 H      0.925     0.099     1.798     2.097
  1192   6 C      3.733    -0.035    21.296     6.586
  1193   1 H      0.925     0.112     1.681     2.027
  1194   1 H      0.925     0.100     1.787     2.091
  1195   7 N      2.697    -0.127    23.768     7.241
  1196   1 H      0.860     0.215     1.032     1.591
  1197   6 C      2.738     0.235    23.075     7.865
  1198   7 N      2.686    -0.267    26.907     7.704
  1199   1 H      0.860     0.238     0.933     1.513
  1200   1 H      0.860     0.255     0.863     1.455
  1201   7 N      2.692    -0.280    27.230     7.750
  1202   1 H      0.860     0.236     0.941     1.520
  1203   1 H      0.860     0.239     0.927     1.508
  1204   6 C      2.744     0.264    22.550     7.775
  1205   8 O      0.859    -0.484    23.431     6.490
  1206   7 N      2.681    -0.177    24.824     7.400
  1207   1 H      0.860     0.217     1.023     1.584
  1208   6 C      3.737    -0.021    21.039     6.545
  1209   1 H      0.924     0.076     2.025     2.225
  1210   1 H      0.924     0.078     1.997     2.210
  1211   6 C      2.746     0.275    22.349     7.741
  1212   8 O      0.859    -0.474    23.220     6.461
  1213   7 N      2.682    -0.186    25.031     7.431
  1214   1 H      0.860     0.211     1.052     1.607
  1215   6 C      3.780     0.005    20.511     6.452
[...]
  2284  C   3.947        O 2285 1.694    N 2286 1.288    C 2281 0.942
  2285  O   2.003        C 2284 1.694    N 2286 0.202
  2286  N   3.379        C 2284 1.288    H 2288 0.933    H 2287 0.923    O 2285 0.202
  2287  H   0.945        N 2286 0.923
  2288  H   0.952        N 2286 0.933
  2289  C   3.945        O 2290 1.662    N 2291 1.272    C 2279 0.930
  2290  O   1.974        C 2289 1.662    N 2291 0.194
  2291  N   3.454        C 2289 1.272    C 2293 0.984    H 2292 0.922    O 2290 0.194
  2292  H   0.959        N 2291 0.922
  2293  C   3.964        N 2291 0.984    C 2295 0.979    H 2294 0.946    C 2313 0.943
  2294  H   0.991        C 2293 0.946
  2295  C   3.986        C 2298 1.000    C 2293 0.979    H 2297 0.969    H 2296 0.963
  2296  H   0.995        C 2295 0.963
  2297  H   0.993        C 2295 0.969
  2298  C   3.989        C 2295 1.000    C 2301 0.999    H 2299 0.970    H 2300 0.968
  2299  H   0.998        C 2298 0.970
  2300  H   0.996        C 2298 0.968
  2301  C   3.942        C 2298 0.999    H 2302 0.970    N 2304 0.969    H 2303 0.961
  2302  H   0.992        C 2301 0.970
  2303  H   0.992        C 2301 0.961
  2304  N   3.448        C 2306 1.315    C 2301 0.969    H 2305 0.892    N 2307 0.102    N 2310 0.100
  2305  H   0.939        N 2304 0.892
  2306  C   3.976        N 2307 1.332    N 2304 1.315    N 2310 1.302
  2307  N   3.411        C 2306 1.332    H 2308 0.925    H 2309 0.913    N 2304 0.102
  2308  H   0.952        N 2307 0.925
  2309  H   0.943        N 2307 0.913
  2310  N   3.379        C 2306 1.302    H 2311 0.930    H 2312 0.877    N 2304 0.100
  2311  H   0.957        N 2310 0.930
  2312  H   0.932        N 2310 0.877
  2313  C   3.955        O 2314 1.614    N 2315 1.320    C 2293 0.943
  2314  O   1.948        C 2313 1.614    N 2315 0.204
  2315  N   3.477        C 2313 1.320    C 2317 0.962    H 2316 0.907    O 2314 0.204
  2316  H   0.953        N 2315 0.907
  2317  C   3.957        C 2319 0.996    N 2315 0.962    H 2318 0.951    C 2323 0.937
  2318  H   0.994        C 2317 0.951
  2319  C   3.979        C 2317 0.996    H 2322 0.978    H 2321 0.977    H 2320 0.977
  2320  H   0.994        C 2319 0.977
  2321  H   0.996        C 2319 0.977
  2322  H   0.995        C 2319 0.978
  2323  C   3.957        O 2324 1.550    N 2325 1.389    C 2317 0.937
  2324  O   1.908        C 2323 1.550    N 2325 0.197
  2325  N   3.514        C 2323 1.389    C 2327 0.967    H 2326 0.874    O 2324 0.197
  2326  H   0.939        N 2325 0.874
  2327  C   3.954        C 2329 0.974    N 2325 0.967    H 2328 0.944    C 2345 0.941
  2328  H   0.990        C 2327 0.944
  2329  C   3.979        C 2332 1.001    C 2327 0.974    H 2331 0.972    H 2330 0.971
  2330  H   0.993        C 2329 0.971
  2331  H   0.994        C 2329 0.972
  2332  C   3.987        C 2335 1.003    C 2329 1.001    H 2333 0.974    H 2334 0.971
  2333  H   0.997        C 2332 0.974
  2334  H   0.996        C 2332 0.971
  2335  C   3.984        C 2338 1.013    C 2332 1.003    H 2336 0.971    H 2337 0.967
  2336  H   0.994        C 2335 0.971
  2337  H   0.994        C 2335 0.967
  2338  C   3.907        C 2335 1.013    H 2339 0.962    H 2340 0.959    N 2341 0.950
  2339  H   0.987        C 2338 0.962
  2340  H   0.984        C 2338 0.959
  2341  N   3.650        C 2338 0.950    H 2344 0.894    H 2343 0.893    H 2342 0.892
  2342  H   0.915        N 2341 0.892
  2343  H   0.913        N 2341 0.893
  2344  H   0.907        N 2341 0.894
  2345  C   3.947        O 2346 1.600    N 2347 1.322    C 2327 0.941
  2346  O   1.933        C 2345 1.600    N 2347 0.193
  2347  N   3.482        C 2345 1.322    C 2349 0.967    H 2348 0.920    O 2346 0.193
  2348  H   0.956        N 2347 0.920
  2349  C   3.954        C 2351 0.977    N 2347 0.967    H 2350 0.949    C 2369 0.920
  2350  H   0.991        C 2349 0.949
  2351  C   3.983        C 2354 1.009    C 2349 0.977    H 2353 0.970    H 2352 0.961
  2352  H   0.995        C 2351 0.961
  2353  H   0.994        C 2351 0.970
  2354  C   3.981        C 2351 1.009    C 2357 0.988    H 2355 0.971    H 2356 0.968
  2355  H   0.991        C 2354 0.971
  2356  H   0.993        C 2354 0.968
  2357  C   3.941        C 2354 0.988    H 2358 0.973    H 2359 0.972    N 2360 0.959
  2358  H   0.993        C 2357 0.973
  2359  H   0.994        C 2357 0.972
  2360  N   3.431        C 2362 1.293    C 2357 0.959    H 2361 0.912    N 2366 0.100
  2361  H   0.955        N 2360 0.912
  2362  C   3.976        N 2366 1.336    N 2363 1.322    N 2360 1.293
  2363  N   3.393        C 2362 1.322    H 2365 0.916    H 2364 0.915    N 2366 0.105
  2364  H   0.940        N 2363 0.915
  2365  H   0.939        N 2363 0.916
  2366  N   3.402        C 2362 1.336    H 2367 0.913    H 2368 0.858    N 2363 0.105    N 2360 0.100
  2367  H   0.940        N 2366 0.913
  2368  H   0.945        N 2366 0.858
  2369  C   3.944        O 2370 1.601    N 2371 1.330    C 2349 0.920
  2370  O   2.003        C 2369 1.601    N 2371 0.194
  2371  N   3.489        C 2369 1.330    C 2373 0.971    H 2372 0.912    O 2370 0.194
  2372  H   0.954        N 2371 0.912
  2373  C   3.957        N 2371 0.971    C 2375 0.961    H 2374 0.948    C 2385 0.934
  2374  H   0.995        C 2373 0.948
  2375  C   3.987        C 2377 1.014    C 2381 1.001    H 2376 0.961    C 2373 0.961
  2376  H   0.997        C 2375 0.961
  2377  C   3.992        C 2375 1.014    H 2379 0.981    H 2378 0.981    H 2380 0.980
  2378  H   0.997        C 2377 0.981
  2379  H   0.998        C 2377 0.981
  2380  H   0.997        C 2377 0.980
  2381  C   3.990        C 2375 1.001    H 2382 0.985    H 2383 0.983    H 2384 0.980
  2382  H   0.999        C 2381 0.985
  2383  H   0.997        C 2381 0.983
  2384  H   0.998        C 2381 0.980
  2385  C   3.956        O 2386 1.617    N 2387 1.326    C 2373 0.934
  2386  O   1.962        C 2385 1.617    N 2387 0.198
  2387  N   3.470        C 2385 1.326    C 2389 0.969    H 2388 0.881    O 2386 0.198
  2388  H   0.945        N 2387 0.881
  2389  C   3.957        C 2391 0.978    N 2387 0.969    H 2390 0.950    C 2404 0.916
  2390  H   0.994        C 2389 0.950
  2391  C   3.985        C 2393 0.996    C 2397 0.993    C 2389 0.978    H 2392 0.961
  2392  H   0.997        C 2391 0.961
  2393  C   3.988        C 2391 0.996    H 2395 0.984    H 2396 0.980    H 2394 0.979
  2394  H   0.997        C 2393 0.979
  2395  H   0.999        C 2393 0.984
  2396  H   0.995        C 2393 0.980
  2397  C   3.991        C 2400 1.016    C 2391 0.993    H 2398 0.971    H 2399 0.969
  2398  H   0.998        C 2397 0.971
  2399  H   0.998        C 2397 0.969
  2400  C   3.992        C 2397 1.016    H 2401 0.984    H 2403 0.983    H 2402 0.980
  2401  H   0.998        C 2400 0.984
  2402  H   0.998        C 2400 0.980
  2403  H   0.998        C 2400 0.983
  2404  C   3.937        O 2405 1.708    N 2406 1.232    C 2389 0.916
  2405  O   2.014        C 2404 1.708    N 2406 0.194
  2406  N   3.402        C 2404 1.232    C 2408 0.976    H 2407 0.908    O 2405 0.194
  2407  H   0.953        N 2406 0.908
  2408  C   3.964        N 2406 0.976    C 2418 0.958    C 2410 0.956    H 2409 0.945
  2409  H   0.988        C 2408 0.945
  2410  C   3.959        C 2412 0.997    O 2416 0.995    H 2411 0.962    C 2408 0.956
  2411  H   0.999        C 2410 0.962
  2412  C   3.987        C 2410 0.997    H 2415 0.984    H 2414 0.982    H 2413 0.980
  2413  H   0.995        C 2412 0.980
  2414  H   0.995        C 2412 0.982
  2415  H   0.998        C 2412 0.984
  2416  O   1.933        C 2410 0.995    H 2417 0.866
  2417  H   0.881        O 2416 0.866
  2418  C   3.952        O 2419 1.611    N 2420 1.302    C 2408 0.958
  2419  O   1.951        C 2418 1.611    N 2420 0.196
  2420  N   3.468        C 2418 1.302    C 2422 0.974    H 2421 0.902    O 2419 0.196
  2421  H   0.957        N 2420 0.902
  2422  C   3.957        N 2420 0.974    C 2432 0.952    H 2423 0.948    C 2424 0.941
  2423  H   0.990        C 2422 0.948
  2424  C   3.957        C 2426 1.009    O 2430 0.997    H 2425 0.956    C 2422 0.941
  2425  H   0.998        C 2424 0.956
  2426  C   3.981        C 2424 1.009    H 2428 0.978    H 2427 0.975    H 2429 0.974
  2427  H   0.994        C 2426 0.975
  2428  H   0.999        C 2426 0.978
  2429  H   0.996        C 2426 0.974
  2430  O   1.930        C 2424 0.997    H 2431 0.807
  2431  H   0.890        O 2430 0.807
  2432  C   3.956        O 2433 1.616    N 2434 1.307    C 2422 0.952
  2433  O   1.946        C 2432 1.616    N 2434 0.196
  2434  N   3.467        C 2432 1.307    C 2436 0.965    H 2435 0.906    O 2433 0.196
  2435  H   0.955        N 2434 0.906
  2436  C   3.954        C 2438 0.994    N 2434 0.965    H 2437 0.941    C 2452 0.916
  2437  H   0.991        C 2436 0.941
  2438  C   3.983        C 2436 0.994    C 2441 0.988    H 2440 0.962    H 2439 0.950
  2439  H   0.994        C 2438 0.950
  2440  H   0.995        C 2438 0.962
  2441  C   3.981        C 2450 1.444    C 2442 1.398    C 2438 0.988
  2442  C   3.988        C 2444 1.464    C 2441 1.398    H 2443 0.965    C 2448 0.106
  2443  H   0.999        C 2442 0.965
  2444  C   3.986        C 2442 1.464    C 2446 1.392    H 2445 0.971    C 2450 0.128
  2445  H   0.997        C 2444 0.971
  2446  C   3.990        C 2448 1.498    C 2444 1.392    H 2447 0.965
  2447  H   0.998        C 2446 0.965
  2448  C   3.987        C 2446 1.498    C 2450 1.384    H 2449 0.967    C 2442 0.106
  2449  H   0.996        C 2448 0.967
  2450  C   3.985        C 2441 1.444    C 2448 1.384    H 2451 0.967    C 2444 0.128
  2451  H   0.997        C 2450 0.967
  2452  C   3.950        O 2453 1.633    N 2454 1.311    C 2436 0.916
  2453  O   1.987        C 2452 1.633    N 2454 0.194
  2454  N   3.483        C 2452 1.311    C 2456 0.982    H 2455 0.915    O 2453 0.194
  2455  H   0.958        N 2454 0.915
  2456  C   3.959        N 2454 0.982    C 2476 0.957    C 2458 0.953    H 2457 0.948
  2457  H   0.991        C 2456 0.948
  2458  C   3.980        C 2461 1.011    H 2459 0.971    H 2460 0.966    C 2456 0.953
  2459  H   0.993        C 2458 0.971
  2460  H   0.993        C 2458 0.966
  2461  C   3.988        C 2458 1.011    C 2464 1.004    H 2462 0.970    H 2463 0.964
  2462  H   0.994        C 2461 0.970
  2463  H   0.996        C 2461 0.964
  2464  C   3.953        C 2461 1.004    N 2467 0.973    H 2465 0.965    H 2466 0.961
  2465  H   0.995        C 2464 0.965
  2466  H   0.993        C 2464 0.961
  2467  N   3.418        C 2469 1.267    C 2464 0.973    H 2468 0.919    N 2470 0.106
  2468  H   0.948        N 2467 0.919
  2469  C   3.978        N 2470 1.395    N 2473 1.290    N 2467 1.267
  2470  N   3.460        C 2469 1.395    H 2472 0.907    H 2471 0.905    N 2473 0.107    N 2467 0.106
  2471  H   0.931        N 2470 0.905
  2472  H   0.938        N 2470 0.907
  2473  N   3.361        C 2469 1.290    H 2475 0.919    H 2474 0.913    N 2470 0.107
  2474  H   0.935        N 2473 0.913
  2475  H   0.942        N 2473 0.919
  2476  C   3.955        O 2477 1.569    N 2478 1.338    C 2456 0.957
  2477  O   1.913        C 2476 1.569    N 2478 0.193
  2478  N   3.507        C 2476 1.338    C 2480 0.993    H 2479 0.895    O 2477 0.193
  2479  H   0.944        N 2478 0.895
  2480  C   3.965        N 2478 0.993    H 2481 0.948    C 2482 0.942    C 2490 0.927
  2481  H   0.989        C 2480 0.948
  2482  C   3.952        C 2484 1.004    O 2488 0.993    H 2483 0.948    C 2480 0.942
  2483  H   0.998        C 2482 0.948
  2484  C   3.986        C 2482 1.004    H 2486 0.980    H 2487 0.980    H 2485 0.979
  2485  H   0.994        C 2484 0.979
  2486  H   0.996        C 2484 0.980
  2487  H   0.996        C 2484 0.980
  2488  O   1.975        C 2482 0.993    H 2489 0.875
  2489  H   0.898        O 2488 0.875
  2490  C   3.948        O 2491 1.701    N 2492 1.241    C 2480 0.927
  2491  O   2.031        C 2490 1.701    N 2492 0.200
  2492  N   3.418        C 2490 1.241    C 2494 0.987    H 2493 0.916    O 2491 0.200
  2493  H   0.954        N 2492 0.916
  2494  C   3.963        N 2492 0.987    C 2497 0.964    H 2495 0.948    H 2496 0.945
  2495  H   0.987        C 2494 0.948
  2496  H   0.990        C 2494 0.945
  2497  C   3.946        O 2498 1.675    N 2499 1.243    C 2494 0.964
  2498  O   1.993        C 2497 1.675    N 2499 0.194
  2499  N   3.440        C 2497 1.243    C 2501 1.004    H 2500 0.908    O 2498 0.194
  2500  H   0.955        N 2499 0.908
  2501  C   3.974        N 2499 1.004    C 2503 0.967    H 2502 0.936    C 2511 0.926
  2502  H   0.993        C 2501 0.936
  2503  C   3.961        C 2505 1.004    O 2509 0.980    C 2501 0.967    H 2504 0.958
  2504  H   0.999        C 2503 0.958
  2505  C   3.988        C 2503 1.004    H 2507 0.984    H 2506 0.981    H 2508 0.971
  2506  H   0.996        C 2505 0.981
  2507  H   0.997        C 2505 0.984
  2508  H   0.994        C 2505 0.971
  2509  O   1.932        C 2503 0.980    H 2510 0.876
  2510  H   0.893        O 2509 0.876
  2511  C   3.948        O 2512 1.652    N 2513 1.280    C 2501 0.926
  2512  O   1.964        C 2511 1.652    N 2513 0.192
  2513  N   3.449        C 2511 1.280    C 2515 0.978    H 2514 0.922    O 2512 0.192
  2514  H   0.958        N 2513 0.922
  2515  C   3.952        N 2513 0.978    C 2535 0.956    C 2517 0.948    H 2516 0.932
  2516  H   0.987        C 2515 0.932
  2517  C   3.979        C 2520 1.023    H 2519 0.967    H 2518 0.955    C 2515 0.948
  2518  H   0.992        C 2517 0.955
  2519  H   0.995        C 2517 0.967
  2520  C   3.969        C 2521 1.601    C 2534 1.168    C 2517 1.023
  2521  C   3.957        C 2520 1.601    N 2523 1.208    H 2522 0.964
  2522  H   0.995        C 2521 0.964
  2523  N   3.550        C 2521 1.208    C 2525 1.178    H 2524 0.933
  2524  H   0.962        N 2523 0.933
  2525  C   3.962        C 2526 1.337    C 2534 1.258    N 2523 1.178
  2526  C   3.982        C 2528 1.455    C 2525 1.337    H 2527 0.962    C 2532 0.130
  2527  H   0.998        C 2526 0.962
  2528  C   3.988        C 2526 1.455    C 2530 1.411    H 2529 0.966
  2529  H   0.998        C 2528 0.966
  2530  C   3.990        C 2532 1.479    C 2528 1.411    H 2531 0.962
  2531  H   0.998        C 2530 0.962
  2532  C   3.990        C 2530 1.479    C 2534 1.331    H 2533 0.971    C 2526 0.130
  2533  H   0.999        C 2532 0.971
  2534  C   3.978        C 2532 1.331    C 2525 1.258    C 2520 1.168
  2535  C   3.941        O 2536 1.593    N 2537 1.308    C 2515 0.956
  2536  O   1.910        C 2535 1.593    N 2537 0.189
  2537  N   3.466        C 2535 1.308    C 2539 0.972    H 2538 0.913    O 2536 0.189
  2538  H   0.959        N 2537 0.913
  2539  C   3.955        N 2537 0.972    C 2541 0.960    H 2540 0.955    C 2547 0.925
  2540  H   0.994        C 2539 0.955
  2541  C   3.981        H 2542 0.975    H 2543 0.966    C 2539 0.960    C 2544 0.937
  2542  H   0.996        C 2541 0.975
  2543  H   0.997        C 2541 0.966
  2544  C   3.938        O 2546 1.515    O 2545 1.460    C 2541 0.937
  2545  O   1.818        C 2544 1.460    O 2546 0.217
  2546  O   1.806        C 2544 1.515    O 2545 0.217
  2547  C   3.947        O 2548 1.607    N 2549 1.334    C 2539 0.925
  2548  O   1.950        C 2547 1.607    N 2549 0.192
  2549  N   3.488        C 2547 1.334    C 2551 0.962    H 2550 0.923    O 2548 0.192
  2550  H   0.953        N 2549 0.923
  2551  C   3.953        C 2553 0.982    C 2557 0.968    N 2549 0.962    H 2552 0.930
  2552  H   0.986        C 2551 0.930
  2553  C   3.975        H 2554 0.983    C 2551 0.982    H 2556 0.978    H 2555 0.974
  2554  H   0.995        C 2553 0.983
  2555  H   0.993        C 2553 0.974
  2556  H   0.992        C 2553 0.978
  2557  C   3.947        O 2558 1.662    N 2559 1.234    C 2551 0.968
  2558  O   1.976        C 2557 1.662    N 2559 0.191
  2559  N   3.429        C 2557 1.234    C 2561 0.989    H 2560 0.926    O 2558 0.191
  2560  H   0.962        N 2559 0.926
  2561  C   3.958        N 2559 0.989    C 2563 0.969    H 2562 0.938    C 2578 0.925
  2562  H   0.993        C 2561 0.938
  2563  C   3.983        C 2566 0.996    H 2565 0.971    C 2561 0.969    H 2564 0.968
  2564  H   0.996        C 2563 0.968
  2565  H   0.996        C 2563 0.971
  2566  C   3.982        C 2576 1.414    C 2567 1.408    C 2563 0.996
  2567  C   3.987        C 2569 1.442    C 2566 1.408    H 2568 0.971    C 2574 0.108
  2568  H   0.997        C 2567 0.971
  2569  C   3.985        C 2567 1.442    C 2571 1.358    H 2570 0.960    C 2576 0.108
  2570  H   0.995        C 2569 0.960
  2571  C   3.945        C 2569 1.358    C 2574 1.351    O 2572 1.107
  2572  O   2.126        C 2571 1.107    H 2573 0.817
  2573  H   0.884        O 2572 0.817
  2574  C   3.985        C 2576 1.438    C 2571 1.351    H 2575 0.963    C 2567 0.108
  2575  H   0.999        C 2574 0.963
  2576  C   3.989        C 2574 1.438    C 2566 1.414    H 2577 0.964    C 2569 0.108
  2577  H   0.999        C 2576 0.964
  2578  C   3.931        O 2579 1.596    N 2580 1.308    C 2561 0.925
  2579  O   1.905        C 2578 1.596    N 2580 0.186
  2580  N   3.466        C 2578 1.308    C 2582 0.971    H 2581 0.925    O 2579 0.186
  2581  H   0.962        N 2580 0.925
  2582  C   3.952        C 2584 0.974    N 2580 0.971    H 2583 0.955    C 2600 0.926
  2583  H   0.998        C 2582 0.955
  2584  C   3.991        C 2587 1.003    H 2586 0.977    H 2585 0.975    C 2582 0.974
  2585  H   0.997        C 2584 0.975
  2586  H   0.998        C 2584 0.977
  2587  C   3.985        C 2584 1.003    C 2590 1.000    H 2588 0.975    H 2589 0.971
  2588  H   0.999        C 2587 0.975
  2589  H   0.997        C 2587 0.971
  2590  C   3.985        C 2593 1.007    C 2587 1.000    H 2592 0.973    H 2591 0.970
  2591  H   0.994        C 2590 0.970
  2592  H   0.993        C 2590 0.973
  2593  C   3.927        C 2590 1.007    H 2594 0.969    H 2595 0.968    N 2596 0.964
  2594  H   0.991        C 2593 0.969
  2595  H   0.987        C 2593 0.968
  2596  N   3.637        C 2593 0.964    H 2597 0.897    H 2598 0.870    H 2599 0.836
  2597  H   0.913        N 2596 0.897
  2598  H   0.917        N 2596 0.870
  2599  H   0.917        N 2596 0.836
  2600  C   3.939        O 2601 1.496    O 2602 1.474    C 2582 0.926
  2601  O   1.792        C 2600 1.496    O 2602 0.223
  2602  O   1.774        C 2600 1.474    O 2601 0.223

molecular dipole:
                 x           y           z       tot (Debye)
 q only:      623.819     680.188     642.380
   full:      623.572     681.823     650.437    2872.054
molecular quadrupole (traceless):
                xx          xy          yy          xz          yz          zz
 q only:    -6686.761   73396.823    8223.144   70667.872   77389.276   -1536.383
  q+dip:    -7508.019   73136.242    7756.644   71346.435   78467.101    -248.625
   full:    -7495.682   73132.055    7734.600   71355.927   78458.413    -238.917


           -------------------------------------------------
          | TOTAL ENERGY            -4085.349073387053 Eh   |
          | GRADIENT NORM               1.305752415656 Eh/α |
          | HOMO-LUMO GAP               1.796573219859 eV   |
           -------------------------------------------------
########################################################################
[WARNING] Runtime exception occurred
-2- restart_readRestart: Dimension missmatch in restart file.
-1- restart_readRestart: Number of electron missmatch in restart file.
########################################################################

------------------------------------------------------------------------
 * finished run on 2020/07/22 at 15:45:35.142     
------------------------------------------------------------------------
 total:
 * wall-time:     0 d,  0 h,  7 min, 11.187 sec
 *  cpu-time:     0 d,  5 h, 21 min, 18.046 sec
 * ratio c/w:    44.709 speedup
 SCF:
 * wall-time:     0 d,  0 h,  6 min, 40.340 sec
 *  cpu-time:     0 d,  5 h,  9 min, 40.315 sec
 * ratio c/w:    46.411 speedup

