 +---------------------------------------------------------------+
 |                                                               |
 |        ####### #     # ####### ####### ####### ######         |
 |        #     # ##    # #          #    #       #     #        |
 |        #     # # #   # #          #    #       #     #        |
 |        #     # #  #  # #####      #    #####   ######         |
 |        #     # #   # # #          #    #       #              |
 |        #     # #    ## #          #    #       #              |
 |        ####### #     # #######    #    ####### #              |
 |                                                               |
 |        Linear-Scaling Ab Initio Total Energy Program          |
 |                                                               |
 |          Release for academic collaborators of ODG            |
 |                                             Version 5.3.2.6.  |
 |                                                               |
 +---------------------------------------------------------------+
 |                                                               |
 |  Authors:                                                     |
 |  Jacek Dziedzic, Peter D. Haynes, Nicholas D. M. Hine,        |
 |  Arash. A. Mostofi, Mike C. Payne and Chris-Kriton Skylaris   |
 |                                                               |
 |  Contributors:                                                |
 |  J. Aarons, L. Andrinopoulos, P. W. Avraam, R. A. Bell,       |
 |  A. Bhandari, G. A. Bramley, R. J. Charlton, S. J. Clark,     |
 |  R. J. Clements, G. C. Constantinescu, F. Corsetti,           |
 |  N. Corsini, O. Dieguez, S. M. M. Dubois, K. K. B. Duff,      |
 |  J. M. Escartin, A. Greco, H. Helal, Q. O. Hill, L. P. Lee,   |
 |  J.-H. Li, E. B. Linscott, G. Moynihan, D. D. O`Regan,        |
 |  O. K. Okan, M. J. S. Phipps, C. J. Pickard,                  |
 |  J. C. A. Prentice, M. I. J. Probert, L. E. Ratcliff,         |
 |  M. Robinson, A. Ruiz Serrano, J. S. Spencer, E. W. Tait,     |
 |  G. Teobaldi, D. Turban, V. Vitale, K. A. Wilkinson,          |
 |  C. Weber, J. C. Womack, N. Yeung and T. J. Zuehlsdorff       |
 |                                                               |
 |                                   Copyright (c) 2004-2019     |
 |                                                               |
 |  Please cite:                                                 |
 |  "Introducing ONETEP: Linear-scaling density functional       |
 |   simulations on parallel computers".                         |
 |   C.-K. Skylaris, P. D. Haynes, A. A. Mostofi, M. C. Payne.   |
 |   J. Chem. Phys. 122 084119 (2005).                           |
 |                                                               |
 |          in all publications arising from your use of ONETEP. |
 |                                                               |
 +---------------------------------------------------------------+
 |                                                               |
 |   ONETEP is based on developments described in the following  |
 |   publications:                                               |
 |                                                               |
 |  "Nonorthogonal generalized Wannier function pseudopotential  |
 |   plane-wave method".                                         |
 |   C.-K. Skylaris, A. A. Mostofi, P. D. Haynes, O. Dieguez,    |
 |   M. C. Payne.                                                |
 |   Phys. Rev. B 66 035119 (2002).                              |
 |                                                               |
 |  "Preconditioned iterative minimization for linear-scaling    |
 |   electronic structure calculations".                         |
 |   A. A. Mostofi, P. D. Haynes, C.-K. Skylaris, M. C. Payne.   |
 |   J. Chem. Phys. 119(17), pp.8842-8848 (2003).                |
 |                                                               |
 |  "Total-energy calculations on a real space grid with         |
 |   localized functions and a plane-wave basis".                |
 |   A. A. Mostofi, C.-K. Skylaris, P. D. Haynes, M. C. Payne.   |
 |   Comput. Phys. Commun. 147, pp.788-802 (2002).               |
 |                                                               |
 |  "Accurate kinetic energy evaluation in electronic structure  |
 |   calculations with localized functions on real space grids"  |
 |   C.-K. Skylaris, A. A. Mostofi, P. D. Haynes, C. J. Pickard, |
 |   M. C. Payne.                                                |
 |   Comput. Phys. Commun. 140, pp.315-322 (2001).               |
 |                                                               |
 |  "Accurate ionic forces and geometry optimization in linear-  |
 |   scaling density-functional theory with local orbitals"      |
 |   N. D. M. Hine, M. Robinson, P. D. Haynes, C.-K. Skylaris,   |
 |   M. C. Payne, and A. A. Mostofi.                             |
 |   Phys. Rev. B 83 195102 (2011).                              |
 |                                                               |
 +---------------------------------------------------------------+

Job started: 28-02-2020 00:26 (-0000)
 
Reading parameters from file "complex_33921.dat" ...... done

If your calculation crashes here, before "Checking processes and threads..."
is displayed, then your stack size is insufficient.
If so, use "ulimit -s unlimited" at runtime.
You can disable this check with "check_stack_size F".

Checking processes and threads...
   Determining the default number of threads...
      No default threads set at compilation time: defaulting to 1.
      OpenMP library call suggests 4 threads.
      Hybrid MPI-OpenMP compilation detected.
      Number of MPI processes > 1.
      OMP_NUM_THREADS environment variable present and
      its value matches the one obtained from the OpenMP library call.
      Using this value as default.
      Default threads: 4
      Default applies to threads_max and threads_num_fftboxes.
      Settings in the input file override this default.
   ... done

   Running with 40 MPI processes.
   There are 10 MPI processes running on the same node as the root process.
   Each MPI process is using: 
               1 threads for simulation cell FFTs.
               1 threads for parallel FFT box operations.
               4 threads for loops over batched FFT box operations.
               4 threads in other parallel regions.
... done

Basic input checks...... done

Reading geometry and species blocks from file "complex_33921.dat" ...
  <species_atomic_set> block not found: NGWF initialisation set to SOLVE
IS: Dielectric excluded regions:
    - NONE.
    
  Number of PPD points along a3 set to 1.  This is 
  the default value, it may have been provided also in the input file.
... done
 Writing xyz coordinates to file "complex_33921.xyz" ... done


--------------------------------------------------------------------------------
---------------------------------- INPUT FILE ----------------------------------
--------------------------------------------------------------------------------

cutoff_energy       : 800 eV                                                    
xc_functional B97M-V                                                            
task SINGLEPOINT                                                                
write_xyz true                                                                  
output_detail VERBOSE                                                           
ngwf_threshold_orig : 0.000002                                                  
kernel_cutoff       : 1000                                                      
k_zero              : 3.5                                                       
elec_cg_max 0                                                                   
occ_mix 1.0                                                                     
dispersion 0                                                                    
maxit_ngwf_cg 40                                                                
minit_lnv 10                                                                    
maxit_lnv 10                                                                    
write_denskern T                                                                
write_tightbox_ngwfs T                                                          
charge 9                                                                        
is_implicit_solvent T                                                           
is_auto_solvation T                                                             
is_include_apolar T                                                             
is_smeared_ion_rep T                                                            
is_solvent_surf_tension 4.7624E-5 Ha/bohr**2                                    
is_apolar_scaling_factor 0.281075                                               
is_solvation_beta 1.3                                                           
is_density_threshold 0.00035                                                    
is_bulk_permittivity 78.54                                                      
is_dielectric_model fix_initial                                                 
is_smeared_ion_width 0.8                                                        
mg_defco_fd_order 8                                                             
is_bc_coarseness 10                                                             
is_bc_surface_coarseness 1                                                      
fine_grid_scale 2.0                                                             
%block species                                                                  
N   N   7 4 8.0                                                                 
H   H   1 1 8.0                                                                 
C   C   6 4 8.0                                                                 
S   S  16 9 8.0                                                                 
O   O   8 4 8.0                                                                 
%endblock species                                                               
%block species_pot                                                              
N   N_00.recpot                                                                 
H   H_04.recpot                                                                 
C   C_01.recpot                                                                 
S   S_00.recpot                                                                 
O   O_02.recpot                                                                 
%endblock species_pot                                                           
%block lattice_cart                                                             
135.996   0.000   0.000                                                         
0.000 142.663   0.000                                                           
0.000   0.000   160.158                                                         
%endblock lattice_cart                                                          
%block positions_abs                                                            
     Hash =   000005308370099120568784
%endblock positions_abs                                                         

--------------------------------------------------------------------------------
-------------------------------- END INPUT FILE --------------------------------
--------------------------------------------------------------------------------


 
 ESDF WARNING(1): "kernelcutoff" (esdf_physical) has no units. Assume "bohr".
 ESDF WARNING(2): "kzero" (esdf_physical) has no units. Assume "1/bohr".
 ESDF WARNING(3
 ): "issmearedionwidth" (esdf_physical) has no units. Assume "bohr".
<<<<<<<<<<<<<<<<<<<<<<<<<<<<<<<<< Full system >>>>>>>>>>>>>>>>>>>>>>>>>>>>>>>>>>
<<<<<<<<<<<<<<<<<<<<<<<<< Pseudopotential information >>>>>>>>>>>>>>>>>>>>>>>>>>
File: N_00.recpot [ 2001 points up to Gmax=  52.9 (1/bohr)]
  Atomic number:  7;  ionic charge:  5.000000
    Shell 1: l = 0; rc = 1.48 bohr
File: H_04.recpot [ 2001 points up to Gmax=  52.9 (1/bohr)]
  Atomic number:  1;  ionic charge:  1.000000
    Local potential
File: C_01.recpot [ 2001 points up to Gmax=  52.9 (1/bohr)]
  Atomic number:  6;  ionic charge:  4.000000
    Shell 1: l = 0; rc = 1.48 bohr
File: S_00.recpot [ 2001 points up to Gmax=  52.9 (1/bohr)]
  Atomic number: 16;  ionic charge:  6.000000
    Shell 1: l = 0; rc = 1.90 bohr
    Shell 2: l = 2; rc = 1.84 bohr
File: O_02.recpot [ 2001 points up to Gmax=  52.9 (1/bohr)]
  Atomic number:  8;  ionic charge:  6.000000
    Shell 1: l = 0; rc = 1.31 bohr
<<<<<<<<<<<<<<<<<<<<<<<<<<<<<<<<<<<<<<<<>>>>>>>>>>>>>>>>>>>>>>>>>>>>>>>>>>>>>>>>

-------------------------- Atom counting information ---------------------------
Symbol    Natoms    Nngwfs    Nprojs
  N        236       944       236
  H       1317      1317         0
  C        816      3264       816
  S          6        54        36
  O        240       960       240
.......   ......    ......    ......
Totals:   2615      6539      1328
--------------------------------------------------------------------------------

=============================== PSINC grid sizes ===============================
                      Simulation cell:  270 x 286 x 315
                              FFT-box:   99 x 105 x  99
                                  PPD:    5 x  11 x   1
Grid space d1=  0.503688888889a0 (KE cutoff=  29.94189Eh = 814.76038eV)
Grid space d2=  0.498821678322a0 (KE cutoff=  30.52906Eh = 830.73786eV)
Grid space d3=  0.508438095238a0 (KE cutoff=  29.38514Eh = 799.61048eV)
================================================================================

********************* Fourier parallelisation information **********************
       Coarse grid (whole simulation cell) dimensions:    270   286   315
          Real-space ('12') slabs/node (min max mean):      7     8     7
         Recip-space ('23') slabs/node (min max mean):      3     4     3
********************************************************************************

********************* Fourier parallelisation information **********************
       Double grid (whole simulation cell) dimensions:    540   572   630
          Real-space ('12') slabs/node (min max mean):     15    16    15
         Recip-space ('23') slabs/node (min max mean):      6     7     6
********************************************************************************
ONETEP fine grid is 540 x 572 x 630 gridpoints, 135.9960 x 142.6630 x 160.1580 bohr.
FD multigrid is     537 x 569 x 625 gridpoints, 135.2405 x 141.9148 x 158.8869 bohr.


Calculating local pseudopotential in open BC on a radial grid ...
Discrepancy between calculated realspace psloc and -Z/x on [5a0,253.965a0]:
max |rel. diff| # avg |rel. diff| #  avg rel. diff #  f # pseudopotential file
 0.000259282084    0.000004141996   0.000000074978   54  'N_00.recpot'
 0.000405386992    0.000016970607  -0.000000075982   54  'H_04.recpot'
 0.000371694516    0.000017434762   0.000000149329   54  'C_01.recpot'
 0.000461642895    0.000020341726   0.000000491514   54  'S_00.recpot'
 0.000682525123    0.000027368244   0.000000159803   54  'O_02.recpot'
... done
 WARNING: meta-GGA functionality under development.
          Using this functional is experimental.
          Minimum tau threshold, xc_min_tau =   1.00000000E-12
 WARNING: Using alternative XC functional PBE for 
          radial densities (xc_radial).

Atom SCF Calculation for N  : Z (AE atom) =   7 : Z (PS atom) =   5
Config String:
Orbitals (num,occ):  2     2.00 3.00
Orbitals   (num,l):  2        0    1
Real-space Grid (nr,dr,rmax): 1203    0.0066555740    8.0000000000
Spherical Bessel Basis (nsws,lmax,cutoff):   47    1  176.3951722778
Confining potential (l,width,scale):  0    3.0000000000  100.0000000000
Confining potential (l,width,scale):  1    3.0000000000  100.0000000000
  1         -4.7312375307   -3.4155304497    7.0523828109   -1.9351020946
  2         -9.7309464766   -2.0532547791    8.2966052865   -2.2494486027
  3         -9.6627394379   -2.1124926340    8.2327997121   -2.2369778124
  4         -9.6814993499   -2.1215521045    8.2229805960   -2.2365178421
  5         -9.6843326483   -2.1250939529    8.2191374534   -2.2362718126
  6         -9.6859628709   -2.1267894855    8.2172963573   -2.2362066344
  7         -9.6867347035   -2.1276425665    8.2163697352   -2.2361903369
  8         -9.6870802100   -2.1280764625    8.2158983890   -2.2361891460
  9         -9.6872290423   -2.1282977424    8.2156580222   -2.2361920435
 10         -9.6872901988   -2.1284107021    8.2155353368   -2.2361953393
 11         -9.6873135296   -2.1284684031    8.2154726809   -2.2361979819
 12         -9.6873212476   -2.1284978948    8.2154406648   -2.2361998431
 13         -9.6873229586   -2.1285129774    8.2154242957   -2.2362010676
 14         -9.6873226456   -2.1285206957    8.2154159216   -2.2362018403
 15         -9.6873218534   -2.1285246479    8.2154116349   -2.2362023142
 16         -9.6873212599   -2.1285262679    8.2154098784   -2.2362025420
 17         -9.6873207834   -2.1285272564    8.2154088068   -2.2362026955
 18         -9.6873204210   -2.1285278597    8.2154081529   -2.2362027982
 19         -9.6873201550   -2.1285282280    8.2154077538   -2.2362028667
 20         -9.6873199645   -2.1285284529    8.2154075102   -2.2362029121
 21         -9.6873198305   -2.1285285903    8.2154073614   -2.2362029421
 22         -9.6873197377   -2.1285286742    8.2154072705   -2.2362029618
Atom SCF converged after  22 iterations to a total energy of     -9.68731974

Atom SCF Calculation for H  : Z (AE atom) =   1 : Z (PS atom) =   1
Config String:
Orbitals (num,occ):  1     1.00
Orbitals   (num,l):  1        0
Real-space Grid (nr,dr,rmax): 1203    0.0066555740    8.0000000000
Spherical Bessel Basis (nsws,lmax,cutoff):   47    0  176.3951722778
Confining potential (l,width,scale):  0    3.0000000000  100.0000000000
  1         -0.3194257691   -0.2393854593    0.2820953124   -0.2424203209
  2         -0.3951823392   -0.2377116493    0.2886404059   -0.2475147891
  3         -0.4317044583   -0.2352244387    0.2921333887   -0.2514046172
  4         -0.4470703708   -0.2341892222    0.2934391879   -0.2531009782
  5         -0.4532132900   -0.2338556667    0.2938388426   -0.2537313520
  6         -0.4556579251   -0.2337612552    0.2939448584   -0.2539550462
  7         -0.4566418315   -0.2337377355    0.2939680120   -0.2540342273
  8         -0.4570437922   -0.2337331116    0.2939708287   -0.2540627372
  9         -0.4572102946   -0.2337328328    0.2939698291   -0.2540732650
 10         -0.4572800424   -0.2337332404    0.2939687193   -0.2540772588
 11         -0.4573095100   -0.2337335791    0.2939680317   -0.2540788122
 12         -0.4573220379   -0.2337337762    0.2939676699   -0.2540794294
 13         -0.4573273880   -0.2337338775    0.2939674931   -0.2540796787
 14         -0.4573296803   -0.2337339266    0.2939674099   -0.2540797808
 15         -0.4573306647   -0.2337339495    0.2939673718   -0.2540798230
 16         -0.4573310882   -0.2337339601    0.2939673545   -0.2540798406
 17         -0.4573312706   -0.2337339649    0.2939673467   -0.2540798479
 18         -0.4573313493   -0.2337339670    0.2939673433   -0.2540798510
Atom SCF converged after  18 iterations to a total energy of     -0.45733135

Atom SCF Calculation for C  : Z (AE atom) =   6 : Z (PS atom) =   4
Config String:
Orbitals (num,occ):  2     2.00 2.00
Orbitals   (num,l):  2        0    1
Real-space Grid (nr,dr,rmax): 1203    0.0066555740    8.0000000000
Spherical Bessel Basis (nsws,lmax,cutoff):   47    1  176.3951722778
Confining potential (l,width,scale):  0    3.0000000000  100.0000000000
Confining potential (l,width,scale):  1    3.0000000000  100.0000000000
  1         -5.2976922011   -1.3069684169    4.5135249990   -1.4493313817
  2         -5.3721716256   -1.3429755895    4.4750154450   -1.4361613026
  3         -5.3809959565   -1.3617365618    4.4541655428   -1.4305930207
  4         -5.3918938866   -1.3667928461    4.4484735100   -1.4294652294
  5         -5.3956096428   -1.3688539142    4.4461376126   -1.4290734646
  6         -5.3968271862   -1.3696852393    4.4451910874   -1.4289366866
  7         -5.3972028401   -1.3700178062    4.4448112275   -1.4288900460
  8         -5.3973067903   -1.3701500158    4.4446598370   -1.4288749220
  9         -5.3973286940   -1.3702023868    4.4445997329   -1.4288704293
 10         -5.3973289850   -1.3702230869    4.4445759233   -1.4288693188
 11         -5.3973254264   -1.3702312560    4.4445665049   -1.4288691775
 12         -5.3973224003   -1.3702344755    4.4445627836   -1.4288692549
 13         -5.3973208708   -1.3702354890    4.4445616088   -1.4288693270
 14         -5.3973198783   -1.3702360102    4.4445610034   -1.4288693814
 15         -5.3973192535   -1.3702362780    4.4445606917   -1.4288694190
 16         -5.3973188684   -1.3702364155    4.4445605313   -1.4288694437
 17         -5.3973186349   -1.3702364860    4.4445604489   -1.4288694595
 18         -5.3973184951   -1.3702365221    4.4445604065   -1.4288694693
 19         -5.3973184122   -1.3702365405    4.4445603848   -1.4288694753
Atom SCF converged after  19 iterations to a total energy of     -5.39731841

Atom SCF Calculation for S  : Z (AE atom) =  16 : Z (PS atom) =   6
Config String:
Orbitals (num,occ):  3     2.00 4.00 0.00
Orbitals   (num,l):  3        0    1    2
Real-space Grid (nr,dr,rmax): 1203    0.0066555740    8.0000000000
Spherical Bessel Basis (nsws,lmax,cutoff):   47    2  176.3951722778
Confining potential (l,width,scale):  0    3.0000000000  100.0000000000
Confining potential (l,width,scale):  1    3.0000000000  100.0000000000
Confining potential (l,width,scale):  2    3.0000000000  100.0000000000
  1        -12.4735062396   -1.0328741412   10.1554312477   -2.4512393157
  2         -9.9458301913   -2.4607392455    8.3041325857   -2.0306994528
  3        -10.1450417646   -2.2931184565    8.4831893826   -2.0812538287
  4        -10.1528335592   -2.2733105793    8.5050388867   -2.0896035179
  5        -10.1571940363   -2.2633716629    8.5160794258   -2.0939370707
  6        -10.1594380571   -2.2584938667    8.5215163935   -2.0961289008
  7        -10.1605856507   -2.2561081821    8.5241804044   -2.0972291378
  8        -10.1611799191   -2.2549395235    8.5254868240   -2.0977806248
  9        -10.1614918752   -2.2543658586    8.5261285885   -2.0980571586
 10        -10.1616572884   -2.2540839121    8.5264441898   -2.0981959233
 11        -10.1617455602   -2.2539453058    8.5265994231   -2.0982656006
 12        -10.1617928447   -2.2538772062    8.5266757320   -2.0983006047
 13        -10.1618182292   -2.2538437891    8.5267131983   -2.0983181961
 14        -10.1618318741   -2.2538274201    8.5267315620   -2.0983270391
 15        -10.1618392144   -2.2538194197    8.5267405433   -2.0983314852
 16        -10.1618431651   -2.2538155200    8.5267449245   -2.0983337210
 17        -10.1618452923   -2.2538136252    8.5267470551   -2.0983348455
 18        -10.1618464380   -2.2538127080    8.5267480875   -2.0983354110
 19        -10.1618470552   -2.2538122659    8.5267485856   -2.0983356955
 20        -10.1618473878   -2.2538120540    8.5267488248   -2.0983358386
 21        -10.1618475670   -2.2538119530    8.5267489389   -2.0983359106
 22        -10.1618476637   -2.2538119053    8.5267489929   -2.0983359468
Atom SCF converged after  22 iterations to a total energy of    -10.16184766

Atom SCF Calculation for O  : Z (AE atom) =   8 : Z (PS atom) =   6
Config String:
Orbitals (num,occ):  2     2.00 4.00
Orbitals   (num,l):  2        0    1
Real-space Grid (nr,dr,rmax): 1203    0.0066555740    8.0000000000
Spherical Bessel Basis (nsws,lmax,cutoff):   47    1  176.3951722778
Confining potential (l,width,scale):  0    3.0000000000  100.0000000000
Confining potential (l,width,scale):  1    3.0000000000  100.0000000000
  1         -1.8735052164   -7.5539365035   10.1554312477   -2.4512393157
  2        -16.0318313751   -3.1285771268   13.6395848164   -3.2358799643
  3        -15.9524020423   -3.0762819706   13.6967272503   -3.2536856837
  4        -15.8521515939   -3.0781493909   13.6951909330   -3.2561700440
  5        -15.8357139793   -3.0748501933   13.6988803334   -3.2580493133
  6        -15.8246052853   -3.0740779781   13.6997881576   -3.2588327446
  7        -15.8189019501   -3.0737449687   13.7001869911   -3.2592378801
  8        -15.8159785510   -3.0736026016   13.7003615168   -3.2594475790
  9        -15.8144776168   -3.0735437994   13.7004360379   -3.2595560735
 10        -15.8137058024   -3.0735207882   13.7004667348   -3.2596122456
 11        -15.8133083127   -3.0735125946   13.7004786868   -3.2596413656
 12        -15.8131032938   -3.0735102195   13.7004828997   -3.2596564858
 13        -15.8129973902   -3.0735099286   13.7004840891   -3.2596643505
 14        -15.8129426040   -3.0735102506   13.7004842061   -3.2596684489
 15        -15.8129142203   -3.0735106556   13.7004840157   -3.2596705887
 16        -15.8128994940   -3.0735109855   13.7004837906   -3.2596717080
 17        -15.8128918425   -3.0735112169   13.7004836103   -3.2596722946
 18        -15.8128878614   -3.0735113674   13.7004834848   -3.2596726026
 19        -15.8128857871   -3.0735114608   13.7004834035   -3.2596727646
 20        -15.8128847048   -3.0735115170   13.7004833533   -3.2596728500
 21        -15.8128841394   -3.0735115501   13.7004833231   -3.2596728951
 22        -15.8128838436   -3.0735115693   13.7004833054   -3.2596729190
 23        -15.8128836887   -3.0735115802   13.7004832951   -3.2596729316
 24        -15.8128836074   -3.0735115864   13.7004832893   -3.2596729383
Atom SCF converged after  24 iterations to a total energy of    -15.81288361

========================== Calculation in vacuum ==============================
= Adjusting the following parameters: 
= is_implicit_solvent: F
= is_include_apolar: F
= write_denskern: T
= write_tightbox_ngwfs: T
= restart read filename prefix: ""
= restart write filename prefix: "vacuum_"
===============================================================================

Determining parallel strategy ...
... using space-filling curve
... NGWF load balancing: max    164;  min    163;  average    163
... Projector load balancing: max     36;  min     32;  average     33
... done
Calculating direct Ion-Ion energy ...
Ion-Ion Energy        :    834180.51807424263097
Basis initialisation ...... NGWF spheres initialised
... Projector spheres initialised
... NGWF tight boxes initialised
... Tight-boxes gathered
... NGWF basis size (local,global):    1265601  51009145
... Nonlocal pseudopotential projector initialisation
... done

========================== Sparse matrix information ===========================
                        Overlap matrix filling:   6.76%
                        Density kernel filling: 100.00%
              NGWF-Proj overlap matrix filling:   1.77%
                    Hamiltonian matrix filling:   7.63%
                  NGWF diagonal matrix filling:   0.05%
                             KS matrix filling: 100.00% 
                           KSKS matrix filling: 100.00% 
================================================================================

Sparse matrix initialisation ... done

Generating smeared ion density ... done
Smeared ion self correction:     -14525.987107
Smeared ion non-self correction: -834132.225445
NGWF initialisation ...... done
============ Calculation of NGWF S^-1 using Hotelling algorithm ================ 
         Iteration  |  Frobenius norm and Maximum abs value    (of I-S*S_n^-1)   
               1       0.78845948E+02     0.98379809E+00
               2       0.77105820E+02     0.96798708E+00
               3       0.74248150E+02     0.93747828E+00
               4       0.70114891E+02     0.88074808E+00
               5       0.64891508E+02     0.78274813E+00
               6       0.58956009E+02     0.70973500E+00
               7       0.52904938E+02     0.67411482E+00
               8       0.47306645E+02     0.64889588E+00
               9       0.41384651E+02     0.61066242E+00
              10       0.33414211E+02     0.54749386E+00
              11       0.23036376E+02     0.44352820E+00
              12       0.12262487E+02     0.30168553E+00
              13       0.43257738E+01     0.14640396E+00
              14       0.77314411E+00     0.42784634E-01
              15       0.46730294E-01     0.48227944E-02
              16       0.40454484E-03     0.66156941E-04
              17       0.55765886E-07     0.13007780E-07
              18       0.10712910E-12     0.62172489E-14
================================================================================
Calculating local pseudopotential in open BC on the fine real space grid ...
... done

MG BCs: +ve charge blocks (gridpoints):     20617 (   16185462).
MG BCs: -ve charge blocks (gridpoints):      8106 (    1089239).
MG BCs:     Elided blocks (gridpoints):    173297 (  173695924).
MG BCs: Computational effort saved:  99.9850%.
MG BCs: Charge after coarse-graining:           -9.0002299.
MG DL_MG: Calling solver with defect correction order = 8
MG DL_MG: Solver finished
MG Hartree energy from (\int phi*rho dr):              1470.708875
MG Hartree energy from (\int eps (grad phi)^2 dr):     1470.090038
MG Discrepancy due to finite box and discretization:     -0.618837 (  -0.04208%)
MG Correction to account for finite box:                  0.467423
MG Remaining discrepancy, due to discretization:         -0.151414 (  -0.01030%)
 WARNING: xc_energy_potential using alternative initial XC functional PBE.
Up spin density kernel initialisation ... 
======= Optimisation of K by Palser-Manolopoulos canonical purification ======== 
         Iteration  |  Band structure energy |    c_n   
               1       -2597.56086527235493    0.5263562
               2       -2774.29871721625113    0.5168311
               3       -2954.77292986690418    0.5156906
               4       -3104.56881934783360    0.5297677
               5       -3195.98470036294930    0.5661760
               6       -3233.98768615048448    0.6108491
               7       -3246.94249617816422    0.6226048
               8       -3252.59446000086064    0.6217336
               9       -3255.33412405308900    0.6341646
              10       -3256.48578087252281    0.6548459
              11       -3256.94340305293463    0.6666893
              12       -3257.14309963829237    0.6525901
              13       -3257.24599419234528    0.6044365
              14       -3257.30486532028954    0.5281026
              15       -3257.33442762736877    0.4499698
              16       -3257.34016082136986    0.4097361
              17       -3257.34124598434937    0.4176100
              18       -3257.34158238627788    0.4643370
              19       -3257.34173115459998    0.4937664
              20       -3257.34179155192123    0.4998067
              21       -3257.34184462502617    0.4999998
              22       -3257.34191177538651    0.5000000
              23       -3257.34198305654627    0.5000000
              24       -3257.34203378711572    0.5000000
              25       -3257.34205008228946    0.5000000
              26       -3257.34205128332587    0.5000002
              27       -3257.34205128914709    0.5000002
Termination criterion satisfied: band energy change below threshold.
Final occupancy bounds: [    0.00000000000000:    0.99999999999999]
Closest occupancy to 0.5:     1.00000000000000
================================================================================
... done

Writing density kernel to file "complex_33921.vacuum_dkn" ... done

>>> Optimising kernel for current NGWFs:
   Initial electron number for spin 1:    7228.00000000
     Final electron number for spin 1:    7228.00000000

=================== Penalty functional idempotency correction ==================
 RMS occupancy error at iteration   1:  0.000000 (step -0.5000 Ne1=   7228.0000)
            Final RMS occupancy error   :  0.000000 (Ne1=   7228.0000)
               Final occupancy bounds   : [ -0.0000,  1.0000]
================================================================================

................................................................................
<<<<<<<<<<<<<< LNV (Original version) density kernel optimisation >>>>>>>>>>>>>>
~~~~~~~~~~~~~~~~~~~~~~~~~~~~~~~~~~~~~~~~~~~~~~~~~~~~~~~~~~~~~~~~~~~~~~~~~~~~~~~~
   iter  |      energy (Eh)       | rms gradient |  commutator  |   dE (Eh)
MG BCs: +ve charge blocks (gridpoints):     31180 (   17322885).
MG BCs: -ve charge blocks (gridpoints):      8442 (    1122797).
MG BCs:     Elided blocks (gridpoints):    162728 (  172524943).
MG BCs: Computational effort saved:  99.9793%.
MG BCs: Charge after coarse-graining:           -9.0009663.
MG DL_MG: Calling solver with defect correction order = 8
MG DL_MG: Solver finished
MG Hartree energy from (\int phi*rho dr):              1424.850671
MG Hartree energy from (\int eps (grad phi)^2 dr):     1424.181820
MG Discrepancy due to finite box and discretization:     -0.668851 (  -0.04694%)
MG Correction to account for finite box:                  0.474657
MG Remaining discrepancy, due to discretization:         -0.194194 (  -0.01363%)
      ideal mu1:      -0.744767822699
             Q0:  -11524.996982819750
             G0:    -125.214218524376
   RMS gradient:       0.001711257980
MG BCs: +ve charge blocks (gridpoints):     31159 (   17399734).
MG BCs: -ve charge blocks (gridpoints):      8330 (    1099923).
MG BCs:     Elided blocks (gridpoints):    162749 (  172470968).
MG BCs: Computational effort saved:  99.9793%.
MG BCs: Charge after coarse-graining:           -9.0009894.
MG DL_MG: Calling solver with defect correction order = 8
MG DL_MG: Solver finished
MG Hartree energy from (\int phi*rho dr):              1446.808082
MG Hartree energy from (\int eps (grad phi)^2 dr):     1446.155865
MG Discrepancy due to finite box and discretization:     -0.652216 (  -0.04508%)
MG Correction to account for finite box:                  0.473357
MG Remaining discrepancy, due to discretization:         -0.178859 (  -0.01236%)
     Trial step:       0.500000000000
             Q1:  -11537.023751702160
 Quadratic coef:      50.580340379778
 Linear coef   :     -62.607109262188
           Qmin:  -11544.370370289749
Quadratic minimum step length (  0.309443890611) accepted
    Initial Ne1:    7228.00000000
      Final Ne1:    7228.00000000

=================== Penalty functional idempotency correction ==================
 RMS occupancy error at iteration   1:  0.003165 (step -0.4892 Ne1=   7228.0000)
 RMS occupancy error at iteration   2:  0.000023 (step -0.5000 Ne1=   7228.0000)
            Final RMS occupancy error   :  0.000000 (Ne1=   7228.0000)
               Final occupancy bounds   : [  0.0000,  1.0000]
================================================================================

    1        -1.152499698282E+04     1.7113E-03     1.5481E-03
MG BCs: +ve charge blocks (gridpoints):     31164 (   17372226).
MG BCs: -ve charge blocks (gridpoints):      8371 (    1108867).
MG BCs:     Elided blocks (gridpoints):    162745 (  172489532).
MG BCs: Computational effort saved:  99.9793%.
MG BCs: Charge after coarse-graining:           -9.0009804.
MG DL_MG: Calling solver with defect correction order = 8
MG DL_MG: Solver finished
MG Hartree energy from (\int phi*rho dr):              1431.896871
MG Hartree energy from (\int eps (grad phi)^2 dr):     1431.239172
MG Discrepancy due to finite box and discretization:     -0.657700 (  -0.04593%)
MG Correction to account for finite box:                  0.473719
MG Remaining discrepancy, due to discretization:         -0.183980 (  -0.01285%)
      ideal mu1:      -0.786144368902
             Q0:  -11544.749456594582
             G0:     -11.097381523857
   RMS gradient:       0.000505769873
MG BCs: +ve charge blocks (gridpoints):     31158 (   17388289).
MG BCs: -ve charge blocks (gridpoints):      8349 (    1101927).
MG BCs:     Elided blocks (gridpoints):    162750 (  172480409).
MG BCs: Computational effort saved:  99.9793%.
MG BCs: Charge after coarse-graining:           -9.0009855.
MG DL_MG: Calling solver with defect correction order = 8
MG DL_MG: Solver finished
MG Hartree energy from (\int phi*rho dr):              1437.545534
MG Hartree energy from (\int eps (grad phi)^2 dr):     1436.891555
MG Discrepancy due to finite box and discretization:     -0.653978 (  -0.04549%)
MG Correction to account for finite box:                  0.473080
MG Remaining discrepancy, due to discretization:         -0.180898 (  -0.01258%)
     Trial step:       0.393347105373
             Q1:  -11547.291791792959
 Quadratic coef:       1.822787701254
 Linear coef   :      -4.365122899632
           Qmin:  -11547.362802339094
Quadratic minimum step length (  0.470984211707) accepted
    Initial Ne1:    7227.99992837
      Final Ne1:    7228.00000000

=================== Penalty functional idempotency correction ==================
 RMS occupancy error at iteration   1:  0.001497 (step -0.4946 Ne1=   7228.0000)
 RMS occupancy error at iteration   2:  0.000006 (step -0.5000 Ne1=   7228.0000)
            Final RMS occupancy error   :  0.000000 (Ne1=   7228.0000)
               Final occupancy bounds   : [  0.0000,  1.0000]
================================================================================

    2        -1.154474945659E+04     5.0577E-04     4.5756E-04    -1.9752E+01
MG BCs: +ve charge blocks (gridpoints):     31153 (   17391565).
MG BCs: -ve charge blocks (gridpoints):      8341 (    1100502).
MG BCs:     Elided blocks (gridpoints):    162755 (  172478558).
MG BCs: Computational effort saved:  99.9793%.
MG BCs: Charge after coarse-graining:           -9.0009865.
MG DL_MG: Calling solver with defect correction order = 8
MG DL_MG: Solver finished
MG Hartree energy from (\int phi*rho dr):              1438.685273
MG Hartree energy from (\int eps (grad phi)^2 dr):     1438.031982
MG Discrepancy due to finite box and discretization:     -0.653291 (  -0.04541%)
MG Correction to account for finite box:                  0.472964
MG Remaining discrepancy, due to discretization:         -0.180326 (  -0.01253%)
      ideal mu1:      -0.807433370999
             Q0:  -11547.396239726339
             G0:      -1.831017243416
   RMS gradient:       0.000205529380
MG BCs: +ve charge blocks (gridpoints):     31151 (   17392060).
MG BCs: -ve charge blocks (gridpoints):      8346 (    1100702).
MG BCs:     Elided blocks (gridpoints):    162757 (  172477863).
MG BCs: Computational effort saved:  99.9793%.
MG BCs: Charge after coarse-graining:           -9.0009868.
MG DL_MG: Calling solver with defect correction order = 8
MG DL_MG: Solver finished
MG Hartree energy from (\int phi*rho dr):              1438.112133
MG Hartree energy from (\int eps (grad phi)^2 dr):     1437.459303
MG Discrepancy due to finite box and discretization:     -0.652831 (  -0.04539%)
MG Correction to account for finite box:                  0.472716
MG Remaining discrepancy, due to discretization:         -0.180115 (  -0.01252%)
     Trial step:       0.430418722120
             Q1:  -11547.865627365769
 Quadratic coef:       0.318716462660
 Linear coef   :      -0.788104102091
           Qmin:  -11547.883434575444
Quadratic minimum step length (  0.532157576186) accepted
    Initial Ne1:    7227.99997691
      Final Ne1:    7228.00000000

=================== Penalty functional idempotency correction ==================
 RMS occupancy error at iteration   1:  0.000569 (step -0.4978 Ne1=   7228.0000)
 RMS occupancy error at iteration   2:  0.000001 (step -0.5000 Ne1=   7228.0000)
            Final RMS occupancy error   :  0.000000 (Ne1=   7228.0000)
               Final occupancy bounds   : [  0.0000,  1.0000]
================================================================================

    3        -1.154739623973E+04     2.0553E-04     1.8594E-04    -2.6468E+00
MG BCs: +ve charge blocks (gridpoints):     31151 (   17392211).
MG BCs: -ve charge blocks (gridpoints):      8347 (    1100720).
MG BCs:     Elided blocks (gridpoints):    162757 (  172477694).
MG BCs: Computational effort saved:  99.9793%.
MG BCs: Charge after coarse-graining:           -9.0009868.
MG DL_MG: Calling solver with defect correction order = 8
MG DL_MG: Solver finished
MG Hartree energy from (\int phi*rho dr):              1437.981311
MG Hartree energy from (\int eps (grad phi)^2 dr):     1437.328577
MG Discrepancy due to finite box and discretization:     -0.652734 (  -0.04539%)
MG Correction to account for finite box:                  0.472658
MG Remaining discrepancy, due to discretization:         -0.180076 (  -0.01252%)
      ideal mu1:      -0.809968747366
             Q0:  -11547.887991180411
             G0:      -0.397139158791
   RMS gradient:       0.000095888452
MG BCs: +ve charge blocks (gridpoints):     31152 (   17392610).
MG BCs: -ve charge blocks (gridpoints):      8347 (    1100730).
MG BCs:     Elided blocks (gridpoints):    162756 (  172477285).
MG BCs: Computational effort saved:  99.9793%.
MG BCs: Charge after coarse-graining:           -9.0009868.
MG DL_MG: Calling solver with defect correction order = 8
MG DL_MG: Solver finished
MG Hartree energy from (\int phi*rho dr):              1438.986955
MG Hartree energy from (\int eps (grad phi)^2 dr):     1438.334149
MG Discrepancy due to finite box and discretization:     -0.652806 (  -0.04537%)
MG Correction to account for finite box:                  0.472583
MG Remaining discrepancy, due to discretization:         -0.180223 (  -0.01252%)
     Trial step:       0.478592294034
             Q1:  -11547.985173346824
 Quadratic coef:       0.092885574642
 Linear coef   :      -0.190067741057
           Qmin:  -11547.985223033498
Quadratic minimum step length (  0.489661374031) accepted
    Initial Ne1:    7227.99999524
      Final Ne1:    7228.00000000

=================== Penalty functional idempotency correction ==================
 RMS occupancy error at iteration   1:  0.000181 (step -0.4993 Ne1=   7228.0000)
            Final RMS occupancy error   :  0.000000 (Ne1=   7228.0000)
               Final occupancy bounds   : [ -0.0000,  1.0000]
================================================================================

    4        -1.154788799118E+04     9.5888E-05     8.6748E-05    -4.9175E-01
MG BCs: +ve charge blocks (gridpoints):     31152 (   17392620).
MG BCs: -ve charge blocks (gridpoints):      8347 (    1100725).
MG BCs:     Elided blocks (gridpoints):    162756 (  172477280).
MG BCs: Computational effort saved:  99.9793%.
MG BCs: Charge after coarse-graining:           -9.0009868.
MG DL_MG: Calling solver with defect correction order = 8
MG DL_MG: Solver finished
MG Hartree energy from (\int phi*rho dr):              1439.010454
MG Hartree energy from (\int eps (grad phi)^2 dr):     1438.357647
MG Discrepancy due to finite box and discretization:     -0.652807 (  -0.04537%)
MG Correction to account for finite box:                  0.472581
MG Remaining discrepancy, due to discretization:         -0.180226 (  -0.01252%)
      ideal mu1:      -0.809929225135
             Q0:  -11547.985641592415
             G0:      -0.102615740948
   RMS gradient:       0.000048885831
MG BCs: +ve charge blocks (gridpoints):     31153 (   17392382).
MG BCs: -ve charge blocks (gridpoints):      8347 (    1100847).
MG BCs:     Elided blocks (gridpoints):    162755 (  172477396).
MG BCs: Computational effort saved:  99.9793%.
MG BCs: Charge after coarse-graining:           -9.0009865.
MG DL_MG: Calling solver with defect correction order = 8
MG DL_MG: Solver finished
MG Hartree energy from (\int phi*rho dr):              1438.735347
MG Hartree energy from (\int eps (grad phi)^2 dr):     1438.082395
MG Discrepancy due to finite box and discretization:     -0.652952 (  -0.04538%)
MG Correction to account for finite box:                  0.472595
MG Remaining discrepancy, due to discretization:         -0.180357 (  -0.01254%)
     Trial step:       0.484095197557
             Q1:  -11548.009403795586
 Quadratic coef:       0.025913584215
 Linear coef   :      -0.049675787387
           Qmin:  -11548.009448448232
Quadratic minimum step length (  0.464000076349) accepted
    Initial Ne1:    7228.00174264
      Final Ne1:    7228.00000000

=================== Penalty functional idempotency correction ==================
 RMS occupancy error at iteration   1:  0.000060 (step -0.4997 Ne1=   7228.0000)
            Final RMS occupancy error   :  0.000000 (Ne1=   7228.0000)
               Final occupancy bounds   : [ -0.0000,  1.0000]
================================================================================

    5        -1.154798564159E+04     4.8886E-05     4.4226E-05    -9.7650E-02
MG BCs: +ve charge blocks (gridpoints):     31153 (   17392394).
MG BCs: -ve charge blocks (gridpoints):      8347 (    1100840).
MG BCs:     Elided blocks (gridpoints):    162755 (  172477391).
MG BCs: Computational effort saved:  99.9793%.
MG BCs: Charge after coarse-graining:           -9.0009865.
MG DL_MG: Calling solver with defect correction order = 8
MG DL_MG: Solver finished
MG Hartree energy from (\int phi*rho dr):              1438.746748
MG Hartree energy from (\int eps (grad phi)^2 dr):     1438.093803
MG Discrepancy due to finite box and discretization:     -0.652946 (  -0.04538%)
MG Correction to account for finite box:                  0.472594
MG Remaining discrepancy, due to discretization:         -0.180351 (  -0.01254%)
      ideal mu1:      -0.809370156353
             Q0:  -11548.009492440848
             G0:      -0.024498724108
   RMS gradient:       0.000023910067
MG BCs: +ve charge blocks (gridpoints):     31154 (   17392137).
MG BCs: -ve charge blocks (gridpoints):      8347 (    1100952).
MG BCs:     Elided blocks (gridpoints):    162754 (  172477536).
MG BCs: Computational effort saved:  99.9793%.
MG BCs: Charge after coarse-graining:           -9.0009864.
MG DL_MG: Calling solver with defect correction order = 8
MG DL_MG: Solver finished
MG Hartree energy from (\int phi*rho dr):              1438.277755
MG Hartree energy from (\int eps (grad phi)^2 dr):     1437.624792
MG Discrepancy due to finite box and discretization:     -0.652963 (  -0.04540%)
MG Correction to account for finite box:                  0.472601
MG Remaining discrepancy, due to discretization:         -0.180362 (  -0.01254%)
     Trial step:       0.473941144686
             Q1:  -11548.016526447027
 Quadratic coef:       0.004576947167
 Linear coef   :      -0.011610953347
           Qmin:  -11548.016856204986
Quadratic minimum step length (  0.601154909514) accepted
    Initial Ne1:    7228.00080372
      Final Ne1:    7228.00000000

=================== Penalty functional idempotency correction ==================
 RMS occupancy error at iteration   1:  0.000025 (step -0.4999 Ne1=   7228.0000)
            Final RMS occupancy error   :  0.000000 (Ne1=   7228.0000)
               Final occupancy bounds   : [ -0.0000,  1.0000]
================================================================================

    6        -1.154800949244E+04     2.3910E-05     2.1631E-05    -2.3851E-02
MG BCs: +ve charge blocks (gridpoints):     31154 (   17392064).
MG BCs: -ve charge blocks (gridpoints):      8347 (    1101018).
MG BCs:     Elided blocks (gridpoints):    162754 (  172477543).
MG BCs: Computational effort saved:  99.9793%.
MG BCs: Charge after coarse-graining:           -9.0009864.
MG DL_MG: Calling solver with defect correction order = 8
MG DL_MG: Solver finished
MG Hartree energy from (\int phi*rho dr):              1438.151736
MG Hartree energy from (\int eps (grad phi)^2 dr):     1437.498769
MG Discrepancy due to finite box and discretization:     -0.652967 (  -0.04540%)
MG Correction to account for finite box:                  0.472602
MG Remaining discrepancy, due to discretization:         -0.180365 (  -0.01254%)
      ideal mu1:      -0.809337092784
             Q0:  -11548.016861858428
             G0:      -0.009049361086
   RMS gradient:       0.000014547810
MG BCs: +ve charge blocks (gridpoints):     31153 (   17392361).
MG BCs: -ve charge blocks (gridpoints):      8347 (    1100820).
MG BCs:     Elided blocks (gridpoints):    162755 (  172477444).
MG BCs: Computational effort saved:  99.9793%.
MG BCs: Charge after coarse-graining:           -9.0009865.
MG DL_MG: Calling solver with defect correction order = 8
MG DL_MG: Solver finished
MG Hartree energy from (\int phi*rho dr):              1438.630660
MG Hartree energy from (\int eps (grad phi)^2 dr):     1437.977697
MG Discrepancy due to finite box and discretization:     -0.652964 (  -0.04539%)
MG Correction to account for finite box:                  0.472593
MG Remaining discrepancy, due to discretization:         -0.180371 (  -0.01254%)
     Trial step:       0.533771529728
             Q1:  -11548.019074982731
 Quadratic coef:       0.002617167007
 Linear coef   :      -0.004830291310
           Qmin:  -11548.019090576932
Quadratic minimum step length (  0.492569250384) accepted
    Initial Ne1:    7228.00004549
      Final Ne1:    7228.00000000

=================== Penalty functional idempotency correction ==================
 RMS occupancy error at iteration   1:  0.000001 (step -0.5000 Ne1=   7228.0000)
            Final RMS occupancy error   :  0.000000 (Ne1=   7228.0000)
               Final occupancy bounds   : [  0.0000,  1.0000]
================================================================================

    7        -1.154801686186E+04     1.4548E-05     1.3161E-05    -7.3694E-03
MG BCs: +ve charge blocks (gridpoints):     31154 (   17392349).
MG BCs: -ve charge blocks (gridpoints):      8347 (    1100826).
MG BCs:     Elided blocks (gridpoints):    162754 (  172477450).
MG BCs: Computational effort saved:  99.9793%.
MG BCs: Charge after coarse-graining:           -9.0009865.
MG DL_MG: Calling solver with defect correction order = 8
MG DL_MG: Solver finished
MG Hartree energy from (\int phi*rho dr):              1438.593657
MG Hartree energy from (\int eps (grad phi)^2 dr):     1437.940693
MG Discrepancy due to finite box and discretization:     -0.652964 (  -0.04539%)
MG Correction to account for finite box:                  0.472594
MG Remaining discrepancy, due to discretization:         -0.180370 (  -0.01254%)
      ideal mu1:      -0.809632684457
             Q0:  -11548.019090622547
             G0:      -0.004704488987
   RMS gradient:       0.000010489568
MG BCs: +ve charge blocks (gridpoints):     31155 (   17392399).
MG BCs: -ve charge blocks (gridpoints):      8347 (    1100799).
MG BCs:     Elided blocks (gridpoints):    162753 (  172477427).
MG BCs: Computational effort saved:  99.9793%.
MG BCs: Charge after coarse-graining:           -9.0009866.
MG DL_MG: Calling solver with defect correction order = 8
MG DL_MG: Solver finished
MG Hartree energy from (\int phi*rho dr):              1438.651047
MG Hartree energy from (\int eps (grad phi)^2 dr):     1437.998093
MG Discrepancy due to finite box and discretization:     -0.652954 (  -0.04539%)
MG Correction to account for finite box:                  0.472589
MG Remaining discrepancy, due to discretization:         -0.180365 (  -0.01254%)
     Trial step:       0.512756708659
             Q1:  -11548.020815017167
 Quadratic coef:       0.000687863669
 Linear coef   :      -0.002412258289
           Qmin:  -11548.021205500218
Quadratic minimum step length (  0.899089221479) accepted
    Initial Ne1:    7228.00004291
      Final Ne1:    7228.00000000

=================== Penalty functional idempotency correction ==================
 RMS occupancy error at iteration   1:  0.000009 (step -0.4998 Ne1=   7228.0000)
            Final RMS occupancy error   :  0.000000 (Ne1=   7228.0000)
               Final occupancy bounds   : [ -0.0000,  1.0000]
================================================================================

    8        -1.154801909062E+04     1.0490E-05     9.4897E-06    -2.2288E-03
MG BCs: +ve charge blocks (gridpoints):     31155 (   17392477).
MG BCs: -ve charge blocks (gridpoints):      8347 (    1100748).
MG BCs:     Elided blocks (gridpoints):    162753 (  172477400).
MG BCs: Computational effort saved:  99.9793%.
MG BCs: Charge after coarse-graining:           -9.0009866.
MG DL_MG: Calling solver with defect correction order = 8
MG DL_MG: Solver finished
MG Hartree energy from (\int phi*rho dr):              1438.693823
MG Hartree energy from (\int eps (grad phi)^2 dr):     1438.040877
MG Discrepancy due to finite box and discretization:     -0.652946 (  -0.04538%)
MG Correction to account for finite box:                  0.472585
MG Remaining discrepancy, due to discretization:         -0.180361 (  -0.01254%)
      ideal mu1:      -0.809705863802
             Q0:  -11548.021204127464
             G0:      -0.005330436099
   RMS gradient:       0.000011173093
MG BCs: +ve charge blocks (gridpoints):     31153 (   17392353).
MG BCs: -ve charge blocks (gridpoints):      8347 (    1100833).
MG BCs:     Elided blocks (gridpoints):    162755 (  172477439).
MG BCs: Computational effort saved:  99.9793%.
MG BCs: Charge after coarse-graining:           -9.0009866.
MG DL_MG: Calling solver with defect correction order = 8
MG DL_MG: Solver finished
MG Hartree energy from (\int phi*rho dr):              1438.441713
MG Hartree energy from (\int eps (grad phi)^2 dr):     1437.788787
MG Discrepancy due to finite box and discretization:     -0.652926 (  -0.04539%)
MG Correction to account for finite box:                  0.472576
MG Remaining discrepancy, due to discretization:         -0.180350 (  -0.01254%)
     Trial step:       0.678980139618
             Q1:  -11548.023359455634
 Quadratic coef:       0.001463932078
 Linear coef   :      -0.003619260247
           Qmin:  -11548.023441089979
Quadratic minimum step length (  0.839316886557) accepted
    Initial Ne1:    7228.00007044
      Final Ne1:    7228.00000000

=================== Penalty functional idempotency correction ==================
 RMS occupancy error at iteration   1:  0.000032 (step -0.4991 Ne1=   7228.0000)
            Final RMS occupancy error   :  0.000000 (Ne1=   7228.0000)
               Final occupancy bounds   : [ -0.0000,  1.0000]
================================================================================

    9        -1.154802120413E+04     1.1173E-05     1.0108E-05    -2.1135E-03
MG BCs: +ve charge blocks (gridpoints):     31153 (   17392346).
MG BCs: -ve charge blocks (gridpoints):      8347 (    1100846).
MG BCs:     Elided blocks (gridpoints):    162755 (  172477433).
MG BCs: Computational effort saved:  99.9793%.
MG BCs: Charge after coarse-graining:           -9.0009865.
MG DL_MG: Calling solver with defect correction order = 8
MG DL_MG: Solver finished
MG Hartree energy from (\int phi*rho dr):              1438.381645
MG Hartree energy from (\int eps (grad phi)^2 dr):     1437.728723
MG Discrepancy due to finite box and discretization:     -0.652921 (  -0.04539%)
MG Correction to account for finite box:                  0.472574
MG Remaining discrepancy, due to discretization:         -0.180348 (  -0.01254%)
      ideal mu1:      -0.809539743537
   10        -1.154802343915E+04     1.0741E-05     9.7168E-06    -2.2350E-03
Finished density kernel iterations (  10)

Writing density kernel to file "complex_33921.vacuum_dkn" ... done


>>> Density kernel optimised for the current NGWF basis:
     ~~~~~~~~~~~~~~~~~~~~~~~~~~~~~~~~~~~~~~~~~~~~~~~~~~~~~~~~~~~
     Total energy                =  -1.15480234391509E+04  Eh
     Estimated bandgap           =  -2.4471E-01  Eh
     RMS occupancy error         =   2.5935E-08
     [H,K] commutator            =   9.7168E-06
     Occupancy bounds            = [ -0.000:  1.000]
     ~~~~~~~~~~~~~~~~~~~~~~~~~~~~~~~~~~~~~~~~~~~~~~~~~~~~~~~~~~~




################################################################################
########################### NGWF CG iteration  001 #############################
################################################################################
****** Reciprocal space K.E. preconditioning with k_zero =  3.5000 a0^-1 *******

>>> Checking for convergence of NGWFs:   NOT CONVERGED
  ========================================================================
         NGWF RMS gradient =  1.6452E-03 >  2.0000E-06  | above tolerance
  ========================================================================

>>> Improving NGWFs using line search:
============ Calculation of NGWF S^-1 using Hotelling algorithm ================ 
         Iteration  |  Frobenius norm and Maximum abs value    (of I-S*S_n^-1)   
               1       0.23811966E+00     0.61906651E-02
               2       0.13021316E-02     0.57267686E-04
               3       0.64748323E-07     0.52300779E-08
               4       0.13263320E-12     0.63282712E-14
================================================================================
MG BCs: +ve charge blocks (gridpoints):     30698 (   17337834).
MG BCs: -ve charge blocks (gridpoints):      8355 (    1097518).
MG BCs:     Elided blocks (gridpoints):    163208 (  172535273).
MG BCs: Computational effort saved:  99.9796%.
MG BCs: Charge after coarse-graining:           -9.0009932.
MG DL_MG: Calling solver with defect correction order = 8
MG DL_MG: Solver finished
MG Hartree energy from (\int phi*rho dr):              1410.103139
MG Hartree energy from (\int eps (grad phi)^2 dr):     1409.451692
MG Discrepancy due to finite box and discretization:     -0.651447 (  -0.04620%)
MG Correction to account for finite box:                  0.472513
MG Remaining discrepancy, due to discretization:         -0.178934 (  -0.01269%)
============ Calculation of NGWF S^-1 using Hotelling algorithm ================ 
         Iteration  |  Frobenius norm and Maximum abs value    (of I-S*S_n^-1)   
               1       0.21672695E+01     0.47275128E-01
               2       0.96269773E-01     0.32538124E-02
               3       0.26197921E-03     0.17619180E-04
               4       0.34565217E-08     0.53606786E-09
               5       0.11610169E-12     0.52180482E-14
================================================================================
------------------------------- NGWF line search -------------------------------
RMS gradient                =       0.00164515326450
Trial step length           =               0.122474
Gradient along search dir.  =       -297.12340507053
Functional at step 0        =  -11548.02343915088568
Functional at step 1        =  -11581.56588612857740
Functional predicted        =  -11664.28270738991705
Selected quadratic step     =               0.782566
--------------------------- NGWF line search finished --------------------------
                                               
Writing NGWFs to file "complex_33921.vacuum_tightbox_ngwfs"....  done

>>> Optimising kernel for current NGWFs:
   Initial electron number for spin 1:    7274.14720518
     Final electron number for spin 1:    7228.00000000

=================== Penalty functional idempotency correction ==================
 RMS occupancy error at iteration   1:  0.005264 (step -0.4824 Ne1=   7228.0000)
 RMS occupancy error at iteration   2:  0.000099 (step -0.5003 Ne1=   7228.0000)
            Final RMS occupancy error   :  0.000000 (Ne1=   7228.0000)
               Final occupancy bounds   : [  0.0000,  1.0000]
================================================================================

................................................................................
<<<<<<<<<<<<<< LNV (Original version) density kernel optimisation >>>>>>>>>>>>>>
~~~~~~~~~~~~~~~~~~~~~~~~~~~~~~~~~~~~~~~~~~~~~~~~~~~~~~~~~~~~~~~~~~~~~~~~~~~~~~~~
   iter  |      energy (Eh)       | rms gradient |  commutator  |   dE (Eh)
MG BCs: +ve charge blocks (gridpoints):     25063 (   17098306).
MG BCs: -ve charge blocks (gridpoints):      8463 (    1067268).
MG BCs:     Elided blocks (gridpoints):    168851 (  172805051).
MG BCs: Computational effort saved:  99.9824%.
MG BCs: Charge after coarse-graining:           -9.0007351.
MG DL_MG: Calling solver with defect correction order = 8
MG DL_MG: Solver finished
MG Hartree energy from (\int phi*rho dr):              1279.766770
MG Hartree energy from (\int eps (grad phi)^2 dr):     1279.118391
MG Discrepancy due to finite box and discretization:     -0.648379 (  -0.05066%)
MG Correction to account for finite box:                  0.472233
MG Remaining discrepancy, due to discretization:         -0.176146 (  -0.01376%)
      ideal mu1:      -0.751680291274
             Q0:  -11663.642761726864
             G0:      -9.637729908747
   RMS gradient:       0.000474762096
MG BCs: +ve charge blocks (gridpoints):     25128 (   17112359).
MG BCs: -ve charge blocks (gridpoints):      8447 (    1063540).
MG BCs:     Elided blocks (gridpoints):    168786 (  172794726).
MG BCs: Computational effort saved:  99.9824%.
MG BCs: Charge after coarse-graining:           -9.0007314.
MG DL_MG: Calling solver with defect correction order = 8
MG DL_MG: Solver finished
MG Hartree energy from (\int phi*rho dr):              1293.823976
MG Hartree energy from (\int eps (grad phi)^2 dr):     1293.170518
MG Discrepancy due to finite box and discretization:     -0.653458 (  -0.05051%)
MG Correction to account for finite box:                  0.472041
MG Remaining discrepancy, due to discretization:         -0.181418 (  -0.01402%)
     Trial step:       0.754903634127
             Q1:  -11662.645410088706
 Quadratic coef:       8.272908971008
 Linear coef   :      -7.275557332850
           Qmin:  -11665.242372416678
Quadratic minimum step length (  0.331947606949) accepted
    Initial Ne1:    7227.99892250
      Final Ne1:    7228.00000000

=================== Penalty functional idempotency correction ==================
 RMS occupancy error at iteration   1:  0.000354 (step -0.4986 Ne1=   7228.0000)
 RMS occupancy error at iteration   2:  0.000000 (step -0.5000 Ne1=   7228.0000)
            Final RMS occupancy error   :  0.000000 (Ne1=   7228.0000)
               Final occupancy bounds   : [  0.0000,  1.0000]
================================================================================

    1        -1.166364276173E+04     4.7476E-04     4.2951E-04
MG BCs: +ve charge blocks (gridpoints):     25097 (   17104638).
MG BCs: -ve charge blocks (gridpoints):      8460 (    1065627).
MG BCs:     Elided blocks (gridpoints):    168817 (  172800360).
MG BCs: Computational effort saved:  99.9824%.
MG BCs: Charge after coarse-graining:           -9.0007334.
MG DL_MG: Calling solver with defect correction order = 8
MG DL_MG: Solver finished
MG Hartree energy from (\int phi*rho dr):              1284.893851
MG Hartree energy from (\int eps (grad phi)^2 dr):     1284.243341
MG Discrepancy due to finite box and discretization:     -0.650510 (  -0.05063%)
MG Correction to account for finite box:                  0.472129
MG Remaining discrepancy, due to discretization:         -0.178381 (  -0.01388%)
      ideal mu1:      -0.757440364283
             Q0:  -11665.221675866051
             G0:      -0.871234172973
   RMS gradient:       0.000143263356
MG BCs: +ve charge blocks (gridpoints):     25099 (   17104407).
MG BCs: -ve charge blocks (gridpoints):      8462 (    1066342).
MG BCs:     Elided blocks (gridpoints):    168815 (  172799876).
MG BCs: Computational effort saved:  99.9824%.
MG BCs: Charge after coarse-graining:           -9.0007333.
MG DL_MG: Calling solver with defect correction order = 8
MG DL_MG: Solver finished
MG Hartree energy from (\int phi*rho dr):              1285.496542
MG Hartree energy from (\int eps (grad phi)^2 dr):     1284.845768
MG Discrepancy due to finite box and discretization:     -0.650773 (  -0.05062%)
MG Correction to account for finite box:                  0.472125
MG Remaining discrepancy, due to discretization:         -0.178649 (  -0.01390%)
     Trial step:       0.500588108954
             Q1:  -11665.419681674102
 Quadratic coef:       0.238123659054
 Linear coef   :      -0.436129467104
           Qmin:  -11665.421371386472
Quadratic minimum step length (  0.458419852241) accepted
    Initial Ne1:    7227.99986449
      Final Ne1:    7228.00000000

=================== Penalty functional idempotency correction ==================
 RMS occupancy error at iteration   1:  0.000136 (step -0.4995 Ne1=   7228.0000)
            Final RMS occupancy error   :  0.000000 (Ne1=   7228.0000)
               Final occupancy bounds   : [ -0.0000,  1.0000]
================================================================================

    2        -1.166522167587E+04     1.4326E-04     1.2961E-04    -1.5789E+00
MG BCs: +ve charge blocks (gridpoints):     25100 (   17104431).
MG BCs: -ve charge blocks (gridpoints):      8461 (    1066271).
MG BCs:     Elided blocks (gridpoints):    168814 (  172799923).
MG BCs: Computational effort saved:  99.9824%.
MG BCs: Charge after coarse-graining:           -9.0007333.
MG DL_MG: Calling solver with defect correction order = 8
MG DL_MG: Solver finished
MG Hartree energy from (\int phi*rho dr):              1285.446301
MG Hartree energy from (\int eps (grad phi)^2 dr):     1284.795551
MG Discrepancy due to finite box and discretization:     -0.650750 (  -0.05062%)
MG Correction to account for finite box:                  0.472125
MG Remaining discrepancy, due to discretization:         -0.178625 (  -0.01390%)
      ideal mu1:      -0.758149863837
             Q0:  -11665.421753474278
             G0:      -0.171255200368
   RMS gradient:       0.000063223104
MG BCs: +ve charge blocks (gridpoints):     25100 (   17103880).
MG BCs: -ve charge blocks (gridpoints):      8464 (    1066590).
MG BCs:     Elided blocks (gridpoints):    168814 (  172800155).
MG BCs: Computational effort saved:  99.9824%.
MG BCs: Charge after coarse-graining:           -9.0007332.
MG DL_MG: Calling solver with defect correction order = 8
MG DL_MG: Solver finished
MG Hartree energy from (\int phi*rho dr):              1284.862293
MG Hartree energy from (\int eps (grad phi)^2 dr):     1284.211637
MG Discrepancy due to finite box and discretization:     -0.650656 (  -0.05064%)
MG Correction to account for finite box:                  0.472119
MG Remaining discrepancy, due to discretization:         -0.178537 (  -0.01390%)
     Trial step:       0.479040214324
             Q1:  -11665.471810312825
 Quadratic coef:       0.031981289341
 Linear coef   :      -0.082038127889
           Qmin:  -11665.474364348996
Quadratic minimum step length (  0.614414915346) accepted
    Initial Ne1:    7228.00052108
      Final Ne1:    7228.00000000

=================== Penalty functional idempotency correction ==================
 RMS occupancy error at iteration   1:  0.000069 (step -0.4997 Ne1=   7228.0000)
            Final RMS occupancy error   :  0.000000 (Ne1=   7228.0000)
               Final occupancy bounds   : [ -0.0000,  1.0000]
================================================================================

    3        -1.166542175347E+04     6.3223E-05     5.7196E-05    -2.0008E-01
MG BCs: +ve charge blocks (gridpoints):     25100 (   17103674).
MG BCs: -ve charge blocks (gridpoints):      8466 (    1066705).
MG BCs:     Elided blocks (gridpoints):    168814 (  172800246).
MG BCs: Computational effort saved:  99.9824%.
MG BCs: Charge after coarse-graining:           -9.0007332.
MG DL_MG: Calling solver with defect correction order = 8
MG DL_MG: Solver finished
MG Hartree energy from (\int phi*rho dr):              1284.696881
MG Hartree energy from (\int eps (grad phi)^2 dr):     1284.046251
MG Discrepancy due to finite box and discretization:     -0.650630 (  -0.05064%)
MG Correction to account for finite box:                  0.472117
MG Remaining discrepancy, due to discretization:         -0.178513 (  -0.01390%)
      ideal mu1:      -0.757202395440
             Q0:  -11665.474465139792
             G0:      -0.032970159601
   RMS gradient:       0.000027725449
MG BCs: +ve charge blocks (gridpoints):     25100 (   17103309).
MG BCs: -ve charge blocks (gridpoints):      8463 (    1066797).
MG BCs:     Elided blocks (gridpoints):    168814 (  172800519).
MG BCs: Computational effort saved:  99.9824%.
MG BCs: Charge after coarse-graining:           -9.0007333.
MG DL_MG: Calling solver with defect correction order = 8
MG DL_MG: Solver finished
MG Hartree energy from (\int phi*rho dr):              1284.720679
MG Hartree energy from (\int eps (grad phi)^2 dr):     1284.070135
MG Discrepancy due to finite box and discretization:     -0.650544 (  -0.05064%)
MG Correction to account for finite box:                  0.472117
MG Remaining discrepancy, due to discretization:         -0.178428 (  -0.01389%)
     Trial step:       0.542521384585
             Q1:  -11665.483260558452
 Quadratic coef:       0.009091597976
 Linear coef   :      -0.017887016637
           Qmin:  -11665.483262970631
Quadratic minimum step length (  0.533684455533) accepted
    Initial Ne1:    7228.00023694
      Final Ne1:    7228.00000000

=================== Penalty functional idempotency correction ==================
 RMS occupancy error at iteration   1:  0.000018 (step -0.4999 Ne1=   7228.0000)
            Final RMS occupancy error   :  0.000000 (Ne1=   7228.0000)
               Final occupancy bounds   : [ -0.0000,  1.0000]
================================================================================

    4        -1.166547446514E+04     2.7725E-05     2.5083E-05    -5.2712E-02
MG BCs: +ve charge blocks (gridpoints):     25100 (   17103308).
MG BCs: -ve charge blocks (gridpoints):      8463 (    1066802).
MG BCs:     Elided blocks (gridpoints):    168814 (  172800515).
MG BCs: Computational effort saved:  99.9824%.
MG BCs: Charge after coarse-graining:           -9.0007333.
MG DL_MG: Calling solver with defect correction order = 8
MG DL_MG: Solver finished
MG Hartree energy from (\int phi*rho dr):              1284.720281
MG Hartree energy from (\int eps (grad phi)^2 dr):     1284.069735
MG Discrepancy due to finite box and discretization:     -0.650545 (  -0.05064%)
MG Correction to account for finite box:                  0.472117
MG Remaining discrepancy, due to discretization:         -0.178429 (  -0.01389%)
      ideal mu1:      -0.757246294052
             Q0:  -11665.483267766424
             G0:      -0.009914614884
   RMS gradient:       0.000015224465
MG BCs: +ve charge blocks (gridpoints):     25098 (   17103742).
MG BCs: -ve charge blocks (gridpoints):      8466 (    1066651).
MG BCs:     Elided blocks (gridpoints):    168816 (  172800232).
MG BCs: Computational effort saved:  99.9824%.
MG BCs: Charge after coarse-graining:           -9.0007332.
MG DL_MG: Calling solver with defect correction order = 8
MG DL_MG: Solver finished
MG Hartree energy from (\int phi*rho dr):              1285.053074
MG Hartree energy from (\int eps (grad phi)^2 dr):     1284.402553
MG Discrepancy due to finite box and discretization:     -0.650522 (  -0.05062%)
MG Correction to account for finite box:                  0.472109
MG Remaining discrepancy, due to discretization:         -0.178412 (  -0.01388%)
     Trial step:       0.538084779330
             Q1:  -11665.485787355108
 Quadratic coef:       0.002815314678
 Linear coef   :      -0.005334903362
           Qmin:  -11665.485795121012
Quadratic minimum step length (  0.509824056430) accepted
    Initial Ne1:    7228.00008103
      Final Ne1:    7228.00000000

=================== Penalty functional idempotency correction ==================
 RMS occupancy error at iteration   1:  0.000007 (step -0.5000 Ne1=   7228.0000)
            Final RMS occupancy error   :  0.000000 (Ne1=   7228.0000)
               Final occupancy bounds   : [ -0.0000,  1.0000]
================================================================================

    5        -1.166548326777E+04     1.5224E-05     1.3773E-05    -8.8026E-03
MG BCs: +ve charge blocks (gridpoints):     25098 (   17103713).
MG BCs: -ve charge blocks (gridpoints):      8466 (    1066667).
MG BCs:     Elided blocks (gridpoints):    168816 (  172800245).
MG BCs: Computational effort saved:  99.9824%.
MG BCs: Charge after coarse-graining:           -9.0007332.
MG DL_MG: Calling solver with defect correction order = 8
MG DL_MG: Solver finished
MG Hartree energy from (\int phi*rho dr):              1285.035571
MG Hartree energy from (\int eps (grad phi)^2 dr):     1284.385048
MG Discrepancy due to finite box and discretization:     -0.650523 (  -0.05062%)
MG Correction to account for finite box:                  0.472110
MG Remaining discrepancy, due to discretization:         -0.178413 (  -0.01388%)
      ideal mu1:      -0.757486546973
             Q0:  -11665.485795755871
             G0:      -0.002372915291
   RMS gradient:       0.000007447973
MG BCs: +ve charge blocks (gridpoints):     25098 (   17103699).
MG BCs: -ve charge blocks (gridpoints):      8464 (    1066688).
MG BCs:     Elided blocks (gridpoints):    168816 (  172800238).
MG BCs: Computational effort saved:  99.9824%.
MG BCs: Charge after coarse-graining:           -9.0007332.
MG DL_MG: Calling solver with defect correction order = 8
MG DL_MG: Solver finished
MG Hartree energy from (\int phi*rho dr):              1284.996028
MG Hartree energy from (\int eps (grad phi)^2 dr):     1284.345511
MG Discrepancy due to finite box and discretization:     -0.650516 (  -0.05062%)
MG Correction to account for finite box:                  0.472107
MG Remaining discrepancy, due to discretization:         -0.178409 (  -0.01388%)
     Trial step:       0.523763844592
             Q1:  -11665.486496010562
 Quadratic coef:       0.000542592545
 Linear coef   :      -0.001242847236
           Qmin:  -11665.486507463609
Quadratic minimum step length (  0.599859372161) accepted
    Initial Ne1:    7228.00002622
      Final Ne1:    7228.00000000

=================== Penalty functional idempotency correction ==================
 RMS occupancy error at iteration   1:  0.000003 (step -0.5000 Ne1=   7228.0000)
            Final RMS occupancy error   :  0.000000 (Ne1=   7228.0000)
               Final occupancy bounds   : [  0.0000,  1.0000]
================================================================================

    6        -1.166548579576E+04     7.4480E-06     6.7380E-06    -2.5280E-03
MG BCs: +ve charge blocks (gridpoints):     25098 (   17103692).
MG BCs: -ve charge blocks (gridpoints):      8464 (    1066688).
MG BCs:     Elided blocks (gridpoints):    168816 (  172800245).
MG BCs: Computational effort saved:  99.9824%.
MG BCs: Charge after coarse-graining:           -9.0007332.
MG DL_MG: Calling solver with defect correction order = 8
MG DL_MG: Solver finished
MG Hartree energy from (\int phi*rho dr):              1284.990287
MG Hartree energy from (\int eps (grad phi)^2 dr):     1284.339772
MG Discrepancy due to finite box and discretization:     -0.650515 (  -0.05062%)
MG Correction to account for finite box:                  0.472107
MG Remaining discrepancy, due to discretization:         -0.178409 (  -0.01388%)
      ideal mu1:      -0.757439789769
             Q0:  -11665.486507538357
             G0:      -0.000852299724
   RMS gradient:       0.000004464623
MG BCs: +ve charge blocks (gridpoints):     25097 (   17103570).
MG BCs: -ve charge blocks (gridpoints):      8465 (    1066725).
MG BCs:     Elided blocks (gridpoints):    168817 (  172800330).
MG BCs: Computational effort saved:  99.9824%.
MG BCs: Charge after coarse-graining:           -9.0007332.
MG DL_MG: Calling solver with defect correction order = 8
MG DL_MG: Solver finished
MG Hartree energy from (\int phi*rho dr):              1284.930293
MG Hartree energy from (\int eps (grad phi)^2 dr):     1284.279775
MG Discrepancy due to finite box and discretization:     -0.650518 (  -0.05063%)
MG Correction to account for finite box:                  0.472108
MG Remaining discrepancy, due to discretization:         -0.178410 (  -0.01388%)
     Trial step:       0.560521766729
             Q1:  -11665.486703131930
 Quadratic coef:       0.000282138973
 Linear coef   :      -0.000477732547
           Qmin:  -11665.486709768824
Quadratic minimum step length (  0.474552466024) accepted
    Initial Ne1:    7227.99999932
      Final Ne1:    7228.00000000

=================== Penalty functional idempotency correction ==================
 RMS occupancy error at iteration   1:  0.000000 (step -0.5000 Ne1=   7228.0000)
            Final RMS occupancy error   :  0.000000 (Ne1=   7228.0000)
               Final occupancy bounds   : [  0.0000,  1.0000]
================================================================================

    7        -1.166548650754E+04     4.4646E-06     4.0390E-06    -7.1178E-04
MG BCs: +ve charge blocks (gridpoints):     25097 (   17103580).
MG BCs: -ve charge blocks (gridpoints):      8465 (    1066719).
MG BCs:     Elided blocks (gridpoints):    168817 (  172800326).
MG BCs: Computational effort saved:  99.9824%.
MG BCs: Charge after coarse-graining:           -9.0007332.
MG DL_MG: Calling solver with defect correction order = 8
MG DL_MG: Solver finished
MG Hartree energy from (\int phi*rho dr):              1284.939486
MG Hartree energy from (\int eps (grad phi)^2 dr):     1284.288968
MG Discrepancy due to finite box and discretization:     -0.650518 (  -0.05063%)
MG Correction to account for finite box:                  0.472108
MG Remaining discrepancy, due to discretization:         -0.178410 (  -0.01388%)
      ideal mu1:      -0.757381341737
             Q0:  -11665.486709765042
             G0:      -0.000471294361
   RMS gradient:       0.000003319904
MG BCs: +ve charge blocks (gridpoints):     25097 (   17103558).
MG BCs: -ve charge blocks (gridpoints):      8464 (    1066731).
MG BCs:     Elided blocks (gridpoints):    168817 (  172800336).
MG BCs: Computational effort saved:  99.9824%.
MG BCs: Charge after coarse-graining:           -9.0007332.
MG DL_MG: Calling solver with defect correction order = 8
MG DL_MG: Solver finished
MG Hartree energy from (\int phi*rho dr):              1284.918327
MG Hartree energy from (\int eps (grad phi)^2 dr):     1284.267809
MG Discrepancy due to finite box and discretization:     -0.650518 (  -0.05063%)
MG Correction to account for finite box:                  0.472108
MG Remaining discrepancy, due to discretization:         -0.178409 (  -0.01388%)
     Trial step:       0.515748957014
             Q1:  -11665.486892805551
 Quadratic coef:       0.000060029066
 Linear coef   :      -0.000243069575
           Qmin:  -11665.486955824252
Quadratic minimum step length (  1.044184827795) accepted
    Initial Ne1:    7227.99999917
      Final Ne1:    7228.00000000

=================== Penalty functional idempotency correction ==================
 RMS occupancy error at iteration   1:  0.000002 (step -0.5000 Ne1=   7228.0000)
            Final RMS occupancy error   :  0.000000 (Ne1=   7228.0000)
               Final occupancy bounds   : [  0.0000,  1.0000]
================================================================================

    8        -1.166548670977E+04     3.3199E-06     3.0034E-06    -2.0223E-04
MG BCs: +ve charge blocks (gridpoints):     25097 (   17103548).
MG BCs: -ve charge blocks (gridpoints):      8464 (    1066736).
MG BCs:     Elided blocks (gridpoints):    168817 (  172800341).
[...]
 RMS occupancy error at iteration   1:  0.000000 (step -0.5000 Ne1=   7228.0000)
            Final RMS occupancy error   :  0.000000 (Ne1=   7228.0000)
               Final occupancy bounds   : [ -0.0000,  1.0000]
================================================================================

    7        -1.170147857695E+04     3.7689E-09     3.4096E-09     1.1642E-10

Reusing previously generated solute cavity.
MG BCs: +ve charge blocks (gridpoints):     29419 (   19262472).
MG BCs: -ve charge blocks (gridpoints):      8474 (    1044126).
MG BCs:     Elided blocks (gridpoints):    164495 (  170664027).
MG BCs: Computational effort saved:  99.9802%.
MG BCs: Charge after coarse-graining:           -9.0009754.
MG DL_MG: Calling solver with defect correction order = 8
MG DL_MG: Solver finished
MG Hartree energy from (\int phi*rho dr):              1235.950659
MG Hartree energy from (\int eps (grad phi)^2 dr):     1235.766583
MG Discrepancy due to finite box and discretization:     -0.184075 (  -0.01489%)
MG Correction to account for finite box:                  0.006488
MG Remaining discrepancy, due to discretization:         -0.177588 (  -0.01437%)
      ideal mu1:      -0.513668287088
             Q0:  -11701.478576946887
             G0:      -0.000000000963
   RMS gradient:       0.000000003434

Reusing previously generated solute cavity.
MG BCs: +ve charge blocks (gridpoints):     29419 (   19262472).
MG BCs: -ve charge blocks (gridpoints):      8474 (    1044126).
MG BCs:     Elided blocks (gridpoints):    164495 (  170664027).
MG BCs: Computational effort saved:  99.9802%.
MG BCs: Charge after coarse-graining:           -9.0009754.
MG DL_MG: Calling solver with defect correction order = 8
MG DL_MG: Solver finished
MG Hartree energy from (\int phi*rho dr):              1235.950670
MG Hartree energy from (\int eps (grad phi)^2 dr):     1235.766594
MG Discrepancy due to finite box and discretization:     -0.184075 (  -0.01489%)
MG Correction to account for finite box:                  0.006488
MG Remaining discrepancy, due to discretization:         -0.177588 (  -0.01437%)
     Trial step:       0.120636569538
             Q1:  -11701.478576946654
 Quadratic coef:       0.000000000349
 Linear coef   :      -0.000000000116
           Qmin:  -11701.478576946896
Quadratic minimum step length (  0.020056917899) accepted
    Initial Ne1:    7228.00000000
      Final Ne1:    7228.00000000

=================== Penalty functional idempotency correction ==================
 RMS occupancy error at iteration   1:  0.000000 (step -0.5000 Ne1=   7228.0000)
            Final RMS occupancy error   :  0.000000 (Ne1=   7228.0000)
               Final occupancy bounds   : [  0.0000,  1.0000]
================================================================================

    8        -1.170147857695E+04     3.4335E-09     3.1062E-09     1.1642E-10

Reusing previously generated solute cavity.
MG BCs: +ve charge blocks (gridpoints):     29419 (   19262472).
MG BCs: -ve charge blocks (gridpoints):      8474 (    1044126).
MG BCs:     Elided blocks (gridpoints):    164495 (  170664027).
MG BCs: Computational effort saved:  99.9802%.
MG BCs: Charge after coarse-graining:           -9.0009754.
MG DL_MG: Calling solver with defect correction order = 8
MG DL_MG: Solver finished
MG Hartree energy from (\int phi*rho dr):              1235.950660
MG Hartree energy from (\int eps (grad phi)^2 dr):     1235.766585
MG Discrepancy due to finite box and discretization:     -0.184075 (  -0.01489%)
MG Correction to account for finite box:                  0.006488
MG Remaining discrepancy, due to discretization:         -0.177588 (  -0.01437%)
      ideal mu1:      -0.513668287456
             Q0:  -11701.478576947004
             G0:      -0.000000001244
   RMS gradient:       0.000000003228

Reusing previously generated solute cavity.
MG BCs: +ve charge blocks (gridpoints):     29419 (   19262472).
MG BCs: -ve charge blocks (gridpoints):      8474 (    1044126).
MG BCs:     Elided blocks (gridpoints):    164495 (  170664027).
MG BCs: Computational effort saved:  99.9802%.
MG BCs: Charge after coarse-graining:           -9.0009754.
MG DL_MG: Calling solver with defect correction order = 8
MG DL_MG: Solver finished
MG Hartree energy from (\int phi*rho dr):              1235.950667
MG Hartree energy from (\int eps (grad phi)^2 dr):     1235.766591
MG Discrepancy due to finite box and discretization:     -0.184075 (  -0.01489%)
MG Correction to account for finite box:                  0.006488
MG Remaining discrepancy, due to discretization:         -0.177588 (  -0.01437%)
     Trial step:       0.049189407100
             Q1:  -11701.478576946887
 Quadratic coef:       0.000000000178
 Linear coef   :      -0.000000000061
           Qmin:  -11701.478576947009
Quadratic minimum step length (  0.008443112298) accepted
    Initial Ne1:    7228.00000000
      Final Ne1:    7228.00000000

=================== Penalty functional idempotency correction ==================
 RMS occupancy error at iteration   1:  0.000000 (step -0.5000 Ne1=   7228.0000)
            Final RMS occupancy error   :  0.000000 (Ne1=   7228.0000)
               Final occupancy bounds   : [ -0.0000,  1.0000]
================================================================================

    9        -1.170147857695E+04     3.2279E-09     2.9202E-09    -1.1642E-10

Reusing previously generated solute cavity.
MG BCs: +ve charge blocks (gridpoints):     29419 (   19262472).
MG BCs: -ve charge blocks (gridpoints):      8474 (    1044126).
MG BCs:     Elided blocks (gridpoints):    164495 (  170664027).
MG BCs: Computational effort saved:  99.9802%.
MG BCs: Charge after coarse-graining:           -9.0009754.
MG DL_MG: Calling solver with defect correction order = 8
MG DL_MG: Solver finished
MG Hartree energy from (\int phi*rho dr):              1235.950662
MG Hartree energy from (\int eps (grad phi)^2 dr):     1235.766586
MG Discrepancy due to finite box and discretization:     -0.184075 (  -0.01489%)
MG Correction to account for finite box:                  0.006488
MG Remaining discrepancy, due to discretization:         -0.177588 (  -0.01437%)
      ideal mu1:      -0.513668287680
   10        -1.170147857695E+04     3.1124E-09     2.8157E-09     1.1642E-10
Finished density kernel iterations (  10)

Writing density kernel to file "complex_33921.dkn" ... done


>>> Density kernel optimised for the current NGWF basis:
     ~~~~~~~~~~~~~~~~~~~~~~~~~~~~~~~~~~~~~~~~~~~~~~~~~~~~~~~~~~~
     Total energy                =  -1.17014785769469E+04  Eh
     Estimated bandgap           =   1.0995E-01  Eh
     RMS occupancy error         =   3.3747E-16
     [H,K] commutator            =   2.8157E-09
     Occupancy bounds            = [ -0.000:  1.000]
     ~~~~~~~~~~~~~~~~~~~~~~~~~~~~~~~~~~~~~~~~~~~~~~~~~~~~~~~~~~~




################################################################################
########################### NGWF CG iteration  005 #############################
################################################################################
****** Reciprocal space K.E. preconditioning with k_zero =  3.5000 a0^-1 *******

>>> Checking for convergence of NGWFs: 
           ........................................................
           |         *** NGWF optimisation converged ***          |
           | RMS NGWF gradient =    0.00000106354438              |
           | Criteria satisfied:                                  |
           | -> RMS NGWF gradient lower than set threshold.       |
           ========================================================

Reusing previously generated solute cavity.
MG BCs: +ve charge blocks (gridpoints):     29419 (   19262472).
MG BCs: -ve charge blocks (gridpoints):      8474 (    1044126).
MG BCs:     Elided blocks (gridpoints):    164495 (  170664027).
MG BCs: Computational effort saved:  99.9802%.
MG BCs: Charge after coarse-graining:           -9.0009754.
MG DL_MG: Calling solver with defect correction order = 8
MG DL_MG: Solver finished
MG Hartree energy from (\int phi*rho dr):              1235.950662
MG Hartree energy from (\int eps (grad phi)^2 dr):     1235.766586
MG Discrepancy due to finite box and discretization:     -0.184075 (  -0.01489%)
MG Correction to account for finite box:                  0.006488
MG Remaining discrepancy, due to discretization:         -0.177588 (  -0.01437%)

================================================================================
           ---------------- ENERGY COMPONENTS (Eh) ----------------
           | Kinetic                    :     8447.84398482733013 |
           | Pseudo. (local,OBC,corr'd) :    -5011.30606249419816 |
           | Pseudopotential (non-local):     1453.42358041505577 |
           | Hartree (molecular)        :     1235.95066155663130 |
           | Exchange-correlation       :    -3350.33943572904354 |
           | Ion-ion (open BC)          :   834180.51807424263097 |
           | Smeared ion non-self corr. :  -834132.22544542956166 |
           | Smeared ion self corr.     :   -14525.98710726666832 |
           | Solvent cavitation energy  :        2.28826089455551 |
           | Solute-solvent dis-rep en. :       -1.64508796361832 |
           | Total                      :   -11701.47857694687627 |
           --------------------------------------------------------
           ------ LOCAL ENERGY COMPONENTS FROM MATRIX TRACES ------
           | Pseudopotential (local)    :    -5011.30606249422272 |
           | Hartree                    :    -1994.04738802841871 |
           --------------------------------------------------------
           Integrated density           :     7227.99999999824558
           Integrated density tr(KS)    :     7227.99999999999818
================================================================================


                        <<<<< CALCULATION SUMMARY >>>>>                         
|ITER|    RMS GRADIENT   |     TOTAL ENERGY    |   step   |     Epredicted              
   0     0.00003914131574 -11701.42577821109444   0.543050 -11701.47144541456873        
   1     0.00001236893666 -11701.47746906802058   0.111019 -11701.47840136845844        
   2     0.00000540830524 -11701.47853962541558   0.019680 -11701.47857122265850        
   3     0.00000239144882 -11701.47857549949549   0.003914 -11701.47857672829196        
   4     0.00000106354438 -11701.47857694688719  <-- CG                                 

=================== Finished the calculation in solvent ========================
= Adjusting the following parameters: 
= read_denskern: F
= read_tightbox_ngwfs: F
= maxit_pen: 0 (restored to user-specified value)
= restart read filename prefix: ""
= restart write filename prefix: ""
================================================================================

================================================================================
IS: Calculation in solvent completed (NGWFs converged).      

Individual components of total energy in solvent:     hartree           kcal/mol
- Usual non-electrostatic DFT terms:    -12938.07241143445572    -8118762.838152
- Electrostatic fixed charge energy:      1235.95066155663130      775570.732775
- Apolar cavitation energy:                  2.28826089455551        1435.905359
- Apolar dispersion-repulsion energy:       -1.64508796361832       -1032.308260
 -------------------------------------------------------------------------------
- Total energy in solvent:              -11701.47857694688719    -7342788.508278

Components of total energy in solvent:                hartree           kcal/mol
- Usual non-electrostatic DFT terms:    -12938.07241143445572    -8118762.838152
- Electrostatic energy:                   1235.95066155663130      775570.732775
- Apolar energy terms:                       0.64317293093719         403.597099
 -------------------------------------------------------------------------------
- Total energy in solvent:              -11701.47857694688719    -7342788.508278

Calculation of free energy of solvation:              hartree           kcal/mol
- Total energy in solvent:         (+)  -11701.47857694688719    -7342788.508278
- Total energy in vacuum:          (-)  -11697.48322561872192    -7340281.387522
 -------------------------------------------------------------------------------
- Total free energy of solvation:           -3.99535132816527       -2507.120756

Components of polar term in f.e. of solvation:        hartree           kcal/mol
- Electrostatic:                            -4.92857441379169       -3092.727071
- Change in nonelectrostatic DFT terms:      0.29005015469011         182.009216
 -------------------------------------------------------------------------------
- Polar term in f.e. of solvation:          -4.63852425910159       -2910.717855

Components of free energy of solvation:               hartree           kcal/mol
- Polar term in f.e. of solvation: (+)      -4.63852425910159       -2910.717855
- Apolar (cavitation, dis., rep.): (+)       0.64317293093719         403.597099
 -------------------------------------------------------------------------------
- Total free energy of solvation:           -3.99535132816440       -2507.120756
================================================================================


------------------------------ TIMING INFORMATION ------------------------------
AVERAGE TIME:   72945.346s on     40 node(s)                                    
TOTAL TIME:     72945.347s on     40 node(s)                                    
================= AVERAGE TIMINGS FROM ALL NODES (CUMULATIVE) ==================
|| TAG                                    #calls    cpu time   %total  Gflops ||
|| work_imbalance                       :     1        0.00s   0.000%  ------ ||
|| parallel_prepare_fd_halos_request    :  2067        0.02s   0.000%  ------ ||
|| parallel_prepare_fd_halos_alloc      :  2067        0.04s   0.000%  ------ ||
|| sparse_set_to_garbage                :   218        0.05s   0.000%  ------ ||
|| parallel_prepare_fd_halos_satisfy    :  2067        0.06s   0.000%  ------ ||
|| ngwfs_initialise_from_radial         :     1        0.17s   0.000%  ------ ||
|| basis_extract_function_from_box      :  5721        0.23s   0.000%  ------ ||
|| pseudopotentials_nonlocal_mat        :    32        1.15s   0.002%  ------ ||
|| restart_ngwfs_tightbox_input         :     1        1.21s   0.002%  ------ ||
|| parallel_prepare_fd_halos_comms_imbal:  2067        3.32s   0.005%  ------ ||
|| openbc_locps_radial                  :     1        4.55s   0.006%  ------ ||
|| restart_kernel_read                  :     1        4.55s   0.006%  ------ ||
|| density_init_guess_real              :     1        6.06s   0.008%  ------ ||
|| parallel_prepare_fd_halos_clear      :  2067       14.74s   0.020%  ------ ||
|| restart_kernel_write                 :    18       17.18s   0.024%  ------ ||
|| sparse_init                          :     2       22.68s   0.031%  ------ ||
|| parallel_prepare_fd_halos_comms_wait :  2067       25.94s   0.036%  ------ ||
|| projectors_func_ovlp_box             :    32       26.24s   0.036%  ------ ||
|| function_ops_brappd_ketppd           :    32       29.53s   0.040%  ------ ||
|| projectors_init_fftbox_recip         :   219       29.68s   0.041%  ------ ||
|| parallel_prepare_fd_halos            :  2067       44.12s   0.060%  ------ ||
|| palser_mano_kernel_optimise          :     1       49.21s   0.067%  ------ ||
|| pseudo_make_structure_factor         :     2       53.93s   0.074%  ------ ||
|| ngwf_gradient_coeffs                 :    17       70.74s   0.097%  ------ ||
|| restart_ngwfs_tightbox_output        :    15       80.06s   0.110%  ------ ||
|| sparse_embed_hotelling_invert_embed  :    32      102.40s   0.140%  ------ ||
|| finite_difference_derivative         :  2067      113.04s   0.155%  ------ ||
|| basis_copy_function_to_box           : 176.9k     124.31s   0.170%  ------ ||
|| openbc_locps_on_grid                 :     2      192.96s   0.265%  ------ ||
|| integrals_kinetic                    :    32      194.37s   0.266%  ------ ||
|| projectors_gradient_batch            :   187      234.06s   0.321%  ------ ||
|| sparse_trace                         :  5255      285.91s   0.392%  ------ ||
|| fourier_apply_box_pair               : 49912      345.54s   0.474% 593.809 ||
|| kernel_purify                        :   526      389.22s   0.534%  ------ ||
|| basis_dot_function_with_box          : 20.36M     402.78s   0.552%  ------ ||
|| kernel_fix                           :   170      621.15s   0.852%  ------ ||
|| lnv_gradient_norm                    :   170      628.47s   0.862%  ------ ||
|| hamiltonian_energy_components        :     4      757.31s   1.038%  ------ ||
|| basis_add_function_to_box            : 54.45M    1030.10s   1.412%  ------ ||
|| integrals_locpot_mat_els_batch       :  1969     1031.77s   1.414%  ------ ||
|| ke_density_batch_grad_apply          :  3773     1143.95s   1.568%  ------ ||
|| ke_density_batch_row_sums            :  3773     1367.74s   1.875%  ------ ||
|| density_batch_row_sums               :  3773     1368.40s   1.876%  ------ ||
|| fourier_apply_cell_backward          :  9268     1629.17s   2.233%  76.395 ||
|| density_fftbox_deposit_to_cell       : 56252     1796.67s   2.463%  ------ ||
|| ke_density_fftbox_deposit_to_cell    : 56252     1863.13s   2.554%  ------ ||
|| fourier_apply_cell_forward           :  9266     1948.27s   2.671%  63.869 ||
|| cell_grid_deposit_box_real           : 114.6k    2127.93s   2.917%  ------ ||
|| sparse_product                       :  6851     2351.71s   3.224%  ------ ||
|| cell_grid_extract_box_real           : 140.2k    2405.15s   3.297%  ------ ||
|| multigrid_prepare_bound_cond         :   344     2631.71s   3.608%  ------ ||
|| ngwf_gradient_build_batch            :   187     2701.88s   3.704%  ------ ||
|| ngwf_gradient_batch                  :   187     3026.76s   4.149%  ------ ||
|| ngwf_gradient_lnv                    :    17     3222.66s   4.418%  ------ ||
|| potential_apply_to_ngwf_batch        :  1969     3756.66s   5.150%  ------ ||
|| density_fftbox_interpolate_multiply  : 56252     4113.14s   5.639%  ------ ||
|| xc_energy_potential                  :   344     4719.75s   6.470%  ------ ||
|| integrals_locpot_dbl_grid            :   179     4813.67s   6.599%  ------ ||
|| density_batch_interp_deposit         :  3773     6641.93s   9.105%  ------ ||
|| dl_mg_solver_calls                   :   344     7197.33s   9.867%  ------ ||
|| nlxc_vdw_energy                      :   686     7896.49s  10.825%  ------ ||
|| density_on_dbl_grid                  :   343     8487.86s  11.636%  ------ ||
|| multigrid_calculate_hartree          :   344     9996.56s  13.704%  ------ ||
|| potential_apply_to_fftbox_batch      :  5610    10053.41s  13.782%  ------ ||
|| integrals_div_locpot_grad_functions  :   170    15032.91s  20.608%  ------ ||
|| ke_density_fftbox_interpolate_multipl: 56252    16543.70s  22.680%  ------ ||
|| ke_density_batch_interp_deposit      :  3773    19165.95s  26.274%  ------ ||
|| fourier_apply_box                    : 1.276M   21510.80s  29.489% 807.433 ||
|| ke_density_on_dbl_grid               :   343    22219.32s  30.460%  ------ ||
|| hamiltonian_lhxc_calculate           :   339    45444.34s  62.299%  ------ ||
|| lnv_denskernel_optimise_cg           :    17    65551.41s  89.864%  ------ ||
|| ngwf_cg_optimise                     :     2    72144.77s  98.903%  ------ ||
|| total_time                           :     1    72945.35s 100.000%  ------ ||
================================================================================
Overhead of generating timer report: 
- 0 ms averaging over threads,
- 7 ms ensuring consistency across MPI ranks,
- 2 ms printing in order.

Job completed: 28-02-2020 20:42 (-0000)

