 +---------------------------------------------------------------+
 |                                                               |
 |        ####### #     # ####### ####### ####### ######         |
 |        #     # ##    # #          #    #       #     #        |
 |        #     # # #   # #          #    #       #     #        |
 |        #     # #  #  # #####      #    #####   ######         |
 |        #     # #   # # #          #    #       #              |
 |        #     # #    ## #          #    #       #              |
 |        ####### #     # #######    #    ####### #              |
 |                                                               |
 |        Linear-Scaling Ab Initio Total Energy Program          |
 |                                                               |
 |          Release for academic collaborators of ODG            |
 |                                             Version 5.3.2.6.  |
 |                                                               |
 +---------------------------------------------------------------+
 |                                                               |
 |  Authors:                                                     |
 |  Jacek Dziedzic, Peter D. Haynes, Nicholas D. M. Hine,        |
 |  Arash. A. Mostofi, Mike C. Payne and Chris-Kriton Skylaris   |
 |                                                               |
 |  Contributors:                                                |
 |  J. Aarons, L. Andrinopoulos, P. W. Avraam, R. A. Bell,       |
 |  A. Bhandari, G. A. Bramley, R. J. Charlton, S. J. Clark,     |
 |  R. J. Clements, G. C. Constantinescu, F. Corsetti,           |
 |  N. Corsini, O. Dieguez, S. M. M. Dubois, K. K. B. Duff,      |
 |  J. M. Escartin, A. Greco, H. Helal, Q. O. Hill, L. P. Lee,   |
 |  J.-H. Li, E. B. Linscott, G. Moynihan, D. D. O`Regan,        |
 |  O. K. Okan, M. J. S. Phipps, C. J. Pickard,                  |
 |  J. C. A. Prentice, M. I. J. Probert, L. E. Ratcliff,         |
 |  M. Robinson, A. Ruiz Serrano, J. S. Spencer, E. W. Tait,     |
 |  G. Teobaldi, D. Turban, V. Vitale, K. A. Wilkinson,          |
 |  C. Weber, J. C. Womack, N. Yeung and T. J. Zuehlsdorff       |
 |                                                               |
 |                                   Copyright (c) 2004-2019     |
 |                                                               |
 |  Please cite:                                                 |
 |  "Introducing ONETEP: Linear-scaling density functional       |
 |   simulations on parallel computers".                         |
 |   C.-K. Skylaris, P. D. Haynes, A. A. Mostofi, M. C. Payne.   |
 |   J. Chem. Phys. 122 084119 (2005).                           |
 |                                                               |
 |          in all publications arising from your use of ONETEP. |
 |                                                               |
 +---------------------------------------------------------------+
 |                                                               |
 |   ONETEP is based on developments described in the following  |
 |   publications:                                               |
 |                                                               |
 |  "Nonorthogonal generalized Wannier function pseudopotential  |
 |   plane-wave method".                                         |
 |   C.-K. Skylaris, A. A. Mostofi, P. D. Haynes, O. Dieguez,    |
 |   M. C. Payne.                                                |
 |   Phys. Rev. B 66 035119 (2002).                              |
 |                                                               |
 |  "Preconditioned iterative minimization for linear-scaling    |
 |   electronic structure calculations".                         |
 |   A. A. Mostofi, P. D. Haynes, C.-K. Skylaris, M. C. Payne.   |
 |   J. Chem. Phys. 119(17), pp.8842-8848 (2003).                |
 |                                                               |
 |  "Total-energy calculations on a real space grid with         |
 |   localized functions and a plane-wave basis".                |
 |   A. A. Mostofi, C.-K. Skylaris, P. D. Haynes, M. C. Payne.   |
 |   Comput. Phys. Commun. 147, pp.788-802 (2002).               |
 |                                                               |
 |  "Accurate kinetic energy evaluation in electronic structure  |
 |   calculations with localized functions on real space grids"  |
 |   C.-K. Skylaris, A. A. Mostofi, P. D. Haynes, C. J. Pickard, |
 |   M. C. Payne.                                                |
 |   Comput. Phys. Commun. 140, pp.315-322 (2001).               |
 |                                                               |
 |  "Accurate ionic forces and geometry optimization in linear-  |
 |   scaling density-functional theory with local orbitals"      |
 |   N. D. M. Hine, M. Robinson, P. D. Haynes, C.-K. Skylaris,   |
 |   M. C. Payne, and A. A. Mostofi.                             |
 |   Phys. Rev. B 83 195102 (2011).                              |
 |                                                               |
 +---------------------------------------------------------------+

Job started: 18-02-2020 09:39 (-0000)
 
Reading parameters from file "complex_26321.dat" ...... done

If your calculation crashes here, before "Checking processes and threads..."
is displayed, then your stack size is insufficient.
If so, use "ulimit -s unlimited" at runtime.
You can disable this check with "check_stack_size F".

Checking processes and threads...
   Determining the default number of threads...
      No default threads set at compilation time: defaulting to 1.
      OpenMP library call suggests 4 threads.
      Hybrid MPI-OpenMP compilation detected.
      Number of MPI processes > 1.
      OMP_NUM_THREADS environment variable present and
      its value matches the one obtained from the OpenMP library call.
      Using this value as default.
      Default threads: 4
      Default applies to threads_max and threads_num_fftboxes.
      Settings in the input file override this default.
   ... done

   Running with 40 MPI processes.
   There are 10 MPI processes running on the same node as the root process.
   Each MPI process is using: 
               1 threads for simulation cell FFTs.
               1 threads for parallel FFT box operations.
               4 threads for loops over batched FFT box operations.
               4 threads in other parallel regions.
... done

Basic input checks...... done

Reading geometry and species blocks from file "complex_26321.dat" ...
  <species_atomic_set> block not found: NGWF initialisation set to SOLVE
IS: Dielectric excluded regions:
    - NONE.
    
  Number of PPD points along a3 set to 1.  This is 
  the default value, it may have been provided also in the input file.
... done
 Writing xyz coordinates to file "complex_26321.xyz" ... done


--------------------------------------------------------------------------------
---------------------------------- INPUT FILE ----------------------------------
--------------------------------------------------------------------------------

cutoff_energy       : 800 eV                                                    
xc_functional B97M-V                                                            
task SINGLEPOINT                                                                
write_xyz true                                                                  
output_detail VERBOSE                                                           
ngwf_threshold_orig : 0.000002                                                  
kernel_cutoff       : 1000                                                      
k_zero              : 3.5                                                       
elec_cg_max 0                                                                   
occ_mix 1.0                                                                     
dispersion 0                                                                    
maxit_ngwf_cg 40                                                                
minit_lnv 10                                                                    
maxit_lnv 10                                                                    
write_denskern T                                                                
write_tightbox_ngwfs T                                                          
charge 9                                                                        
is_implicit_solvent T                                                           
is_auto_solvation T                                                             
is_include_apolar T                                                             
is_smeared_ion_rep T                                                            
is_solvent_surf_tension 4.7624E-5 Ha/bohr**2                                    
is_apolar_scaling_factor 0.281075                                               
is_solvation_beta 1.3                                                           
is_density_threshold 0.00035                                                    
is_bulk_permittivity 78.54                                                      
is_dielectric_model fix_initial                                                 
is_smeared_ion_width 0.8                                                        
mg_defco_fd_order 8                                                             
is_bc_coarseness 10                                                             
is_bc_surface_coarseness 1                                                      
fine_grid_scale 2.0                                                             
%block species                                                                  
N   N   7 4 8.0                                                                 
H   H   1 1 8.0                                                                 
C   C   6 4 8.0                                                                 
S   S  16 9 8.0                                                                 
O   O   8 4 8.0                                                                 
%endblock species                                                               
%block species_pot                                                              
N   N_00.recpot                                                                 
H   H_04.recpot                                                                 
C   C_01.recpot                                                                 
S   S_00.recpot                                                                 
O   O_02.recpot                                                                 
%endblock species_pot                                                           
%block lattice_cart                                                             
135.996   0.000   0.000                                                         
0.000 142.663   0.000                                                           
0.000   0.000   160.158                                                         
%endblock lattice_cart                                                          
%block positions_abs                                                            
     Hash =   000004254185258250598111
%endblock positions_abs                                                         

--------------------------------------------------------------------------------
-------------------------------- END INPUT FILE --------------------------------
--------------------------------------------------------------------------------


 
 ESDF WARNING(1): "kernelcutoff" (esdf_physical) has no units. Assume "bohr".
 ESDF WARNING(2): "kzero" (esdf_physical) has no units. Assume "1/bohr".
 ESDF WARNING(3
 ): "issmearedionwidth" (esdf_physical) has no units. Assume "bohr".
<<<<<<<<<<<<<<<<<<<<<<<<<<<<<<<<< Full system >>>>>>>>>>>>>>>>>>>>>>>>>>>>>>>>>>
<<<<<<<<<<<<<<<<<<<<<<<<< Pseudopotential information >>>>>>>>>>>>>>>>>>>>>>>>>>
File: N_00.recpot [ 2001 points up to Gmax=  52.9 (1/bohr)]
  Atomic number:  7;  ionic charge:  5.000000
    Shell 1: l = 0; rc = 1.48 bohr
File: H_04.recpot [ 2001 points up to Gmax=  52.9 (1/bohr)]
  Atomic number:  1;  ionic charge:  1.000000
    Local potential
File: C_01.recpot [ 2001 points up to Gmax=  52.9 (1/bohr)]
  Atomic number:  6;  ionic charge:  4.000000
    Shell 1: l = 0; rc = 1.48 bohr
File: S_00.recpot [ 2001 points up to Gmax=  52.9 (1/bohr)]
  Atomic number: 16;  ionic charge:  6.000000
    Shell 1: l = 0; rc = 1.90 bohr
    Shell 2: l = 2; rc = 1.84 bohr
File: O_02.recpot [ 2001 points up to Gmax=  52.9 (1/bohr)]
  Atomic number:  8;  ionic charge:  6.000000
    Shell 1: l = 0; rc = 1.31 bohr
<<<<<<<<<<<<<<<<<<<<<<<<<<<<<<<<<<<<<<<<>>>>>>>>>>>>>>>>>>>>>>>>>>>>>>>>>>>>>>>>

-------------------------- Atom counting information ---------------------------
Symbol    Natoms    Nngwfs    Nprojs
  N        236       944       236
  H       1317      1317         0
  C        816      3264       816
  S          6        54        36
  O        240       960       240
.......   ......    ......    ......
Totals:   2615      6539      1328
--------------------------------------------------------------------------------

=============================== PSINC grid sizes ===============================
                      Simulation cell:  270 x 286 x 315
                              FFT-box:   99 x 105 x  99
                                  PPD:    5 x  11 x   1
Grid space d1=  0.503688888889a0 (KE cutoff=  29.94189Eh = 814.76038eV)
Grid space d2=  0.498821678322a0 (KE cutoff=  30.52906Eh = 830.73786eV)
Grid space d3=  0.508438095238a0 (KE cutoff=  29.38514Eh = 799.61048eV)
================================================================================

********************* Fourier parallelisation information **********************
       Coarse grid (whole simulation cell) dimensions:    270   286   315
          Real-space ('12') slabs/node (min max mean):      7     8     7
         Recip-space ('23') slabs/node (min max mean):      3     4     3
********************************************************************************

********************* Fourier parallelisation information **********************
       Double grid (whole simulation cell) dimensions:    540   572   630
          Real-space ('12') slabs/node (min max mean):     15    16    15
         Recip-space ('23') slabs/node (min max mean):      6     7     6
********************************************************************************
ONETEP fine grid is 540 x 572 x 630 gridpoints, 135.9960 x 142.6630 x 160.1580 bohr.
FD multigrid is     537 x 569 x 625 gridpoints, 135.2405 x 141.9148 x 158.8869 bohr.


Calculating local pseudopotential in open BC on a radial grid ...
Discrepancy between calculated realspace psloc and -Z/x on [5a0,253.965a0]:
max |rel. diff| # avg |rel. diff| #  avg rel. diff #  f # pseudopotential file
 0.000259282084    0.000004141996   0.000000074978   54  'N_00.recpot'
 0.000405386992    0.000016970607  -0.000000075982   54  'H_04.recpot'
 0.000371694516    0.000017434762   0.000000149329   54  'C_01.recpot'
 0.000461642895    0.000020341726   0.000000491514   54  'S_00.recpot'
 0.000682525123    0.000027368244   0.000000159803   54  'O_02.recpot'
... done
 WARNING: meta-GGA functionality under development.
          Using this functional is experimental.
          Minimum tau threshold, xc_min_tau =   1.00000000E-12
 WARNING: Using alternative XC functional PBE for 
          radial densities (xc_radial).

Atom SCF Calculation for N  : Z (AE atom) =   7 : Z (PS atom) =   5
Config String:
Orbitals (num,occ):  2     2.00 3.00
Orbitals   (num,l):  2        0    1
Real-space Grid (nr,dr,rmax): 1203    0.0066555740    8.0000000000
Spherical Bessel Basis (nsws,lmax,cutoff):   47    1  176.3951722778
Confining potential (l,width,scale):  0    3.0000000000  100.0000000000
Confining potential (l,width,scale):  1    3.0000000000  100.0000000000
  1         -4.7312375307   -3.4155304497    7.0523828109   -1.9351020946
  2         -9.7309464766   -2.0532547791    8.2966052865   -2.2494486027
  3         -9.6627394379   -2.1124926340    8.2327997121   -2.2369778124
  4         -9.6814993499   -2.1215521045    8.2229805960   -2.2365178421
  5         -9.6843326483   -2.1250939529    8.2191374534   -2.2362718126
  6         -9.6859628709   -2.1267894855    8.2172963573   -2.2362066344
  7         -9.6867347035   -2.1276425665    8.2163697352   -2.2361903369
  8         -9.6870802100   -2.1280764625    8.2158983890   -2.2361891460
  9         -9.6872290423   -2.1282977424    8.2156580222   -2.2361920435
 10         -9.6872901988   -2.1284107021    8.2155353368   -2.2361953393
 11         -9.6873135296   -2.1284684031    8.2154726809   -2.2361979819
 12         -9.6873212476   -2.1284978948    8.2154406648   -2.2361998431
 13         -9.6873229586   -2.1285129774    8.2154242957   -2.2362010676
 14         -9.6873226456   -2.1285206957    8.2154159216   -2.2362018403
 15         -9.6873218534   -2.1285246479    8.2154116349   -2.2362023142
 16         -9.6873212599   -2.1285262679    8.2154098784   -2.2362025420
 17         -9.6873207834   -2.1285272564    8.2154088068   -2.2362026955
 18         -9.6873204210   -2.1285278597    8.2154081529   -2.2362027982
 19         -9.6873201550   -2.1285282280    8.2154077538   -2.2362028667
 20         -9.6873199645   -2.1285284529    8.2154075102   -2.2362029121
 21         -9.6873198305   -2.1285285903    8.2154073614   -2.2362029421
 22         -9.6873197377   -2.1285286742    8.2154072705   -2.2362029618
Atom SCF converged after  22 iterations to a total energy of     -9.68731974

Atom SCF Calculation for H  : Z (AE atom) =   1 : Z (PS atom) =   1
Config String:
Orbitals (num,occ):  1     1.00
Orbitals   (num,l):  1        0
Real-space Grid (nr,dr,rmax): 1203    0.0066555740    8.0000000000
Spherical Bessel Basis (nsws,lmax,cutoff):   47    0  176.3951722778
Confining potential (l,width,scale):  0    3.0000000000  100.0000000000
  1         -0.3194257691   -0.2393854593    0.2820953124   -0.2424203209
  2         -0.3951823392   -0.2377116493    0.2886404059   -0.2475147891
  3         -0.4317044583   -0.2352244387    0.2921333887   -0.2514046172
  4         -0.4470703708   -0.2341892222    0.2934391879   -0.2531009782
  5         -0.4532132900   -0.2338556667    0.2938388426   -0.2537313520
  6         -0.4556579251   -0.2337612552    0.2939448584   -0.2539550462
  7         -0.4566418315   -0.2337377355    0.2939680120   -0.2540342273
  8         -0.4570437922   -0.2337331116    0.2939708287   -0.2540627372
  9         -0.4572102946   -0.2337328328    0.2939698291   -0.2540732650
 10         -0.4572800424   -0.2337332404    0.2939687193   -0.2540772588
 11         -0.4573095100   -0.2337335791    0.2939680317   -0.2540788122
 12         -0.4573220379   -0.2337337762    0.2939676699   -0.2540794294
 13         -0.4573273880   -0.2337338775    0.2939674931   -0.2540796787
 14         -0.4573296803   -0.2337339266    0.2939674099   -0.2540797808
 15         -0.4573306647   -0.2337339495    0.2939673718   -0.2540798230
 16         -0.4573310882   -0.2337339601    0.2939673545   -0.2540798406
 17         -0.4573312706   -0.2337339649    0.2939673467   -0.2540798479
 18         -0.4573313493   -0.2337339670    0.2939673433   -0.2540798510
Atom SCF converged after  18 iterations to a total energy of     -0.45733135

Atom SCF Calculation for C  : Z (AE atom) =   6 : Z (PS atom) =   4
Config String:
Orbitals (num,occ):  2     2.00 2.00
Orbitals   (num,l):  2        0    1
Real-space Grid (nr,dr,rmax): 1203    0.0066555740    8.0000000000
Spherical Bessel Basis (nsws,lmax,cutoff):   47    1  176.3951722778
Confining potential (l,width,scale):  0    3.0000000000  100.0000000000
Confining potential (l,width,scale):  1    3.0000000000  100.0000000000
  1         -5.2976922011   -1.3069684169    4.5135249990   -1.4493313817
  2         -5.3721716256   -1.3429755895    4.4750154450   -1.4361613026
  3         -5.3809959565   -1.3617365618    4.4541655428   -1.4305930207
  4         -5.3918938866   -1.3667928461    4.4484735100   -1.4294652294
  5         -5.3956096428   -1.3688539142    4.4461376126   -1.4290734646
  6         -5.3968271862   -1.3696852393    4.4451910874   -1.4289366866
  7         -5.3972028401   -1.3700178062    4.4448112275   -1.4288900460
  8         -5.3973067903   -1.3701500158    4.4446598370   -1.4288749220
  9         -5.3973286940   -1.3702023868    4.4445997329   -1.4288704293
 10         -5.3973289850   -1.3702230869    4.4445759233   -1.4288693188
 11         -5.3973254264   -1.3702312560    4.4445665049   -1.4288691775
 12         -5.3973224003   -1.3702344755    4.4445627836   -1.4288692549
 13         -5.3973208708   -1.3702354890    4.4445616088   -1.4288693270
 14         -5.3973198783   -1.3702360102    4.4445610034   -1.4288693814
 15         -5.3973192535   -1.3702362780    4.4445606917   -1.4288694190
 16         -5.3973188684   -1.3702364155    4.4445605313   -1.4288694437
 17         -5.3973186349   -1.3702364860    4.4445604489   -1.4288694595
 18         -5.3973184951   -1.3702365221    4.4445604065   -1.4288694693
 19         -5.3973184122   -1.3702365405    4.4445603848   -1.4288694753
Atom SCF converged after  19 iterations to a total energy of     -5.39731841

Atom SCF Calculation for S  : Z (AE atom) =  16 : Z (PS atom) =   6
Config String:
Orbitals (num,occ):  3     2.00 4.00 0.00
Orbitals   (num,l):  3        0    1    2
Real-space Grid (nr,dr,rmax): 1203    0.0066555740    8.0000000000
Spherical Bessel Basis (nsws,lmax,cutoff):   47    2  176.3951722778
Confining potential (l,width,scale):  0    3.0000000000  100.0000000000
Confining potential (l,width,scale):  1    3.0000000000  100.0000000000
Confining potential (l,width,scale):  2    3.0000000000  100.0000000000
  1        -12.4735062396   -1.0328741412   10.1554312477   -2.4512393157
  2         -9.9458301913   -2.4607392455    8.3041325857   -2.0306994528
  3        -10.1450417646   -2.2931184565    8.4831893826   -2.0812538287
  4        -10.1528335592   -2.2733105793    8.5050388867   -2.0896035179
  5        -10.1571940363   -2.2633716629    8.5160794258   -2.0939370707
  6        -10.1594380571   -2.2584938667    8.5215163935   -2.0961289008
  7        -10.1605856507   -2.2561081821    8.5241804044   -2.0972291378
  8        -10.1611799191   -2.2549395235    8.5254868240   -2.0977806248
  9        -10.1614918752   -2.2543658586    8.5261285885   -2.0980571586
 10        -10.1616572884   -2.2540839121    8.5264441898   -2.0981959233
 11        -10.1617455602   -2.2539453058    8.5265994231   -2.0982656006
 12        -10.1617928447   -2.2538772062    8.5266757320   -2.0983006047
 13        -10.1618182292   -2.2538437891    8.5267131983   -2.0983181961
 14        -10.1618318741   -2.2538274201    8.5267315620   -2.0983270391
 15        -10.1618392144   -2.2538194197    8.5267405433   -2.0983314852
 16        -10.1618431651   -2.2538155200    8.5267449245   -2.0983337210
 17        -10.1618452923   -2.2538136252    8.5267470551   -2.0983348455
 18        -10.1618464380   -2.2538127080    8.5267480875   -2.0983354110
 19        -10.1618470552   -2.2538122659    8.5267485856   -2.0983356955
 20        -10.1618473878   -2.2538120540    8.5267488248   -2.0983358386
 21        -10.1618475670   -2.2538119530    8.5267489389   -2.0983359106
 22        -10.1618476637   -2.2538119053    8.5267489929   -2.0983359468
Atom SCF converged after  22 iterations to a total energy of    -10.16184766

Atom SCF Calculation for O  : Z (AE atom) =   8 : Z (PS atom) =   6
Config String:
Orbitals (num,occ):  2     2.00 4.00
Orbitals   (num,l):  2        0    1
Real-space Grid (nr,dr,rmax): 1203    0.0066555740    8.0000000000
Spherical Bessel Basis (nsws,lmax,cutoff):   47    1  176.3951722778
Confining potential (l,width,scale):  0    3.0000000000  100.0000000000
Confining potential (l,width,scale):  1    3.0000000000  100.0000000000
  1         -1.8735052164   -7.5539365035   10.1554312477   -2.4512393157
  2        -16.0318313751   -3.1285771268   13.6395848164   -3.2358799643
  3        -15.9524020423   -3.0762819706   13.6967272503   -3.2536856837
  4        -15.8521515939   -3.0781493909   13.6951909330   -3.2561700440
  5        -15.8357139793   -3.0748501933   13.6988803334   -3.2580493133
  6        -15.8246052853   -3.0740779781   13.6997881576   -3.2588327446
  7        -15.8189019501   -3.0737449687   13.7001869911   -3.2592378801
  8        -15.8159785510   -3.0736026016   13.7003615168   -3.2594475790
  9        -15.8144776168   -3.0735437994   13.7004360379   -3.2595560735
 10        -15.8137058024   -3.0735207882   13.7004667348   -3.2596122456
 11        -15.8133083127   -3.0735125946   13.7004786868   -3.2596413656
 12        -15.8131032938   -3.0735102195   13.7004828997   -3.2596564858
 13        -15.8129973902   -3.0735099286   13.7004840891   -3.2596643505
 14        -15.8129426040   -3.0735102506   13.7004842061   -3.2596684489
 15        -15.8129142203   -3.0735106556   13.7004840157   -3.2596705887
 16        -15.8128994940   -3.0735109855   13.7004837906   -3.2596717080
 17        -15.8128918425   -3.0735112169   13.7004836103   -3.2596722946
 18        -15.8128878614   -3.0735113674   13.7004834848   -3.2596726026
 19        -15.8128857871   -3.0735114608   13.7004834035   -3.2596727646
 20        -15.8128847048   -3.0735115170   13.7004833533   -3.2596728500
 21        -15.8128841394   -3.0735115501   13.7004833231   -3.2596728951
 22        -15.8128838436   -3.0735115693   13.7004833054   -3.2596729190
 23        -15.8128836887   -3.0735115802   13.7004832951   -3.2596729316
 24        -15.8128836074   -3.0735115864   13.7004832893   -3.2596729383
Atom SCF converged after  24 iterations to a total energy of    -15.81288361

========================== Calculation in vacuum ==============================
= Adjusting the following parameters: 
= is_implicit_solvent: F
= is_include_apolar: F
= write_denskern: T
= write_tightbox_ngwfs: T
= restart read filename prefix: ""
= restart write filename prefix: "vacuum_"
===============================================================================

Determining parallel strategy ...
... using space-filling curve
... NGWF load balancing: max    164;  min    163;  average    163
... Projector load balancing: max     36;  min     32;  average     33
... done
Calculating direct Ion-Ion energy ...
Ion-Ion Energy        :    836685.17052181309555
Basis initialisation ...... NGWF spheres initialised
... Projector spheres initialised
... NGWF tight boxes initialised
... Tight-boxes gathered
... NGWF basis size (local,global):    1270897  51100401
... Nonlocal pseudopotential projector initialisation
... done

========================== Sparse matrix information ===========================
                        Overlap matrix filling:   6.77%
                        Density kernel filling: 100.00%
              NGWF-Proj overlap matrix filling:   1.77%
                    Hamiltonian matrix filling:   7.66%
                  NGWF diagonal matrix filling:   0.05%
                             KS matrix filling: 100.00% 
                           KSKS matrix filling: 100.00% 
================================================================================

Sparse matrix initialisation ... done

Generating smeared ion density ... done
Smeared ion self correction:     -14525.987107
Smeared ion non-self correction: -836636.836797
NGWF initialisation ...... done
============ Calculation of NGWF S^-1 using Hotelling algorithm ================ 
         Iteration  |  Frobenius norm and Maximum abs value    (of I-S*S_n^-1)   
               1       0.78671451E+02     0.98228949E+00
               2       0.76805721E+02     0.96504937E+00
               3       0.73787626E+02     0.93189480E+00
               4       0.69503375E+02     0.87048945E+00
               5       0.64173846E+02     0.76737862E+00
               6       0.58191566E+02     0.70690769E+00
               7       0.52183193E+02     0.67104715E+00
               8       0.46626174E+02     0.64290046E+00
               9       0.40534519E+02     0.60407752E+00
              10       0.32237216E+02     0.53787428E+00
              11       0.21645328E+02     0.44926138E+00
              12       0.11045293E+02     0.31661388E+00
              13       0.36366711E+01     0.16019434E+00
              14       0.58113814E+00     0.41983825E-01
              15       0.29297810E-01     0.29398059E-02
              16       0.16675701E-03     0.23416539E-04
              17       0.86729614E-08     0.15769657E-08
              18       0.94037801E-13     0.46629367E-14
================================================================================
Calculating local pseudopotential in open BC on the fine real space grid ...
... done

MG BCs: +ve charge blocks (gridpoints):     20354 (   16030789).
MG BCs: -ve charge blocks (gridpoints):      8095 (    1089501).
MG BCs:     Elided blocks (gridpoints):    173560 (  173850335).
MG BCs: Computational effort saved:  99.9851%.
MG BCs: Charge after coarse-graining:           -9.0002215.
MG DL_MG: Calling solver with defect correction order = 8
MG DL_MG: Solver finished
MG Hartree energy from (\int phi*rho dr):              1470.817131
MG Hartree energy from (\int eps (grad phi)^2 dr):     1470.198894
MG Discrepancy due to finite box and discretization:     -0.618237 (  -0.04203%)
MG Correction to account for finite box:                  0.466893
MG Remaining discrepancy, due to discretization:         -0.151344 (  -0.01029%)
 WARNING: xc_energy_potential using alternative initial XC functional PBE.
Up spin density kernel initialisation ... 
======= Optimisation of K by Palser-Manolopoulos canonical purification ======== 
         Iteration  |  Band structure energy |    c_n   
               1       -2592.33096404206026    0.5272661
               2       -2768.91031400892189    0.5173882
               3       -2950.39588819051914    0.5155739
               4       -3102.45068260498374    0.5288329
               5       -3196.48773250255363    0.5641940
               6       -3236.15680615410793    0.6088696
               7       -3249.69651345931516    0.6211464
               8       -3255.55225182486856    0.6204074
               9       -3258.37825906252783    0.6341012
              10       -3259.55023007700220    0.6550600
              11       -3260.01450210597932    0.6707673
              12       -3260.21283457993877    0.6512450
              13       -3260.31799244082777    0.5798658
              14       -3260.38495579088885    0.4843722
              15       -3260.41314240588235    0.3974870
              16       -3260.41553412265375    0.3748754
              17       -3260.41675948801185    0.3829837
              18       -3260.41751145961825    0.4272962
              19       -3260.41810001544582    0.4711488
              20       -3260.41843489538587    0.4948902
              21       -3260.41851597915411    0.4998281
              22       -3260.41851982862408    0.5000004
              23       -3260.41851983699144    0.5000004
Termination criterion satisfied: band energy change below threshold.
Final occupancy bounds: [    0.00000000000000:    1.00000000000000]
Closest occupancy to 0.5:     1.00000000000000
================================================================================
... done

Writing density kernel to file "complex_26321.vacuum_dkn" ... done

>>> Optimising kernel for current NGWFs:
   Initial electron number for spin 1:    7228.00000000
     Final electron number for spin 1:    7228.00000000

=================== Penalty functional idempotency correction ==================
 RMS occupancy error at iteration   1:  0.000000 (step -0.5000 Ne1=   7228.0000)
            Final RMS occupancy error   :  0.000000 (Ne1=   7228.0000)
               Final occupancy bounds   : [  0.0000,  1.0000]
================================================================================

................................................................................
<<<<<<<<<<<<<< LNV (Original version) density kernel optimisation >>>>>>>>>>>>>>
~~~~~~~~~~~~~~~~~~~~~~~~~~~~~~~~~~~~~~~~~~~~~~~~~~~~~~~~~~~~~~~~~~~~~~~~~~~~~~~~
   iter  |      energy (Eh)       | rms gradient |  commutator  |   dE (Eh)
MG BCs: +ve charge blocks (gridpoints):     31012 (   17165004).
MG BCs: -ve charge blocks (gridpoints):      8418 (    1122860).
MG BCs:     Elided blocks (gridpoints):    162893 (  172682761).
MG BCs: Computational effort saved:  99.9794%.
MG BCs: Charge after coarse-graining:           -9.0009633.
MG DL_MG: Calling solver with defect correction order = 8
MG DL_MG: Solver finished
MG Hartree energy from (\int phi*rho dr):              1426.103610
MG Hartree energy from (\int eps (grad phi)^2 dr):     1425.424212
MG Discrepancy due to finite box and discretization:     -0.679398 (  -0.04764%)
MG Correction to account for finite box:                  0.484734
MG Remaining discrepancy, due to discretization:         -0.194664 (  -0.01365%)
      ideal mu1:      -0.728796194164
             Q0:  -11523.319485143060
             G0:    -127.767422944141
   RMS gradient:       0.001728616803
MG BCs: +ve charge blocks (gridpoints):     30951 (   17240338).
MG BCs: -ve charge blocks (gridpoints):      8336 (    1099819).
MG BCs:     Elided blocks (gridpoints):    162949 (  172630468).
MG BCs: Computational effort saved:  99.9794%.
MG BCs: Charge after coarse-graining:           -9.0009870.
MG DL_MG: Calling solver with defect correction order = 8
MG DL_MG: Solver finished
MG Hartree energy from (\int phi*rho dr):              1447.911499
MG Hartree energy from (\int eps (grad phi)^2 dr):     1447.250280
MG Discrepancy due to finite box and discretization:     -0.661219 (  -0.04567%)
MG Correction to account for finite box:                  0.482145
MG Remaining discrepancy, due to discretization:         -0.179075 (  -0.01237%)
     Trial step:       0.500000000000
             Q1:  -11535.867054282688
 Quadratic coef:      51.336142332442
 Linear coef   :     -63.883711472071
           Qmin:  -11543.194023850207
Quadratic minimum step length (  0.311104947555) accepted
    Initial Ne1:    7228.00000000
      Final Ne1:    7228.00000000

=================== Penalty functional idempotency correction ==================
 RMS occupancy error at iteration   1:  0.003247 (step -0.4890 Ne1=   7228.0000)
 RMS occupancy error at iteration   2:  0.000026 (step -0.5001 Ne1=   7228.0000)
            Final RMS occupancy error   :  0.000000 (Ne1=   7228.0000)
               Final occupancy bounds   : [  0.0000,  1.0000]
================================================================================

    1        -1.152331948514E+04     1.7286E-03     1.5638E-03
MG BCs: +ve charge blocks (gridpoints):     30978 (   17213998).
MG BCs: -ve charge blocks (gridpoints):      8380 (    1108487).
MG BCs:     Elided blocks (gridpoints):    162921 (  172648140).
MG BCs: Computational effort saved:  99.9794%.
MG BCs: Charge after coarse-graining:           -9.0009776.
MG DL_MG: Calling solver with defect correction order = 8
MG DL_MG: Solver finished
MG Hartree energy from (\int phi*rho dr):              1433.083255
MG Hartree energy from (\int eps (grad phi)^2 dr):     1432.416004
MG Discrepancy due to finite box and discretization:     -0.667251 (  -0.04656%)
MG Correction to account for finite box:                  0.483016
MG Remaining discrepancy, due to discretization:         -0.184234 (  -0.01286%)
      ideal mu1:      -0.775057977321
             Q0:  -11543.584150387091
             G0:     -11.596680887054
   RMS gradient:       0.000516969453
MG BCs: +ve charge blocks (gridpoints):     30975 (   17230399).
MG BCs: -ve charge blocks (gridpoints):      8348 (    1101729).
MG BCs:     Elided blocks (gridpoints):    162923 (  172638497).
MG BCs: Computational effort saved:  99.9794%.
MG BCs: Charge after coarse-graining:           -9.0009827.
MG DL_MG: Calling solver with defect correction order = 8
MG DL_MG: Solver finished
MG Hartree energy from (\int phi*rho dr):              1438.552722
MG Hartree energy from (\int eps (grad phi)^2 dr):     1437.890112
MG Discrepancy due to finite box and discretization:     -0.662610 (  -0.04606%)
MG Correction to account for finite box:                  0.481431
MG Remaining discrepancy, due to discretization:         -0.181179 (  -0.01259%)
     Trial step:       0.394401411987
             Q1:  -11546.234708487405
 Quadratic coef:       1.923189215906
 Linear coef   :      -4.573747316220
           Qmin:  -11546.303482985726
Quadratic minimum step length (  0.468984638815) accepted
    Initial Ne1:    7227.99986609
      Final Ne1:    7228.00000000

=================== Penalty functional idempotency correction ==================
 RMS occupancy error at iteration   1:  0.001563 (step -0.4942 Ne1=   7228.0000)
 RMS occupancy error at iteration   2:  0.000009 (step -0.5002 Ne1=   7228.0000)
            Final RMS occupancy error   :  0.000000 (Ne1=   7228.0000)
               Final occupancy bounds   : [  0.0000,  1.0000]
================================================================================

    2        -1.154358415039E+04     5.1697E-04     4.6769E-04    -2.0265E+01
MG BCs: +ve charge blocks (gridpoints):     30974 (   17233509).
MG BCs: -ve charge blocks (gridpoints):      8346 (    1100446).
MG BCs:     Elided blocks (gridpoints):    162924 (  172636670).
MG BCs: Computational effort saved:  99.9794%.
MG BCs: Charge after coarse-graining:           -9.0009837.
MG DL_MG: Calling solver with defect correction order = 8
MG DL_MG: Solver finished
MG Hartree energy from (\int phi*rho dr):              1439.617419
MG Hartree energy from (\int eps (grad phi)^2 dr):     1438.955639
MG Discrepancy due to finite box and discretization:     -0.661780 (  -0.04597%)
MG Correction to account for finite box:                  0.481142
MG Remaining discrepancy, due to discretization:         -0.180637 (  -0.01255%)
      ideal mu1:      -0.799081580770
             Q0:  -11546.339681935729
             G0:      -1.935104761344
   RMS gradient:       0.000211216506
MG BCs: +ve charge blocks (gridpoints):     30973 (   17234382).
MG BCs: -ve charge blocks (gridpoints):      8346 (    1100481).
MG BCs:     Elided blocks (gridpoints):    162925 (  172635762).
MG BCs: Computational effort saved:  99.9794%.
MG BCs: Charge after coarse-graining:           -9.0009841.
MG DL_MG: Calling solver with defect correction order = 8
MG DL_MG: Solver finished
MG Hartree energy from (\int phi*rho dr):              1438.886679
MG Hartree energy from (\int eps (grad phi)^2 dr):     1438.225699
MG Discrepancy due to finite box and discretization:     -0.660980 (  -0.04594%)
MG Correction to account for finite box:                  0.480548
MG Remaining discrepancy, due to discretization:         -0.180432 (  -0.01254%)
     Trial step:       0.430079299373
             Q1:  -11546.841576785780
 Quadratic coef:       0.330353649921
 Linear coef   :      -0.832248499972
           Qmin:  -11546.863845635655
Quadratic minimum step length (  0.541741936041) accepted
    Initial Ne1:    7227.99992028
      Final Ne1:    7228.00000000

=================== Penalty functional idempotency correction ==================
 RMS occupancy error at iteration   1:  0.000627 (step -0.4971 Ne1=   7228.0000)
 RMS occupancy error at iteration   2:  0.000003 (step -0.5000 Ne1=   7228.0000)
            Final RMS occupancy error   :  0.000000 (Ne1=   7228.0000)
               Final occupancy bounds   : [  0.0000,  1.0000]
================================================================================

    3        -1.154633968194E+04     2.1122E-04     1.9108E-04    -2.7555E+00
MG BCs: +ve charge blocks (gridpoints):     30975 (   17234685).
MG BCs: -ve charge blocks (gridpoints):      8343 (    1100482).
MG BCs:     Elided blocks (gridpoints):    162923 (  172635458).
MG BCs: Computational effort saved:  99.9794%.
MG BCs: Charge after coarse-graining:           -9.0009842.
MG DL_MG: Calling solver with defect correction order = 8
MG DL_MG: Solver finished
MG Hartree energy from (\int phi*rho dr):              1438.702431
MG Hartree energy from (\int eps (grad phi)^2 dr):     1438.041646
MG Discrepancy due to finite box and discretization:     -0.660786 (  -0.04593%)
MG Correction to account for finite box:                  0.480395
MG Remaining discrepancy, due to discretization:         -0.180390 (  -0.01254%)
      ideal mu1:      -0.802434819697
             Q0:  -11546.868943072506
             G0:      -0.460895526161
   RMS gradient:       0.000103284331
MG BCs: +ve charge blocks (gridpoints):     30975 (   17235306).
MG BCs: -ve charge blocks (gridpoints):      8343 (    1100308).
MG BCs:     Elided blocks (gridpoints):    162923 (  172635011).
MG BCs: Computational effort saved:  99.9794%.
MG BCs: Charge after coarse-graining:           -9.0009842.
MG DL_MG: Calling solver with defect correction order = 8
MG DL_MG: Solver finished
MG Hartree energy from (\int phi*rho dr):              1439.809551
MG Hartree energy from (\int eps (grad phi)^2 dr):     1439.148765
MG Discrepancy due to finite box and discretization:     -0.660786 (  -0.04589%)
MG Correction to account for finite box:                  0.480244
MG Remaining discrepancy, due to discretization:         -0.180542 (  -0.01254%)
     Trial step:       0.482692440684
             Q1:  -11546.990634011687
 Quadratic coef:       0.100779847242
 Linear coef   :      -0.222470786423
           Qmin:  -11546.991718736903
Quadratic minimum step length (  0.532770041919) accepted
    Initial Ne1:    7227.99998127
      Final Ne1:    7228.00000000

=================== Penalty functional idempotency correction ==================
 RMS occupancy error at iteration   1:  0.000270 (step -0.4964 Ne1=   7228.0000)
 RMS occupancy error at iteration   2:  0.000002 (step -0.5000 Ne1=   7228.0000)
            Final RMS occupancy error   :  0.000000 (Ne1=   7228.0000)
               Final occupancy bounds   : [  0.0000,  1.0000]
================================================================================

    4        -1.154686894307E+04     1.0328E-04     9.3439E-05    -5.2926E-01
MG BCs: +ve charge blocks (gridpoints):     30975 (   17235380).
MG BCs: -ve charge blocks (gridpoints):      8342 (    1100268).
MG BCs:     Elided blocks (gridpoints):    162923 (  172634977).
MG BCs: Computational effort saved:  99.9794%.
MG BCs: Charge after coarse-graining:           -9.0009842.
MG DL_MG: Calling solver with defect correction order = 8
MG DL_MG: Solver finished
MG Hartree energy from (\int phi*rho dr):              1439.924912
MG Hartree energy from (\int eps (grad phi)^2 dr):     1439.264125
MG Discrepancy due to finite box and discretization:     -0.660787 (  -0.04589%)
MG Correction to account for finite box:                  0.480229
MG Remaining discrepancy, due to discretization:         -0.180559 (  -0.01254%)
      ideal mu1:      -0.802406132544
             Q0:  -11546.992311518174
             G0:      -0.177233550241
   RMS gradient:       0.000064229473
MG BCs: +ve charge blocks (gridpoints):     30977 (   17234945).
MG BCs: -ve charge blocks (gridpoints):      8345 (    1100497).
MG BCs:     Elided blocks (gridpoints):    162921 (  172635183).
MG BCs: Computational effort saved:  99.9794%.
MG BCs: Charge after coarse-graining:           -9.0009839.
MG DL_MG: Calling solver with defect correction order = 8
MG DL_MG: Solver finished
MG Hartree energy from (\int phi*rho dr):              1439.574259
MG Hartree energy from (\int eps (grad phi)^2 dr):     1438.913320
MG Discrepancy due to finite box and discretization:     -0.660939 (  -0.04591%)
MG Correction to account for finite box:                  0.480222
MG Remaining discrepancy, due to discretization:         -0.180717 (  -0.01255%)
     Trial step:       0.507113470396
             Q1:  -11547.047534004087
 Quadratic coef:       0.034655034820
 Linear coef   :      -0.089877520734
           Qmin:  -11547.050585653340
Quadratic minimum step length (  0.657597109424) accepted
    Initial Ne1:    7227.99999100
      Final Ne1:    7228.00000000

=================== Penalty functional idempotency correction ==================
 RMS occupancy error at iteration   1:  0.000364 (step -0.4823 Ne1=   7228.0000)
 RMS occupancy error at iteration   2:  0.000006 (step -0.5001 Ne1=   7228.0000)
            Final RMS occupancy error   :  0.000000 (Ne1=   7228.0000)
               Final occupancy bounds   : [  0.0000,  1.0000]
================================================================================

    5        -1.154699231152E+04     6.4229E-05     5.8107E-05    -1.2337E-01
MG BCs: +ve charge blocks (gridpoints):     30977 (   17234879).
MG BCs: -ve charge blocks (gridpoints):      8345 (    1100515).
MG BCs:     Elided blocks (gridpoints):    162921 (  172635231).
MG BCs: Computational effort saved:  99.9794%.
MG BCs: Charge after coarse-graining:           -9.0009838.
MG DL_MG: Calling solver with defect correction order = 8
MG DL_MG: Solver finished
MG Hartree energy from (\int phi*rho dr):              1439.469572
MG Hartree energy from (\int eps (grad phi)^2 dr):     1438.808588
MG Discrepancy due to finite box and discretization:     -0.660984 (  -0.04592%)
MG Correction to account for finite box:                  0.480219
MG Remaining discrepancy, due to discretization:         -0.180765 (  -0.01256%)
      ideal mu1:      -0.801801050622
             Q0:  -11547.050375882885
             G0:      -0.147229807072
   RMS gradient:       0.000058846780
MG BCs: +ve charge blocks (gridpoints):     30978 (   17234463).
MG BCs: -ve charge blocks (gridpoints):      8347 (    1100825).
MG BCs:     Elided blocks (gridpoints):    162920 (  172635337).
MG BCs: Computational effort saved:  99.9794%.
MG BCs: Charge after coarse-graining:           -9.0009836.
MG DL_MG: Calling solver with defect correction order = 8
MG DL_MG: Solver finished
MG Hartree energy from (\int phi*rho dr):              1438.433630
MG Hartree energy from (\int eps (grad phi)^2 dr):     1437.772675
MG Discrepancy due to finite box and discretization:     -0.660955 (  -0.04595%)
MG Correction to account for finite box:                  0.480155
MG Remaining discrepancy, due to discretization:         -0.180800 (  -0.01257%)
     Trial step:       0.577474113950
             Q1:  -11547.118744630483
 Quadratic coef:       0.016652654789
 Linear coef   :      -0.085021402386
           Qmin:  -11547.158896700665
Quadratic minimum step length (  1.474169122921) accepted
    Initial Ne1:    7227.99993748
      Final Ne1:    7228.00000000

=================== Penalty functional idempotency correction ==================
 RMS occupancy error at iteration   1:  0.004084 (step -0.3350 Ne1=   7228.0000)
 RMS occupancy error at iteration   2:  0.000247 (step -0.4956 Ne1=   7228.0000)
 RMS occupancy error at iteration   3:  0.000005 (step -0.5000 Ne1=   7228.0000)
            Final RMS occupancy error   :  0.000000 (Ne1=   7228.0000)
               Final occupancy bounds   : [  0.0000,  1.0000]
================================================================================

    6        -1.154705037588E+04     5.8847E-05     5.3237E-05    -5.8064E-02
MG BCs: +ve charge blocks (gridpoints):     30978 (   17233708).
MG BCs: -ve charge blocks (gridpoints):      8352 (    1101399).
MG BCs:     Elided blocks (gridpoints):    162920 (  172635518).
MG BCs: Computational effort saved:  99.9794%.
MG BCs: Charge after coarse-graining:           -9.0009832.
MG DL_MG: Calling solver with defect correction order = 8
MG DL_MG: Solver finished
MG Hartree energy from (\int phi*rho dr):              1436.840436
MG Hartree energy from (\int eps (grad phi)^2 dr):     1436.179500
MG Discrepancy due to finite box and discretization:     -0.660936 (  -0.04600%)
MG Correction to account for finite box:                  0.480080
MG Remaining discrepancy, due to discretization:         -0.180856 (  -0.01259%)
      ideal mu1:      -0.802325359191
             Q0:  -11547.125121063087
             G0:      -0.403341975867
   RMS gradient:       0.000097123735
MG BCs: +ve charge blocks (gridpoints):     30974 (   17237283).
MG BCs: -ve charge blocks (gridpoints):      8338 (    1099151).
MG BCs:     Elided blocks (gridpoints):    162924 (  172634191).
MG BCs: Computational effort saved:  99.9794%.
MG BCs: Charge after coarse-graining:           -9.0009846.
MG DL_MG: Calling solver with defect correction order = 8
MG DL_MG: Solver finished
MG Hartree energy from (\int phi*rho dr):              1442.170268
MG Hartree energy from (\int eps (grad phi)^2 dr):     1441.509477
MG Discrepancy due to finite box and discretization:     -0.660791 (  -0.04582%)
MG Correction to account for finite box:                  0.480030
MG Remaining discrepancy, due to discretization:         -0.180761 (  -0.01253%)
     Trial step:       0.922656224209
             Q1:  -11547.198802327155
 Quadratic coef:       0.298464720450
 Linear coef   :      -0.372145984519
           Qmin:  -11547.241125254122
Quadratic minimum step length (  0.575215067986) accepted
    Initial Ne1:    7227.99999827
      Final Ne1:    7228.00000000

=================== Penalty functional idempotency correction ==================
 RMS occupancy error at iteration   1:  0.000152 (step -0.4914 Ne1=   7228.0000)
 RMS occupancy error at iteration   2:  0.000001 (step -0.5000 Ne1=   7228.0000)
            Final RMS occupancy error   :  0.000000 (Ne1=   7228.0000)
               Final occupancy bounds   : [  0.0000,  1.0000]
================================================================================

    7        -1.154712512106E+04     9.7124E-05     8.7866E-05    -7.4745E-02
MG BCs: +ve charge blocks (gridpoints):     30978 (   17235954).
MG BCs: -ve charge blocks (gridpoints):      8343 (    1099978).
MG BCs:     Elided blocks (gridpoints):    162920 (  172634693).
MG BCs: Computational effort saved:  99.9794%.
MG BCs: Charge after coarse-graining:           -9.0009841.
MG DL_MG: Calling solver with defect correction order = 8
MG DL_MG: Solver finished
MG Hartree energy from (\int phi*rho dr):              1440.153066
MG Hartree energy from (\int eps (grad phi)^2 dr):     1439.492224
MG Discrepancy due to finite box and discretization:     -0.660842 (  -0.04589%)
MG Correction to account for finite box:                  0.480048
MG Remaining discrepancy, due to discretization:         -0.180795 (  -0.01255%)
      ideal mu1:      -0.803918291717
             Q0:  -11547.241404421744
             G0:      -0.231325585769
   RMS gradient:       0.000073461924
MG BCs: +ve charge blocks (gridpoints):     30974 (   17235738).
MG BCs: -ve charge blocks (gridpoints):      8345 (    1100037).
MG BCs:     Elided blocks (gridpoints):    162924 (  172634850).
MG BCs: Computational effort saved:  99.9794%.
MG BCs: Charge after coarse-graining:           -9.0009843.
MG DL_MG: Calling solver with defect correction order = 8
MG DL_MG: Solver finished
MG Hartree energy from (\int phi*rho dr):              1439.788848
MG Hartree energy from (\int eps (grad phi)^2 dr):     1439.128179
MG Discrepancy due to finite box and discretization:     -0.660669 (  -0.04589%)
MG Correction to account for finite box:                  0.480097
MG Remaining discrepancy, due to discretization:         -0.180572 (  -0.01254%)
     Trial step:       0.728509274297
             Q1:  -11547.339995904476
 Quadratic coef:       0.069931351882
 Linear coef   :      -0.168522834615
           Qmin:  -11547.342932366730
Quadratic minimum step length (  0.877792611214) accepted
    Initial Ne1:    7227.99999842
      Final Ne1:    7228.00000000

=================== Penalty functional idempotency correction ==================
 RMS occupancy error at iteration   1:  0.001181 (step -0.4377 Ne1=   7228.0000)
 RMS occupancy error at iteration   2:  0.000020 (step -0.4998 Ne1=   7228.0000)
            Final RMS occupancy error   :  0.000000 (Ne1=   7228.0000)
               Final occupancy bounds   : [ -0.0000,  1.0000]
================================================================================

    8        -1.154724140442E+04     7.3462E-05     6.6459E-05    -1.1628E-01
MG BCs: +ve charge blocks (gridpoints):     30973 (   17235728).
MG BCs: -ve charge blocks (gridpoints):      8345 (    1100070).
MG BCs:     Elided blocks (gridpoints):    162925 (  172634827).
MG BCs: Computational effort saved:  99.9794%.
MG BCs: Charge after coarse-graining:           -9.0009843.
MG DL_MG: Calling solver with defect correction order = 8
MG DL_MG: Solver finished
MG Hartree energy from (\int phi*rho dr):              1439.717543
MG Hartree energy from (\int eps (grad phi)^2 dr):     1439.056910
MG Discrepancy due to finite box and discretization:     -0.660633 (  -0.04589%)
MG Correction to account for finite box:                  0.480106
MG Remaining discrepancy, due to discretization:         -0.180527 (  -0.01254%)
      ideal mu1:      -0.803408515797
             Q0:  -11547.341491981060
             G0:      -0.231308172169
   RMS gradient:       0.000074048467
MG BCs: +ve charge blocks (gridpoints):     30974 (   17234593).
MG BCs: -ve charge blocks (gridpoints):      8349 (    1100714).
MG BCs:     Elided blocks (gridpoints):    162924 (  172635318).
MG BCs: Computational effort saved:  99.9794%.
MG BCs: Charge after coarse-graining:           -9.0009840.
MG DL_MG: Calling solver with defect correction order = 8
MG DL_MG: Solver finished
MG Hartree energy from (\int phi*rho dr):              1438.009643
MG Hartree energy from (\int eps (grad phi)^2 dr):     1437.348926
MG Discrepancy due to finite box and discretization:     -0.660717 (  -0.04595%)
MG Correction to account for finite box:                  0.480362
MG Remaining discrepancy, due to discretization:         -0.180355 (  -0.01254%)
     Trial step:       0.799674970334
             Q1:  -11547.408637247980
 Quadratic coef:       0.117826088797
 Linear coef   :      -0.184971355717
           Qmin:  -11547.414087114246
Quadratic minimum step length (  0.627691901283) accepted
    Initial Ne1:    7228.00003911
      Final Ne1:    7228.00000000

=================== Penalty functional idempotency correction ==================
 RMS occupancy error at iteration   1:  0.002488 (step -0.3855 Ne1=   7228.0000)
 RMS occupancy error at iteration   2:  0.000065 (step -0.4992 Ne1=   7228.0000)
 RMS occupancy error at iteration   3:  0.000000 (step -0.5000 Ne1=   7228.0000)
            Final RMS occupancy error   :  0.000000 (Ne1=   7228.0000)
               Final occupancy bounds   : [  0.0000,  1.0000]
================================================================================

    9        -1.154734149198E+04     7.4048E-05     6.6990E-05    -1.0009E-01
MG BCs: +ve charge blocks (gridpoints):     30975 (   17234815).
MG BCs: -ve charge blocks (gridpoints):      8348 (    1100580).
MG BCs:     Elided blocks (gridpoints):    162923 (  172635230).
MG BCs: Computational effort saved:  99.9794%.
MG BCs: Charge after coarse-graining:           -9.0009841.
MG DL_MG: Calling solver with defect correction order = 8
MG DL_MG: Solver finished
MG Hartree energy from (\int phi*rho dr):              1438.372444
MG Hartree energy from (\int eps (grad phi)^2 dr):     1437.711740
MG Discrepancy due to finite box and discretization:     -0.660704 (  -0.04593%)
MG Correction to account for finite box:                  0.480315
MG Remaining discrepancy, due to discretization:         -0.180389 (  -0.01254%)
      ideal mu1:      -0.802791621651
   10        -1.154741672000E+04     5.7894E-05     5.2376E-05    -7.5228E-02
Finished density kernel iterations (  10)

Writing density kernel to file "complex_26321.vacuum_dkn" ... done


>>> Density kernel optimised for the current NGWF basis:
     ~~~~~~~~~~~~~~~~~~~~~~~~~~~~~~~~~~~~~~~~~~~~~~~~~~~~~~~~~~~
     Total energy                =  -1.15474167199975E+04  Eh
     Estimated bandgap           =  -4.5073E-01  Eh
     RMS occupancy error         =   1.6415E-11
     [H,K] commutator            =   5.2376E-05
     Occupancy bounds            = [  0.000:  1.000]
     ~~~~~~~~~~~~~~~~~~~~~~~~~~~~~~~~~~~~~~~~~~~~~~~~~~~~~~~~~~~




################################################################################
########################### NGWF CG iteration  001 #############################
################################################################################
****** Reciprocal space K.E. preconditioning with k_zero =  3.5000 a0^-1 *******

>>> Checking for convergence of NGWFs:   NOT CONVERGED
  ========================================================================
         NGWF RMS gradient =  1.6458E-03 >  2.0000E-06  | above tolerance
  ========================================================================

>>> Improving NGWFs using line search:
============ Calculation of NGWF S^-1 using Hotelling algorithm ================ 
         Iteration  |  Frobenius norm and Maximum abs value    (of I-S*S_n^-1)   
               1       0.23925000E+00     0.64771079E-02
               2       0.13247624E-02     0.56972262E-04
               3       0.68002209E-07     0.45837873E-08
               4       0.13378504E-12     0.73274720E-14
================================================================================
MG BCs: +ve charge blocks (gridpoints):     30430 (   17180507).
MG BCs: -ve charge blocks (gridpoints):      8347 (    1097322).
MG BCs:     Elided blocks (gridpoints):    163477 (  172692796).
MG BCs: Computational effort saved:  99.9797%.
MG BCs: Charge after coarse-graining:           -9.0009881.
MG DL_MG: Calling solver with defect correction order = 8
MG DL_MG: Solver finished
MG Hartree energy from (\int phi*rho dr):              1410.117485
MG Hartree energy from (\int eps (grad phi)^2 dr):     1409.458445
MG Discrepancy due to finite box and discretization:     -0.659041 (  -0.04674%)
MG Correction to account for finite box:                  0.480161
MG Remaining discrepancy, due to discretization:         -0.178880 (  -0.01269%)
============ Calculation of NGWF S^-1 using Hotelling algorithm ================ 
         Iteration  |  Frobenius norm and Maximum abs value    (of I-S*S_n^-1)   
               1       0.21726941E+01     0.51613692E-01
               2       0.97059793E-01     0.34205336E-02
               3       0.26913502E-03     0.15938768E-04
               4       0.36637324E-08     0.43510207E-09
               5       0.11652056E-12     0.53290705E-14
================================================================================
------------------------------- NGWF line search -------------------------------
RMS gradient                =       0.00164579408613
Trial step length           =               0.122474
Gradient along search dir.  =       -297.35492172296
Functional at step 0        =  -11547.41671999753453
Functional at step 1        =  -11580.98493111284915
Functional predicted        =  -11663.75139413926081
Selected quadratic step     =               0.782463
--------------------------- NGWF line search finished --------------------------
                                               
Writing NGWFs to file "complex_26321.vacuum_tightbox_ngwfs"....  done

>>> Optimising kernel for current NGWFs:
   Initial electron number for spin 1:    7274.38980340
     Final electron number for spin 1:    7228.00000000

=================== Penalty functional idempotency correction ==================
 RMS occupancy error at iteration   1:  0.005309 (step -0.4822 Ne1=   7228.0000)
 RMS occupancy error at iteration   2:  0.000100 (step -0.5003 Ne1=   7228.0000)
            Final RMS occupancy error   :  0.000000 (Ne1=   7228.0000)
               Final occupancy bounds   : [  0.0000,  1.0000]
================================================================================

................................................................................
<<<<<<<<<<<<<< LNV (Original version) density kernel optimisation >>>>>>>>>>>>>>
~~~~~~~~~~~~~~~~~~~~~~~~~~~~~~~~~~~~~~~~~~~~~~~~~~~~~~~~~~~~~~~~~~~~~~~~~~~~~~~~
   iter  |      energy (Eh)       | rms gradient |  commutator  |   dE (Eh)
MG BCs: +ve charge blocks (gridpoints):     24951 (   16936235).
MG BCs: -ve charge blocks (gridpoints):      8442 (    1066905).
MG BCs:     Elided blocks (gridpoints):    168963 (  172967485).
MG BCs: Computational effort saved:  99.9825%.
MG BCs: Charge after coarse-graining:           -9.0007295.
MG DL_MG: Calling solver with defect correction order = 8
MG DL_MG: Solver finished
MG Hartree energy from (\int phi*rho dr):              1279.877049
MG Hartree energy from (\int eps (grad phi)^2 dr):     1279.221958
MG Discrepancy due to finite box and discretization:     -0.655092 (  -0.05118%)
MG Correction to account for finite box:                  0.479444
MG Remaining discrepancy, due to discretization:         -0.175648 (  -0.01372%)
      ideal mu1:      -0.746636591360
             Q0:  -11663.115718109999
             G0:      -9.690494505447
   RMS gradient:       0.000476059934
MG BCs: +ve charge blocks (gridpoints):     25029 (   16947932).
MG BCs: -ve charge blocks (gridpoints):      8417 (    1063694).
MG BCs:     Elided blocks (gridpoints):    168885 (  172958999).
MG BCs: Computational effort saved:  99.9825%.
MG BCs: Charge after coarse-graining:           -9.0007259.
MG DL_MG: Calling solver with defect correction order = 8
MG DL_MG: Solver finished
MG Hartree energy from (\int phi*rho dr):              1293.135031
MG Hartree energy from (\int eps (grad phi)^2 dr):     1292.475628
MG Discrepancy due to finite box and discretization:     -0.659404 (  -0.05099%)
MG Correction to account for finite box:                  0.478658
MG Remaining discrepancy, due to discretization:         -0.180746 (  -0.01398%)
     Trial step:       0.708483946563
             Q1:  -11662.714568912401
 Quadratic coef:       7.266708988964
 Linear coef   :      -6.865559791365
           Qmin:  -11664.737356988080
Quadratic minimum step length (  0.334686506900) accepted
    Initial Ne1:    7227.99896251
      Final Ne1:    7228.00000000

=================== Penalty functional idempotency correction ==================
 RMS occupancy error at iteration   1:  0.000363 (step -0.4985 Ne1=   7228.0000)
 RMS occupancy error at iteration   2:  0.000000 (step -0.5000 Ne1=   7228.0000)
            Final RMS occupancy error   :  0.000000 (Ne1=   7228.0000)
               Final occupancy bounds   : [  0.0000,  1.0000]
================================================================================

    1        -1.166311571811E+04     4.7606E-04     4.3068E-04
MG BCs: +ve charge blocks (gridpoints):     24993 (   16941854).
MG BCs: -ve charge blocks (gridpoints):      8430 (    1065500).
MG BCs:     Elided blocks (gridpoints):    168921 (  172963271).
MG BCs: Computational effort saved:  99.9825%.
MG BCs: Charge after coarse-graining:           -9.0007277.
MG DL_MG: Calling solver with defect correction order = 8
MG DL_MG: Solver finished
MG Hartree energy from (\int phi*rho dr):              1285.225211
MG Hartree energy from (\int eps (grad phi)^2 dr):     1284.568177
MG Discrepancy due to finite box and discretization:     -0.657034 (  -0.05112%)
MG Correction to account for finite box:                  0.479048
MG Remaining discrepancy, due to discretization:         -0.177985 (  -0.01385%)
      ideal mu1:      -0.751864225495
             Q0:  -11664.718240674352
             G0:      -0.902717125708
   RMS gradient:       0.000145711656
MG BCs: +ve charge blocks (gridpoints):     24993 (   16940855).
MG BCs: -ve charge blocks (gridpoints):      8432 (    1066275).
MG BCs:     Elided blocks (gridpoints):    168921 (  172963495).
MG BCs: Computational effort saved:  99.9825%.
MG BCs: Charge after coarse-graining:           -9.0007277.
MG DL_MG: Calling solver with defect correction order = 8
MG DL_MG: Solver finished
MG Hartree energy from (\int phi*rho dr):              1285.671556
MG Hartree energy from (\int eps (grad phi)^2 dr):     1285.014356
MG Discrepancy due to finite box and discretization:     -0.657200 (  -0.05112%)
MG Correction to account for finite box:                  0.478905
MG Remaining discrepancy, due to discretization:         -0.178295 (  -0.01387%)
     Trial step:       0.486949707126
             Q1:  -11664.923436590820
 Quadratic coef:       0.234381923514
 Linear coef   :      -0.439577839981
           Qmin:  -11664.924345175188
Quadratic minimum step length (  0.456631418560) accepted
    Initial Ne1:    7227.99986738
      Final Ne1:    7228.00000000

=================== Penalty functional idempotency correction ==================
 RMS occupancy error at iteration   1:  0.000148 (step -0.4992 Ne1=   7228.0000)
 RMS occupancy error at iteration   2:  0.000000 (step -0.5000 Ne1=   7228.0000)
            Final RMS occupancy error   :  0.000000 (Ne1=   7228.0000)
               Final occupancy bounds   : [  0.0000,  1.0000]
================================================================================

    2        -1.166471824067E+04     1.4571E-04     1.3182E-04    -1.6025E+00
MG BCs: +ve charge blocks (gridpoints):     24994 (   16940953).
MG BCs: -ve charge blocks (gridpoints):      8433 (    1066222).
MG BCs:     Elided blocks (gridpoints):    168920 (  172963450).
MG BCs: Computational effort saved:  99.9825%.
MG BCs: Charge after coarse-graining:           -9.0007277.
MG DL_MG: Calling solver with defect correction order = 8
MG DL_MG: Solver finished
MG Hartree energy from (\int phi*rho dr):              1285.644142
MG Hartree energy from (\int eps (grad phi)^2 dr):     1284.986953
MG Discrepancy due to finite box and discretization:     -0.657189 (  -0.05112%)
MG Correction to account for finite box:                  0.478914
MG Remaining discrepancy, due to discretization:         -0.178275 (  -0.01387%)
      ideal mu1:      -0.752191768086
             Q0:  -11664.924754160340
             G0:      -0.188738065984
   RMS gradient:       0.000066371305
MG BCs: +ve charge blocks (gridpoints):     24988 (   16940100).
MG BCs: -ve charge blocks (gridpoints):      8433 (    1066605).
MG BCs:     Elided blocks (gridpoints):    168926 (  172963920).
MG BCs: Computational effort saved:  99.9825%.
MG BCs: Charge after coarse-graining:           -9.0007277.
MG DL_MG: Calling solver with defect correction order = 8
MG DL_MG: Solver finished
MG Hartree energy from (\int phi*rho dr):              1284.968079
MG Hartree energy from (\int eps (grad phi)^2 dr):     1284.311090
MG Discrepancy due to finite box and discretization:     -0.656989 (  -0.05113%)
MG Correction to account for finite box:                  0.478775
MG Remaining discrepancy, due to discretization:         -0.178215 (  -0.01387%)
     Trial step:       0.471546960050
             Q1:  -11664.982745886431
 Quadratic coef:       0.031007135169
 Linear coef   :      -0.088998861261
           Qmin:  -11664.988616858898
Quadratic minimum step length (  0.676733633194) accepted
    Initial Ne1:    7227.99995922
      Final Ne1:    7228.00000000

=================== Penalty functional idempotency correction ==================
 RMS occupancy error at iteration   1:  0.000159 (step -0.4936 Ne1=   7228.0000)
 RMS occupancy error at iteration   2:  0.000001 (step -0.5000 Ne1=   7228.0000)
            Final RMS occupancy error   :  0.000000 (Ne1=   7228.0000)
               Final occupancy bounds   : [  0.0000,  1.0000]
================================================================================

    3        -1.166492475416E+04     6.6371E-05     6.0045E-05    -2.0651E-01
MG BCs: +ve charge blocks (gridpoints):     24987 (   16939704).
MG BCs: -ve charge blocks (gridpoints):      8437 (    1066786).
MG BCs:     Elided blocks (gridpoints):    168927 (  172964135).
MG BCs: Computational effort saved:  99.9825%.
MG BCs: Charge after coarse-graining:           -9.0007278.
MG DL_MG: Calling solver with defect correction order = 8
MG DL_MG: Solver finished
MG Hartree energy from (\int phi*rho dr):              1284.673284
MG Hartree energy from (\int eps (grad phi)^2 dr):     1284.016382
MG Discrepancy due to finite box and discretization:     -0.656901 (  -0.05113%)
MG Correction to account for finite box:                  0.478712
MG Remaining discrepancy, due to discretization:         -0.178189 (  -0.01387%)
      ideal mu1:      -0.750982642480
             Q0:  -11664.988699092064
             G0:      -0.065316693206
   RMS gradient:       0.000039038176
MG BCs: +ve charge blocks (gridpoints):     24985 (   16939687).
MG BCs: -ve charge blocks (gridpoints):      8435 (    1066751).
MG BCs:     Elided blocks (gridpoints):    168929 (  172964187).
MG BCs: Computational effort saved:  99.9825%.
MG BCs: Charge after coarse-graining:           -9.0007278.
MG DL_MG: Calling solver with defect correction order = 8
MG DL_MG: Solver finished
MG Hartree energy from (\int phi*rho dr):              1284.711731
MG Hartree energy from (\int eps (grad phi)^2 dr):     1284.055082
MG Discrepancy due to finite box and discretization:     -0.656649 (  -0.05111%)
MG Correction to account for finite box:                  0.478556
MG Remaining discrepancy, due to discretization:         -0.178093 (  -0.01386%)
     Trial step:       0.564899714548
             Q1:  -11665.013643558370
 Quadratic coef:       0.011952915042
 Linear coef   :      -0.036897381348
           Qmin:  -11665.017173668048
Quadratic minimum step length (  0.871892760818) accepted
    Initial Ne1:    7227.99998163
      Final Ne1:    7228.00000000

=================== Penalty functional idempotency correction ==================
 RMS occupancy error at iteration   1:  0.000329 (step -0.4812 Ne1=   7228.0000)
 RMS occupancy error at iteration   2:  0.000003 (step -0.5000 Ne1=   7228.0000)
            Final RMS occupancy error   :  0.000000 (Ne1=   7228.0000)
               Final occupancy bounds   : [  0.0000,  1.0000]
================================================================================

    4        -1.166498869909E+04     3.9038E-05     3.5317E-05    -6.3945E-02
MG BCs: +ve charge blocks (gridpoints):     24983 (   16939654).
MG BCs: -ve charge blocks (gridpoints):      8434 (    1066800).
MG BCs:     Elided blocks (gridpoints):    168931 (  172964171).
MG BCs: Computational effort saved:  99.9825%.
MG BCs: Charge after coarse-graining:           -9.0007278.
MG DL_MG: Calling solver with defect correction order = 8
MG DL_MG: Solver finished
MG Hartree energy from (\int phi*rho dr):              1284.733755
MG Hartree energy from (\int eps (grad phi)^2 dr):     1284.077247
MG Discrepancy due to finite box and discretization:     -0.656508 (  -0.05110%)
MG Correction to account for finite box:                  0.478466
MG Remaining discrepancy, due to discretization:         -0.178041 (  -0.01386%)
      ideal mu1:      -0.751331489163
             Q0:  -11665.017043207539
             G0:      -0.071009823195
   RMS gradient:       0.000040801232
MG BCs: +ve charge blocks (gridpoints):     24985 (   16940988).
MG BCs: -ve charge blocks (gridpoints):      8433 (    1066368).
MG BCs:     Elided blocks (gridpoints):    168929 (  172963269).
MG BCs: Computational effort saved:  99.9825%.
MG BCs: Charge after coarse-graining:           -9.0007275.
MG DL_MG: Calling solver with defect correction order = 8
MG DL_MG: Solver finished
MG Hartree energy from (\int phi*rho dr):              1285.545773
MG Hartree energy from (\int eps (grad phi)^2 dr):     1284.889722
MG Discrepancy due to finite box and discretization:     -0.656051 (  -0.05103%)
MG Correction to account for finite box:                  0.478059
MG Remaining discrepancy, due to discretization:         -0.177993 (  -0.01385%)
     Trial step:       0.701806220906
             Q1:  -11665.046609759680
 Quadratic coef:       0.020268583523
 Linear coef   :      -0.049835135664
           Qmin:  -11665.047676092465
Quadratic minimum step length (  0.862778797266) accepted
    Initial Ne1:    7227.99997909
      Final Ne1:    7228.00000000

=================== Penalty functional idempotency correction ==================
 RMS occupancy error at iteration   1:  0.001184 (step -0.4373 Ne1=   7228.0000)
 RMS occupancy error at iteration   2:  0.000019 (step -0.4998 Ne1=   7228.0000)
            Final RMS occupancy error   :  0.000000 (Ne1=   7228.0000)
               Final occupancy bounds   : [ -0.0000,  1.0000]
================================================================================

    5        -1.166501704321E+04     4.0801E-05     3.6912E-05    -2.8344E-02
MG BCs: +ve charge blocks (gridpoints):     24985 (   16941283).
MG BCs: -ve charge blocks (gridpoints):      8433 (    1066247).
MG BCs:     Elided blocks (gridpoints):    168929 (  172963095).
MG BCs: Computational effort saved:  99.9825%.
MG BCs: Charge after coarse-graining:           -9.0007274.
MG DL_MG: Calling solver with defect correction order = 8
MG DL_MG: Solver finished
MG Hartree energy from (\int phi*rho dr):              1285.734322
MG Hartree energy from (\int eps (grad phi)^2 dr):     1285.078367
MG Discrepancy due to finite box and discretization:     -0.655955 (  -0.05102%)
MG Correction to account for finite box:                  0.477973
MG Remaining discrepancy, due to discretization:         -0.177982 (  -0.01384%)
      ideal mu1:      -0.752324018292
             Q0:  -11665.047834446887
             G0:      -0.073415371445
   RMS gradient:       0.000040806825
MG BCs: +ve charge blocks (gridpoints):     24986 (   16941341).
MG BCs: -ve charge blocks (gridpoints):      8433 (    1066326).
MG BCs:     Elided blocks (gridpoints):    168928 (  172962958).
MG BCs: Computational effort saved:  99.9825%.
MG BCs: Charge after coarse-graining:           -9.0007274.
MG DL_MG: Calling solver with defect correction order = 8
MG DL_MG: Solver finished
MG Hartree energy from (\int phi*rho dr):              1285.434739
MG Hartree energy from (\int eps (grad phi)^2 dr):     1284.779341
MG Discrepancy due to finite box and discretization:     -0.655398 (  -0.05099%)
MG Correction to account for finite box:                  0.477399
MG Remaining discrepancy, due to discretization:         -0.178000 (  -0.01385%)
     Trial step:       0.778141071520
             Q1:  -11665.081019396544
 Quadratic coef:       0.023942566144
 Linear coef   :      -0.057127515803
           Qmin:  -11665.081911339921
Quadratic minimum step length (  0.928331284390) accepted
    Initial Ne1:    7228.00005882
      Final Ne1:    7228.00000000

=================== Penalty functional idempotency correction ==================
 RMS occupancy error at iteration   1:  0.002943 (step -0.3705 Ne1=   7228.0000)
 RMS occupancy error at iteration   2:  0.000075 (step -0.4990 Ne1=   7228.0000)
 RMS occupancy error at iteration   3:  0.000001 (step -0.5000 Ne1=   7228.0000)
            Final RMS occupancy error   :  0.000000 (Ne1=   7228.0000)
               Final occupancy bounds   : [  0.0000,  1.0000]
================================================================================

    6        -1.166504783445E+04     4.0807E-05     3.6917E-05    -3.0791E-02
MG BCs: +ve charge blocks (gridpoints):     24986 (   16941313).
MG BCs: -ve charge blocks (gridpoints):      8433 (    1066373).
MG BCs:     Elided blocks (gridpoints):    168928 (  172962939).
MG BCs: Computational effort saved:  99.9825%.
MG BCs: Charge after coarse-graining:           -9.0007274.
MG DL_MG: Calling solver with defect correction order = 8
MG DL_MG: Solver finished
MG Hartree energy from (\int phi*rho dr):              1285.380722
MG Hartree energy from (\int eps (grad phi)^2 dr):     1284.725378
MG Discrepancy due to finite box and discretization:     -0.655344 (  -0.05098%)
MG Correction to account for finite box:                  0.477342
MG Remaining discrepancy, due to discretization:         -0.178002 (  -0.01385%)
      ideal mu1:      -0.752238811876
             Q0:  -11665.085001596017
             G0:      -0.066906138038
   RMS gradient:       0.000039556845
MG BCs: +ve charge blocks (gridpoints):     24986 (   16939549).
MG BCs: -ve charge blocks (gridpoints):      8433 (    1066786).
MG BCs:     Elided blocks (gridpoints):    168928 (  172964290).
MG BCs: Computational effort saved:  99.9825%.
MG BCs: Charge after coarse-graining:           -9.0007278.
MG DL_MG: Calling solver with defect correction order = 8
MG DL_MG: Solver finished
MG Hartree energy from (\int phi*rho dr):              1284.638902
MG Hartree energy from (\int eps (grad phi)^2 dr):     1283.983622
MG Discrepancy due to finite box and discretization:     -0.655280 (  -0.05101%)
MG Correction to account for finite box:                  0.477252
MG Remaining discrepancy, due to discretization:         -0.178027 (  -0.01386%)
     Trial step:       0.849925114561
             Q1:  -11665.108189235209
 Quadratic coef:       0.033677567846
 Linear coef   :      -0.056865207037
           Qmin:  -11665.109006089053
Quadratic minimum step length (  0.717557274718) accepted
    Initial Ne1:    7227.99999998
      Final Ne1:    7228.00000000

=================== Penalty functional idempotency correction ==================
 RMS occupancy error at iteration   1:  0.000059 (step -0.4964 Ne1=   7228.0000)
            Final RMS occupancy error   :  0.000000 (Ne1=   7228.0000)
               Final occupancy bounds   : [ -0.0000,  1.0000]
================================================================================

    7        -1.166508500160E+04     3.9557E-05     3.5786E-05    -3.7167E-02
MG BCs: +ve charge blocks (gridpoints):     24986 (   16939848).
MG BCs: -ve charge blocks (gridpoints):      8433 (    1066700).
MG BCs:     Elided blocks (gridpoints):    168928 (  172964077).
MG BCs: Computational effort saved:  99.9825%.
MG BCs: Charge after coarse-graining:           -9.0007277.
MG DL_MG: Calling solver with defect correction order = 8
MG DL_MG: Solver finished
MG Hartree energy from (\int phi*rho dr):              1284.753801
MG Hartree energy from (\int eps (grad phi)^2 dr):     1284.098510
MG Discrepancy due to finite box and discretization:     -0.655291 (  -0.05101%)
MG Correction to account for finite box:                  0.477268
MG Remaining discrepancy, due to discretization:         -0.178024 (  -0.01386%)
      ideal mu1:      -0.751532770757
             Q0:  -11665.109023843426
             G0:      -0.060519235721
   RMS gradient:       0.000037626323
MG BCs: +ve charge blocks (gridpoints):     24987 (   16940114).
MG BCs: -ve charge blocks (gridpoints):      8433 (    1066563).
MG BCs:     Elided blocks (gridpoints):    168927 (  172963948).
MG BCs: Computational effort saved:  99.9825%.
MG BCs: Charge after coarse-graining:           -9.0007277.
MG DL_MG: Calling solver with defect correction order = 8
MG DL_MG: Solver finished
MG Hartree energy from (\int phi*rho dr):              1284.736489
MG Hartree energy from (\int eps (grad phi)^2 dr):     1284.081422
MG Discrepancy due to finite box and discretization:     -0.655067 (  -0.05099%)
MG Correction to account for finite box:                  0.476976
MG Remaining discrepancy, due to discretization:         -0.178091 (  -0.01386%)
     Trial step:       0.780941706479
             Q1:  -11665.138336809352
[...]
 RMS occupancy error at iteration   1:  0.000000 (step -0.5000 Ne1=   7228.0000)
            Final RMS occupancy error   :  0.000000 (Ne1=   7228.0000)
               Final occupancy bounds   : [  0.0000,  1.0000]
================================================================================

    7        -1.170148520578E+04     1.3883E-08     1.2559E-08    -1.6298E-09

Reusing previously generated solute cavity.
MG BCs: +ve charge blocks (gridpoints):     29173 (   19041350).
MG BCs: -ve charge blocks (gridpoints):      8464 (    1043824).
MG BCs:     Elided blocks (gridpoints):    164741 (  170885451).
MG BCs: Computational effort saved:  99.9803%.
MG BCs: Charge after coarse-graining:           -9.0009760.
MG DL_MG: Calling solver with defect correction order = 8
MG DL_MG: Solver finished
MG Hartree energy from (\int phi*rho dr):              1236.041395
MG Hartree energy from (\int eps (grad phi)^2 dr):     1235.857125
MG Discrepancy due to finite box and discretization:     -0.184270 (  -0.01491%)
MG Correction to account for finite box:                  0.006468
MG Remaining discrepancy, due to discretization:         -0.177802 (  -0.01438%)
      ideal mu1:      -0.513460858323
             Q0:  -11701.485205783625
             G0:      -0.000000005535
   RMS gradient:       0.000000008994

Reusing previously generated solute cavity.
MG BCs: +ve charge blocks (gridpoints):     29173 (   19041349).
MG BCs: -ve charge blocks (gridpoints):      8464 (    1043825).
MG BCs:     Elided blocks (gridpoints):    164741 (  170885451).
MG BCs: Computational effort saved:  99.9803%.
MG BCs: Charge after coarse-graining:           -9.0009760.
MG DL_MG: Calling solver with defect correction order = 8
MG DL_MG: Solver finished
MG Hartree energy from (\int phi*rho dr):              1236.041414
MG Hartree energy from (\int eps (grad phi)^2 dr):     1235.857144
MG Discrepancy due to finite box and discretization:     -0.184270 (  -0.01491%)
MG Correction to account for finite box:                  0.006468
MG Remaining discrepancy, due to discretization:         -0.177802 (  -0.01438%)
     Trial step:       0.267353167721
             Q1:  -11701.485205783392
 Quadratic coef:       0.000000001713
 Linear coef   :      -0.000000001480
           Qmin:  -11701.485205783945
Quadratic minimum step length (  0.115441623202) accepted
    Initial Ne1:    7228.00000000
      Final Ne1:    7228.00000000

=================== Penalty functional idempotency correction ==================
 RMS occupancy error at iteration   1:  0.000000 (step -0.5000 Ne1=   7228.0000)
            Final RMS occupancy error   :  0.000000 (Ne1=   7228.0000)
               Final occupancy bounds   : [  0.0000,  1.0000]
================================================================================

    8        -1.170148520578E+04     8.9937E-09     8.1364E-09    -4.6566E-10

Reusing previously generated solute cavity.
MG BCs: +ve charge blocks (gridpoints):     29173 (   19041350).
MG BCs: -ve charge blocks (gridpoints):      8464 (    1043824).
MG BCs:     Elided blocks (gridpoints):    164741 (  170885451).
MG BCs: Computational effort saved:  99.9803%.
MG BCs: Charge after coarse-graining:           -9.0009760.
MG DL_MG: Calling solver with defect correction order = 8
MG DL_MG: Solver finished
MG Hartree energy from (\int phi*rho dr):              1236.041403
MG Hartree energy from (\int eps (grad phi)^2 dr):     1235.857133
MG Discrepancy due to finite box and discretization:     -0.184270 (  -0.01491%)
MG Correction to account for finite box:                  0.006468
MG Remaining discrepancy, due to discretization:         -0.177802 (  -0.01438%)
      ideal mu1:      -0.513460861823
             Q0:  -11701.485205783625
             G0:      -0.000000004758
   RMS gradient:       0.000000007160

Reusing previously generated solute cavity.
MG BCs: +ve charge blocks (gridpoints):     29173 (   19041349).
MG BCs: -ve charge blocks (gridpoints):      8464 (    1043825).
MG BCs:     Elided blocks (gridpoints):    164741 (  170885451).
MG BCs: Computational effort saved:  99.9803%.
MG BCs: Charge after coarse-graining:           -9.0009760.
MG DL_MG: Calling solver with defect correction order = 8
MG DL_MG: Solver finished
MG Hartree energy from (\int phi*rho dr):              1236.041413
MG Hartree energy from (\int eps (grad phi)^2 dr):     1235.857143
MG Discrepancy due to finite box and discretization:     -0.184270 (  -0.01491%)
MG Correction to account for finite box:                  0.006468
MG Remaining discrepancy, due to discretization:         -0.177802 (  -0.01438%)
     Trial step:       0.175680629695
             Q1:  -11701.485205783276
 Quadratic coef:       0.000000001186
 Linear coef   :      -0.000000000836
           Qmin:  -11701.485205783772
Quadratic minimum step length (  0.061910229451) accepted
    Initial Ne1:    7228.00000000
      Final Ne1:    7228.00000000

=================== Penalty functional idempotency correction ==================
 RMS occupancy error at iteration   1:  0.000000 (step -0.5000 Ne1=   7228.0000)
            Final RMS occupancy error   :  0.000000 (Ne1=   7228.0000)
               Final occupancy bounds   : [  0.0000,  1.0000]
================================================================================

    9        -1.170148520578E+04     7.1599E-09     6.4774E-09     0.0000E+00

Reusing previously generated solute cavity.
MG BCs: +ve charge blocks (gridpoints):     29173 (   19041350).
MG BCs: -ve charge blocks (gridpoints):      8464 (    1043824).
MG BCs:     Elided blocks (gridpoints):    164741 (  170885451).
MG BCs: Computational effort saved:  99.9803%.
MG BCs: Charge after coarse-graining:           -9.0009760.
MG DL_MG: Calling solver with defect correction order = 8
MG DL_MG: Solver finished
MG Hartree energy from (\int phi*rho dr):              1236.041407
MG Hartree energy from (\int eps (grad phi)^2 dr):     1235.857137
MG Discrepancy due to finite box and discretization:     -0.184270 (  -0.01491%)
MG Correction to account for finite box:                  0.006468
MG Remaining discrepancy, due to discretization:         -0.177802 (  -0.01438%)
      ideal mu1:      -0.513460861923
   10        -1.170148520578E+04     6.3221E-09     5.7195E-09     1.1642E-10
Finished density kernel iterations (  10)

Writing density kernel to file "complex_26321.dkn" ... done


>>> Density kernel optimised for the current NGWF basis:
     ~~~~~~~~~~~~~~~~~~~~~~~~~~~~~~~~~~~~~~~~~~~~~~~~~~~~~~~~~~~
     Total energy                =  -1.17014852057835E+04  Eh
     Estimated bandgap           =   1.1591E-01  Eh
     RMS occupancy error         =   7.8622E-16
     [H,K] commutator            =   5.7195E-09
     Occupancy bounds            = [  0.000:  1.000]
     ~~~~~~~~~~~~~~~~~~~~~~~~~~~~~~~~~~~~~~~~~~~~~~~~~~~~~~~~~~~




################################################################################
########################### NGWF CG iteration  005 #############################
################################################################################
****** Reciprocal space K.E. preconditioning with k_zero =  3.5000 a0^-1 *******

>>> Checking for convergence of NGWFs: 
           ........................................................
           |         *** NGWF optimisation converged ***          |
           | RMS NGWF gradient =    0.00000106506340              |
           | Criteria satisfied:                                  |
           | -> RMS NGWF gradient lower than set threshold.       |
           ========================================================

Reusing previously generated solute cavity.
MG BCs: +ve charge blocks (gridpoints):     29173 (   19041350).
MG BCs: -ve charge blocks (gridpoints):      8464 (    1043824).
MG BCs:     Elided blocks (gridpoints):    164741 (  170885451).
MG BCs: Computational effort saved:  99.9803%.
MG BCs: Charge after coarse-graining:           -9.0009760.
MG DL_MG: Calling solver with defect correction order = 8
MG DL_MG: Solver finished
MG Hartree energy from (\int phi*rho dr):              1236.041407
MG Hartree energy from (\int eps (grad phi)^2 dr):     1235.857137
MG Discrepancy due to finite box and discretization:     -0.184270 (  -0.01491%)
MG Correction to account for finite box:                  0.006468
MG Remaining discrepancy, due to discretization:         -0.177802 (  -0.01438%)

================================================================================
           ---------------- ENERGY COMPONENTS (Eh) ----------------
           | Kinetic                    :     8448.09985386826156 |
           | Pseudo. (local,OBC,corr'd) :    -5011.53561099807484 |
           | Pseudopotential (non-local):     1453.19430412509655 |
           | Hartree (molecular)        :     1236.04140680764749 |
           | Exchange-correlation       :    -3350.27170720643971 |
           | Ion-ion (open BC)          :   836685.17052181309555 |
           | Smeared ion non-self corr. :  -836636.83679693145677 |
           | Smeared ion self corr.     :   -14525.98710726666832 |
           | Solvent cavitation energy  :        2.27672331217991 |
           | Solute-solvent dis-rep en. :       -1.63679330720894 |
           | Total                      :   -11701.48520578360694 |
           --------------------------------------------------------
           ------ LOCAL ENERGY COMPONENTS FROM MATRIX TRACES ------
           | Pseudopotential (local)    :    -5011.53561099810577 |
           | Hartree                    :    -1993.23036641021463 |
           --------------------------------------------------------
           Integrated density           :     7227.99999999832653
           Integrated density tr(KS)    :     7228.00000000000182
================================================================================


                        <<<<< CALCULATION SUMMARY >>>>>                         
|ITER|    RMS GRADIENT   |     TOTAL ENERGY    |   step   |     Epredicted              
   0     0.00003796883312 -11701.43717095523607   0.522551 -11701.47852113777299        
   1     0.00001262833011 -11701.48400889895856   0.114921 -11701.48501486954046        
   2     0.00000552322914 -11701.48516539437696   0.020353 -11701.48519947519162        
   3     0.00000244137627 -11701.48520423902664   0.004044 -11701.48520556201947        
   4     0.00000106506340 -11701.48520578350872  <-- CG                                 

=================== Finished the calculation in solvent ========================
= Adjusting the following parameters: 
= read_denskern: F
= read_tightbox_ngwfs: F
= maxit_pen: 0 (restored to user-specified value)
= restart read filename prefix: ""
= restart write filename prefix: ""
================================================================================

================================================================================
IS: Calculation in solvent completed (NGWFs converged).      

Individual components of total energy in solvent:     hartree           kcal/mol
- Usual non-electrostatic DFT terms:    -12938.16654259612733    -8118821.906347
- Electrostatic fixed charge energy:      1236.04140680764749      775627.676279
- Apolar cavitation energy:                  2.27672331217991        1428.665417
- Apolar dispersion-repulsion energy:       -1.63679330720894       -1027.103285
 -------------------------------------------------------------------------------
- Total energy in solvent:              -11701.48520578350872    -7342792.667936

Components of total energy in solvent:                hartree           kcal/mol
- Usual non-electrostatic DFT terms:    -12938.16654259612733    -8118821.906347
- Electrostatic energy:                   1236.04140680764749      775627.676279
- Apolar energy terms:                       0.63993000497097         401.562132
 -------------------------------------------------------------------------------
- Total energy in solvent:              -11701.48520578350872    -7342792.667936

Calculation of free energy of solvation:              hartree           kcal/mol
- Total energy in solvent:         (+)  -11701.48520578350872    -7342792.667936
- Total energy in vacuum:          (-)  -11697.69280777359381    -7340412.902307
 -------------------------------------------------------------------------------
- Total free energy of solvation:           -3.79239800991490       -2379.765629

Components of polar term in f.e. of solvation:        hartree           kcal/mol
- Electrostatic:                            -4.78423251136292       -3002.151162
- Change in nonelectrostatic DFT terms:      0.35190449647598         220.823401
 -------------------------------------------------------------------------------
- Polar term in f.e. of solvation:          -4.43232801488693       -2781.327761

Components of free energy of solvation:               hartree           kcal/mol
- Polar term in f.e. of solvation: (+)      -4.43232801488693       -2781.327761
- Apolar (cavitation, dis., rep.): (+)       0.63993000497097         401.562132
 -------------------------------------------------------------------------------
- Total free energy of solvation:           -3.79239800991597       -2379.765629
================================================================================


------------------------------ TIMING INFORMATION ------------------------------
AVERAGE TIME:   72262.330s on     40 node(s)                                    
TOTAL TIME:     72262.331s on     40 node(s)                                    
================= AVERAGE TIMINGS FROM ALL NODES (CUMULATIVE) ==================
|| TAG                                    #calls    cpu time   %total  Gflops ||
|| work_imbalance                       :     1        0.00s   0.000%  ------ ||
|| parallel_prepare_fd_halos_request    :  2067        0.02s   0.000%  ------ ||
|| parallel_prepare_fd_halos_alloc      :  2067        0.04s   0.000%  ------ ||
|| sparse_set_to_garbage                :   218        0.06s   0.000%  ------ ||
|| parallel_prepare_fd_halos_satisfy    :  2067        0.06s   0.000%  ------ ||
|| ngwfs_initialise_from_radial         :     1        0.17s   0.000%  ------ ||
|| basis_extract_function_from_box      :  5721        0.23s   0.000%  ------ ||
|| restart_ngwfs_tightbox_input         :     1        1.01s   0.001%  ------ ||
|| pseudopotentials_nonlocal_mat        :    32        1.20s   0.002%  ------ ||
|| parallel_prepare_fd_halos_comms_imbal:  2067        3.34s   0.005%  ------ ||
|| openbc_locps_radial                  :     1        4.51s   0.006%  ------ ||
|| restart_kernel_read                  :     1        4.66s   0.006%  ------ ||
|| density_init_guess_real              :     1        4.71s   0.007%  ------ ||
|| parallel_prepare_fd_halos_clear      :  2067       14.68s   0.020%  ------ ||
|| sparse_init                          :     2       22.57s   0.031%  ------ ||
|| parallel_prepare_fd_halos_comms_wait :  2067       25.69s   0.036%  ------ ||
|| projectors_func_ovlp_box             :    32       25.98s   0.036%  ------ ||
|| function_ops_brappd_ketppd           :    32       29.09s   0.040%  ------ ||
|| restart_kernel_write                 :    18       29.49s   0.041%  ------ ||
|| projectors_init_fftbox_recip         :   219       29.78s   0.041%  ------ ||
|| palser_mano_kernel_optimise          :     1       41.29s   0.057%  ------ ||
|| parallel_prepare_fd_halos            :  2067       43.84s   0.061%  ------ ||
|| pseudo_make_structure_factor         :     2       56.73s   0.079%  ------ ||
|| ngwf_gradient_coeffs                 :    17       68.90s   0.095%  ------ ||
|| sparse_embed_hotelling_invert_embed  :    32      101.47s   0.140%  ------ ||
|| finite_difference_derivative         :  2067      117.06s   0.162%  ------ ||
|| basis_copy_function_to_box           : 176.9k     124.50s   0.172%  ------ ||
|| restart_ngwfs_tightbox_output        :    15      134.39s   0.186%  ------ ||
|| openbc_locps_on_grid                 :     2      185.06s   0.256%  ------ ||
|| integrals_kinetic                    :    32      194.12s   0.269%  ------ ||
|| projectors_gradient_batch            :   187      234.60s   0.325%  ------ ||
|| sparse_trace                         :  5666      294.47s   0.407%  ------ ||
|| fourier_apply_box_pair               : 49912      345.57s   0.478% 593.750 ||
|| kernel_purify                        :   526      384.93s   0.533%  ------ ||
|| basis_dot_function_with_box          : 20.40M     404.40s   0.560%  ------ ||
|| lnv_gradient_norm                    :   170      613.88s   0.850%  ------ ||
|| kernel_fix                           :   170      703.20s   0.973%  ------ ||
|| hamiltonian_energy_components        :     4      747.19s   1.034%  ------ ||
|| integrals_locpot_mat_els_batch       :  1969     1032.96s   1.429%  ------ ||
|| basis_add_function_to_box            : 54.56M    1034.00s   1.431%  ------ ||
|| ke_density_batch_grad_apply          :  3773     1143.42s   1.582%  ------ ||
|| ke_density_batch_row_sums            :  3773     1368.69s   1.894%  ------ ||
|| density_batch_row_sums               :  3773     1371.19s   1.898%  ------ ||
|| fourier_apply_cell_backward          :  9268     1566.03s   2.167%  79.475 ||
|| density_fftbox_deposit_to_cell       : 56252     1727.04s   2.390%  ------ ||
|| ke_density_fftbox_deposit_to_cell    : 56252     1793.88s   2.482%  ------ ||
|| fourier_apply_cell_forward           :  9266     1795.84s   2.485%  69.290 ||
|| cell_grid_deposit_box_real           : 114.6k    2061.09s   2.852%  ------ ||
|| sparse_product                       :  7090     2360.57s   3.267%  ------ ||
|| cell_grid_extract_box_real           : 140.2k    2367.92s   3.277%  ------ ||
|| multigrid_prepare_bound_cond         :   344     2599.96s   3.598%  ------ ||
|| ngwf_gradient_build_batch            :   187     2700.78s   3.737%  ------ ||
|| ngwf_gradient_batch                  :   187     3027.07s   4.189%  ------ ||
|| ngwf_gradient_lnv                    :    17     3223.17s   4.460%  ------ ||
|| potential_apply_to_ngwf_batch        :  1969     3713.34s   5.139%  ------ ||
|| density_fftbox_interpolate_multiply  : 56252     4138.70s   5.727%  ------ ||
|| xc_energy_potential                  :   344     4497.27s   6.224%  ------ ||
|| integrals_locpot_dbl_grid            :   179     4771.07s   6.602%  ------ ||
|| density_batch_interp_deposit         :  3773     6582.02s   9.109%  ------ ||
|| dl_mg_solver_calls                   :   344     7020.44s   9.715%  ------ ||
|| nlxc_vdw_energy                      :   686     7497.23s  10.375%  ------ ||
|| density_on_dbl_grid                  :   343     8419.80s  11.652%  ------ ||
|| multigrid_calculate_hartree          :   344     9791.25s  13.550%  ------ ||
|| potential_apply_to_fftbox_batch      :  5610     9923.89s  13.733%  ------ ||
|| integrals_div_locpot_grad_functions  :   170    14879.30s  20.591%  ------ ||
|| ke_density_fftbox_interpolate_multipl: 56252    16577.24s  22.940%  ------ ||
|| ke_density_batch_interp_deposit      :  3773    19115.20s  26.453%  ------ ||
|| fourier_apply_box                    : 1.276M   21507.84s  29.764% 807.544 ||
|| ke_density_on_dbl_grid               :   343    22145.07s  30.645%  ------ ||
|| hamiltonian_lhxc_calculate           :   339    44870.51s  62.094%  ------ ||
|| lnv_denskernel_optimise_cg           :    17    64867.38s  89.767%  ------ ||
|| ngwf_cg_optimise                     :     2    71476.98s  98.913%  ------ ||
|| total_time                           :     1    72262.33s 100.000%  ------ ||
================================================================================
Overhead of generating timer report: 
- 0 ms averaging over threads,
- 7 ms ensuring consistency across MPI ranks,
- 2 ms printing in order.

Job completed: 19-02-2020 05:43 (-0000)

