 +---------------------------------------------------------------+
 |                                                               |
 |        ####### #     # ####### ####### ####### ######         |
 |        #     # ##    # #          #    #       #     #        |
 |        #     # # #   # #          #    #       #     #        |
 |        #     # #  #  # #####      #    #####   ######         |
 |        #     # #   # # #          #    #       #              |
 |        #     # #    ## #          #    #       #              |
 |        ####### #     # #######    #    ####### #              |
 |                                                               |
 |        Linear-Scaling Ab Initio Total Energy Program          |
 |                                                               |
 |          Release for academic collaborators of ODG            |
 |                                             Version 5.3.2.6.  |
 |                                                               |
 +---------------------------------------------------------------+
 |                                                               |
 |  Authors:                                                     |
 |  Jacek Dziedzic, Peter D. Haynes, Nicholas D. M. Hine,        |
 |  Arash. A. Mostofi, Mike C. Payne and Chris-Kriton Skylaris   |
 |                                                               |
 |  Contributors:                                                |
 |  J. Aarons, L. Andrinopoulos, P. W. Avraam, R. A. Bell,       |
 |  A. Bhandari, G. A. Bramley, R. J. Charlton, S. J. Clark,     |
 |  R. J. Clements, G. C. Constantinescu, F. Corsetti,           |
 |  N. Corsini, O. Dieguez, S. M. M. Dubois, K. K. B. Duff,      |
 |  J. M. Escartin, A. Greco, H. Helal, Q. O. Hill, L. P. Lee,   |
 |  J.-H. Li, E. B. Linscott, G. Moynihan, D. D. O`Regan,        |
 |  O. K. Okan, M. J. S. Phipps, C. J. Pickard,                  |
 |  J. C. A. Prentice, M. I. J. Probert, L. E. Ratcliff,         |
 |  M. Robinson, A. Ruiz Serrano, J. S. Spencer, E. W. Tait,     |
 |  G. Teobaldi, D. Turban, V. Vitale, K. A. Wilkinson,          |
 |  C. Weber, J. C. Womack, N. Yeung and T. J. Zuehlsdorff       |
 |                                                               |
 |                                   Copyright (c) 2004-2019     |
 |                                                               |
 |  Please cite:                                                 |
 |  "Introducing ONETEP: Linear-scaling density functional       |
 |   simulations on parallel computers".                         |
 |   C.-K. Skylaris, P. D. Haynes, A. A. Mostofi, M. C. Payne.   |
 |   J. Chem. Phys. 122 084119 (2005).                           |
 |                                                               |
 |          in all publications arising from your use of ONETEP. |
 |                                                               |
 +---------------------------------------------------------------+
 |                                                               |
 |   ONETEP is based on developments described in the following  |
 |   publications:                                               |
 |                                                               |
 |  "Nonorthogonal generalized Wannier function pseudopotential  |
 |   plane-wave method".                                         |
 |   C.-K. Skylaris, A. A. Mostofi, P. D. Haynes, O. Dieguez,    |
 |   M. C. Payne.                                                |
 |   Phys. Rev. B 66 035119 (2002).                              |
 |                                                               |
 |  "Preconditioned iterative minimization for linear-scaling    |
 |   electronic structure calculations".                         |
 |   A. A. Mostofi, P. D. Haynes, C.-K. Skylaris, M. C. Payne.   |
 |   J. Chem. Phys. 119(17), pp.8842-8848 (2003).                |
 |                                                               |
 |  "Total-energy calculations on a real space grid with         |
 |   localized functions and a plane-wave basis".                |
 |   A. A. Mostofi, C.-K. Skylaris, P. D. Haynes, M. C. Payne.   |
 |   Comput. Phys. Commun. 147, pp.788-802 (2002).               |
 |                                                               |
 |  "Accurate kinetic energy evaluation in electronic structure  |
 |   calculations with localized functions on real space grids"  |
 |   C.-K. Skylaris, A. A. Mostofi, P. D. Haynes, C. J. Pickard, |
 |   M. C. Payne.                                                |
 |   Comput. Phys. Commun. 140, pp.315-322 (2001).               |
 |                                                               |
 |  "Accurate ionic forces and geometry optimization in linear-  |
 |   scaling density-functional theory with local orbitals"      |
 |   N. D. M. Hine, M. Robinson, P. D. Haynes, C.-K. Skylaris,   |
 |   M. C. Payne, and A. A. Mostofi.                             |
 |   Phys. Rev. B 83 195102 (2011).                              |
 |                                                               |
 +---------------------------------------------------------------+

Job started: 28-02-2020 20:00 (-0000)
 
Reading parameters from file "complex_36961.dat" ...... done

If your calculation crashes here, before "Checking processes and threads..."
is displayed, then your stack size is insufficient.
If so, use "ulimit -s unlimited" at runtime.
You can disable this check with "check_stack_size F".

Checking processes and threads...
   Determining the default number of threads...
      No default threads set at compilation time: defaulting to 1.
      OpenMP library call suggests 4 threads.
      Hybrid MPI-OpenMP compilation detected.
      Number of MPI processes > 1.
      OMP_NUM_THREADS environment variable present and
      its value matches the one obtained from the OpenMP library call.
      Using this value as default.
      Default threads: 4
      Default applies to threads_max and threads_num_fftboxes.
      Settings in the input file override this default.
   ... done

   Running with 40 MPI processes.
   There are 10 MPI processes running on the same node as the root process.
   Each MPI process is using: 
               1 threads for simulation cell FFTs.
               1 threads for parallel FFT box operations.
               4 threads for loops over batched FFT box operations.
               4 threads in other parallel regions.
... done

Basic input checks...... done

Reading geometry and species blocks from file "complex_36961.dat" ...
  <species_atomic_set> block not found: NGWF initialisation set to SOLVE
IS: Dielectric excluded regions:
    - NONE.
    
  Number of PPD points along a3 set to 1.  This is 
  the default value, it may have been provided also in the input file.
... done
 Writing xyz coordinates to file "complex_36961.xyz" ... done


--------------------------------------------------------------------------------
---------------------------------- INPUT FILE ----------------------------------
--------------------------------------------------------------------------------

cutoff_energy       : 800 eV                                                    
xc_functional B97M-V                                                            
task SINGLEPOINT                                                                
write_xyz true                                                                  
output_detail VERBOSE                                                           
ngwf_threshold_orig : 0.000002                                                  
kernel_cutoff       : 1000                                                      
k_zero              : 3.5                                                       
elec_cg_max 0                                                                   
occ_mix 1.0                                                                     
dispersion 0                                                                    
maxit_ngwf_cg 40                                                                
minit_lnv 10                                                                    
maxit_lnv 10                                                                    
write_denskern T                                                                
write_tightbox_ngwfs T                                                          
charge 9                                                                        
is_implicit_solvent T                                                           
is_auto_solvation T                                                             
is_include_apolar T                                                             
is_smeared_ion_rep T                                                            
is_solvent_surf_tension 4.7624E-5 Ha/bohr**2                                    
is_apolar_scaling_factor 0.281075                                               
is_solvation_beta 1.3                                                           
is_density_threshold 0.00035                                                    
is_bulk_permittivity 78.54                                                      
is_dielectric_model fix_initial                                                 
is_smeared_ion_width 0.8                                                        
mg_defco_fd_order 8                                                             
is_bc_coarseness 10                                                             
is_bc_surface_coarseness 1                                                      
fine_grid_scale 2.0                                                             
%block species                                                                  
N   N   7 4 8.0                                                                 
H   H   1 1 8.0                                                                 
C   C   6 4 8.0                                                                 
S   S  16 9 8.0                                                                 
O   O   8 4 8.0                                                                 
%endblock species                                                               
%block species_pot                                                              
N   N_00.recpot                                                                 
H   H_04.recpot                                                                 
C   C_01.recpot                                                                 
S   S_00.recpot                                                                 
O   O_02.recpot                                                                 
%endblock species_pot                                                           
%block lattice_cart                                                             
135.996   0.000   0.000                                                         
0.000 142.663   0.000                                                           
0.000   0.000   160.158                                                         
%endblock lattice_cart                                                          
%block positions_abs                                                            
     Hash =   000004237098657570384155
%endblock positions_abs                                                         

--------------------------------------------------------------------------------
-------------------------------- END INPUT FILE --------------------------------
--------------------------------------------------------------------------------


 
 ESDF WARNING(1): "kernelcutoff" (esdf_physical) has no units. Assume "bohr".
 ESDF WARNING(2): "kzero" (esdf_physical) has no units. Assume "1/bohr".
 ESDF WARNING(3
 ): "issmearedionwidth" (esdf_physical) has no units. Assume "bohr".
<<<<<<<<<<<<<<<<<<<<<<<<<<<<<<<<< Full system >>>>>>>>>>>>>>>>>>>>>>>>>>>>>>>>>>
<<<<<<<<<<<<<<<<<<<<<<<<< Pseudopotential information >>>>>>>>>>>>>>>>>>>>>>>>>>
File: N_00.recpot [ 2001 points up to Gmax=  52.9 (1/bohr)]
  Atomic number:  7;  ionic charge:  5.000000
    Shell 1: l = 0; rc = 1.48 bohr
File: H_04.recpot [ 2001 points up to Gmax=  52.9 (1/bohr)]
  Atomic number:  1;  ionic charge:  1.000000
    Local potential
File: C_01.recpot [ 2001 points up to Gmax=  52.9 (1/bohr)]
  Atomic number:  6;  ionic charge:  4.000000
    Shell 1: l = 0; rc = 1.48 bohr
File: S_00.recpot [ 2001 points up to Gmax=  52.9 (1/bohr)]
  Atomic number: 16;  ionic charge:  6.000000
    Shell 1: l = 0; rc = 1.90 bohr
    Shell 2: l = 2; rc = 1.84 bohr
File: O_02.recpot [ 2001 points up to Gmax=  52.9 (1/bohr)]
  Atomic number:  8;  ionic charge:  6.000000
    Shell 1: l = 0; rc = 1.31 bohr
<<<<<<<<<<<<<<<<<<<<<<<<<<<<<<<<<<<<<<<<>>>>>>>>>>>>>>>>>>>>>>>>>>>>>>>>>>>>>>>>

-------------------------- Atom counting information ---------------------------
Symbol    Natoms    Nngwfs    Nprojs
  N        236       944       236
  H       1317      1317         0
  C        816      3264       816
  S          6        54        36
  O        240       960       240
.......   ......    ......    ......
Totals:   2615      6539      1328
--------------------------------------------------------------------------------

=============================== PSINC grid sizes ===============================
                      Simulation cell:  270 x 286 x 315
                              FFT-box:   99 x 105 x  99
                                  PPD:    5 x  11 x   1
Grid space d1=  0.503688888889a0 (KE cutoff=  29.94189Eh = 814.76038eV)
Grid space d2=  0.498821678322a0 (KE cutoff=  30.52906Eh = 830.73786eV)
Grid space d3=  0.508438095238a0 (KE cutoff=  29.38514Eh = 799.61048eV)
================================================================================

********************* Fourier parallelisation information **********************
       Coarse grid (whole simulation cell) dimensions:    270   286   315
          Real-space ('12') slabs/node (min max mean):      7     8     7
         Recip-space ('23') slabs/node (min max mean):      3     4     3
********************************************************************************

********************* Fourier parallelisation information **********************
       Double grid (whole simulation cell) dimensions:    540   572   630
          Real-space ('12') slabs/node (min max mean):     15    16    15
         Recip-space ('23') slabs/node (min max mean):      6     7     6
********************************************************************************
ONETEP fine grid is 540 x 572 x 630 gridpoints, 135.9960 x 142.6630 x 160.1580 bohr.
FD multigrid is     537 x 569 x 625 gridpoints, 135.2405 x 141.9148 x 158.8869 bohr.


Calculating local pseudopotential in open BC on a radial grid ...
Discrepancy between calculated realspace psloc and -Z/x on [5a0,253.965a0]:
max |rel. diff| # avg |rel. diff| #  avg rel. diff #  f # pseudopotential file
 0.000259282084    0.000004141996   0.000000074978   54  'N_00.recpot'
 0.000405386992    0.000016970607  -0.000000075982   54  'H_04.recpot'
 0.000371694516    0.000017434762   0.000000149329   54  'C_01.recpot'
 0.000461642895    0.000020341726   0.000000491514   54  'S_00.recpot'
 0.000682525123    0.000027368244   0.000000159803   54  'O_02.recpot'
... done
 WARNING: meta-GGA functionality under development.
          Using this functional is experimental.
          Minimum tau threshold, xc_min_tau =   1.00000000E-12
 WARNING: Using alternative XC functional PBE for 
          radial densities (xc_radial).

Atom SCF Calculation for N  : Z (AE atom) =   7 : Z (PS atom) =   5
Config String:
Orbitals (num,occ):  2     2.00 3.00
Orbitals   (num,l):  2        0    1
Real-space Grid (nr,dr,rmax): 1203    0.0066555740    8.0000000000
Spherical Bessel Basis (nsws,lmax,cutoff):   47    1  176.3951722778
Confining potential (l,width,scale):  0    3.0000000000  100.0000000000
Confining potential (l,width,scale):  1    3.0000000000  100.0000000000
  1         -4.7312375307   -3.4155304497    7.0523828109   -1.9351020946
  2         -9.7309464766   -2.0532547791    8.2966052865   -2.2494486027
  3         -9.6627394379   -2.1124926340    8.2327997121   -2.2369778124
  4         -9.6814993499   -2.1215521045    8.2229805960   -2.2365178421
  5         -9.6843326483   -2.1250939529    8.2191374534   -2.2362718126
  6         -9.6859628709   -2.1267894855    8.2172963573   -2.2362066344
  7         -9.6867347035   -2.1276425665    8.2163697352   -2.2361903369
  8         -9.6870802100   -2.1280764625    8.2158983890   -2.2361891460
  9         -9.6872290423   -2.1282977424    8.2156580222   -2.2361920435
 10         -9.6872901988   -2.1284107021    8.2155353368   -2.2361953393
 11         -9.6873135296   -2.1284684031    8.2154726809   -2.2361979819
 12         -9.6873212476   -2.1284978948    8.2154406648   -2.2361998431
 13         -9.6873229586   -2.1285129774    8.2154242957   -2.2362010676
 14         -9.6873226456   -2.1285206957    8.2154159216   -2.2362018403
 15         -9.6873218534   -2.1285246479    8.2154116349   -2.2362023142
 16         -9.6873212599   -2.1285262679    8.2154098784   -2.2362025420
 17         -9.6873207834   -2.1285272564    8.2154088068   -2.2362026955
 18         -9.6873204210   -2.1285278597    8.2154081529   -2.2362027982
 19         -9.6873201550   -2.1285282280    8.2154077538   -2.2362028667
 20         -9.6873199645   -2.1285284529    8.2154075102   -2.2362029121
 21         -9.6873198305   -2.1285285903    8.2154073614   -2.2362029421
 22         -9.6873197377   -2.1285286742    8.2154072705   -2.2362029618
Atom SCF converged after  22 iterations to a total energy of     -9.68731974

Atom SCF Calculation for H  : Z (AE atom) =   1 : Z (PS atom) =   1
Config String:
Orbitals (num,occ):  1     1.00
Orbitals   (num,l):  1        0
Real-space Grid (nr,dr,rmax): 1203    0.0066555740    8.0000000000
Spherical Bessel Basis (nsws,lmax,cutoff):   47    0  176.3951722778
Confining potential (l,width,scale):  0    3.0000000000  100.0000000000
  1         -0.3194257691   -0.2393854593    0.2820953124   -0.2424203209
  2         -0.3951823392   -0.2377116493    0.2886404059   -0.2475147891
  3         -0.4317044583   -0.2352244387    0.2921333887   -0.2514046172
  4         -0.4470703708   -0.2341892222    0.2934391879   -0.2531009782
  5         -0.4532132900   -0.2338556667    0.2938388426   -0.2537313520
  6         -0.4556579251   -0.2337612552    0.2939448584   -0.2539550462
  7         -0.4566418315   -0.2337377355    0.2939680120   -0.2540342273
  8         -0.4570437922   -0.2337331116    0.2939708287   -0.2540627372
  9         -0.4572102946   -0.2337328328    0.2939698291   -0.2540732650
 10         -0.4572800424   -0.2337332404    0.2939687193   -0.2540772588
 11         -0.4573095100   -0.2337335791    0.2939680317   -0.2540788122
 12         -0.4573220379   -0.2337337762    0.2939676699   -0.2540794294
 13         -0.4573273880   -0.2337338775    0.2939674931   -0.2540796787
 14         -0.4573296803   -0.2337339266    0.2939674099   -0.2540797808
 15         -0.4573306647   -0.2337339495    0.2939673718   -0.2540798230
 16         -0.4573310882   -0.2337339601    0.2939673545   -0.2540798406
 17         -0.4573312706   -0.2337339649    0.2939673467   -0.2540798479
 18         -0.4573313493   -0.2337339670    0.2939673433   -0.2540798510
Atom SCF converged after  18 iterations to a total energy of     -0.45733135

Atom SCF Calculation for C  : Z (AE atom) =   6 : Z (PS atom) =   4
Config String:
Orbitals (num,occ):  2     2.00 2.00
Orbitals   (num,l):  2        0    1
Real-space Grid (nr,dr,rmax): 1203    0.0066555740    8.0000000000
Spherical Bessel Basis (nsws,lmax,cutoff):   47    1  176.3951722778
Confining potential (l,width,scale):  0    3.0000000000  100.0000000000
Confining potential (l,width,scale):  1    3.0000000000  100.0000000000
  1         -5.2976922011   -1.3069684169    4.5135249990   -1.4493313817
  2         -5.3721716256   -1.3429755895    4.4750154450   -1.4361613026
  3         -5.3809959565   -1.3617365618    4.4541655428   -1.4305930207
  4         -5.3918938866   -1.3667928461    4.4484735100   -1.4294652294
  5         -5.3956096428   -1.3688539142    4.4461376126   -1.4290734646
  6         -5.3968271862   -1.3696852393    4.4451910874   -1.4289366866
  7         -5.3972028401   -1.3700178062    4.4448112275   -1.4288900460
  8         -5.3973067903   -1.3701500158    4.4446598370   -1.4288749220
  9         -5.3973286940   -1.3702023868    4.4445997329   -1.4288704293
 10         -5.3973289850   -1.3702230869    4.4445759233   -1.4288693188
 11         -5.3973254264   -1.3702312560    4.4445665049   -1.4288691775
 12         -5.3973224003   -1.3702344755    4.4445627836   -1.4288692549
 13         -5.3973208708   -1.3702354890    4.4445616088   -1.4288693270
 14         -5.3973198783   -1.3702360102    4.4445610034   -1.4288693814
 15         -5.3973192535   -1.3702362780    4.4445606917   -1.4288694190
 16         -5.3973188684   -1.3702364155    4.4445605313   -1.4288694437
 17         -5.3973186349   -1.3702364860    4.4445604489   -1.4288694595
 18         -5.3973184951   -1.3702365221    4.4445604065   -1.4288694693
 19         -5.3973184122   -1.3702365405    4.4445603848   -1.4288694753
Atom SCF converged after  19 iterations to a total energy of     -5.39731841

Atom SCF Calculation for S  : Z (AE atom) =  16 : Z (PS atom) =   6
Config String:
Orbitals (num,occ):  3     2.00 4.00 0.00
Orbitals   (num,l):  3        0    1    2
Real-space Grid (nr,dr,rmax): 1203    0.0066555740    8.0000000000
Spherical Bessel Basis (nsws,lmax,cutoff):   47    2  176.3951722778
Confining potential (l,width,scale):  0    3.0000000000  100.0000000000
Confining potential (l,width,scale):  1    3.0000000000  100.0000000000
Confining potential (l,width,scale):  2    3.0000000000  100.0000000000
  1        -12.4735062396   -1.0328741412   10.1554312477   -2.4512393157
  2         -9.9458301913   -2.4607392455    8.3041325857   -2.0306994528
  3        -10.1450417646   -2.2931184565    8.4831893826   -2.0812538287
  4        -10.1528335592   -2.2733105793    8.5050388867   -2.0896035179
  5        -10.1571940363   -2.2633716629    8.5160794258   -2.0939370707
  6        -10.1594380571   -2.2584938667    8.5215163935   -2.0961289008
  7        -10.1605856507   -2.2561081821    8.5241804044   -2.0972291378
  8        -10.1611799191   -2.2549395235    8.5254868240   -2.0977806248
  9        -10.1614918752   -2.2543658586    8.5261285885   -2.0980571586
 10        -10.1616572884   -2.2540839121    8.5264441898   -2.0981959233
 11        -10.1617455602   -2.2539453058    8.5265994231   -2.0982656006
 12        -10.1617928447   -2.2538772062    8.5266757320   -2.0983006047
 13        -10.1618182292   -2.2538437891    8.5267131983   -2.0983181961
 14        -10.1618318741   -2.2538274201    8.5267315620   -2.0983270391
 15        -10.1618392144   -2.2538194197    8.5267405433   -2.0983314852
 16        -10.1618431651   -2.2538155200    8.5267449245   -2.0983337210
 17        -10.1618452923   -2.2538136252    8.5267470551   -2.0983348455
 18        -10.1618464380   -2.2538127080    8.5267480875   -2.0983354110
 19        -10.1618470552   -2.2538122659    8.5267485856   -2.0983356955
 20        -10.1618473878   -2.2538120540    8.5267488248   -2.0983358386
 21        -10.1618475670   -2.2538119530    8.5267489389   -2.0983359106
 22        -10.1618476637   -2.2538119053    8.5267489929   -2.0983359468
Atom SCF converged after  22 iterations to a total energy of    -10.16184766

Atom SCF Calculation for O  : Z (AE atom) =   8 : Z (PS atom) =   6
Config String:
Orbitals (num,occ):  2     2.00 4.00
Orbitals   (num,l):  2        0    1
Real-space Grid (nr,dr,rmax): 1203    0.0066555740    8.0000000000
Spherical Bessel Basis (nsws,lmax,cutoff):   47    1  176.3951722778
Confining potential (l,width,scale):  0    3.0000000000  100.0000000000
Confining potential (l,width,scale):  1    3.0000000000  100.0000000000
  1         -1.8735052164   -7.5539365035   10.1554312477   -2.4512393157
  2        -16.0318313751   -3.1285771268   13.6395848164   -3.2358799643
  3        -15.9524020423   -3.0762819706   13.6967272503   -3.2536856837
  4        -15.8521515939   -3.0781493909   13.6951909330   -3.2561700440
  5        -15.8357139793   -3.0748501933   13.6988803334   -3.2580493133
  6        -15.8246052853   -3.0740779781   13.6997881576   -3.2588327446
  7        -15.8189019501   -3.0737449687   13.7001869911   -3.2592378801
  8        -15.8159785510   -3.0736026016   13.7003615168   -3.2594475790
  9        -15.8144776168   -3.0735437994   13.7004360379   -3.2595560735
 10        -15.8137058024   -3.0735207882   13.7004667348   -3.2596122456
 11        -15.8133083127   -3.0735125946   13.7004786868   -3.2596413656
 12        -15.8131032938   -3.0735102195   13.7004828997   -3.2596564858
 13        -15.8129973902   -3.0735099286   13.7004840891   -3.2596643505
 14        -15.8129426040   -3.0735102506   13.7004842061   -3.2596684489
 15        -15.8129142203   -3.0735106556   13.7004840157   -3.2596705887
 16        -15.8128994940   -3.0735109855   13.7004837906   -3.2596717080
 17        -15.8128918425   -3.0735112169   13.7004836103   -3.2596722946
 18        -15.8128878614   -3.0735113674   13.7004834848   -3.2596726026
 19        -15.8128857871   -3.0735114608   13.7004834035   -3.2596727646
 20        -15.8128847048   -3.0735115170   13.7004833533   -3.2596728500
 21        -15.8128841394   -3.0735115501   13.7004833231   -3.2596728951
 22        -15.8128838436   -3.0735115693   13.7004833054   -3.2596729190
 23        -15.8128836887   -3.0735115802   13.7004832951   -3.2596729316
 24        -15.8128836074   -3.0735115864   13.7004832893   -3.2596729383
Atom SCF converged after  24 iterations to a total energy of    -15.81288361

========================== Calculation in vacuum ==============================
= Adjusting the following parameters: 
= is_implicit_solvent: F
= is_include_apolar: F
= write_denskern: T
= write_tightbox_ngwfs: T
= restart read filename prefix: ""
= restart write filename prefix: "vacuum_"
===============================================================================

Determining parallel strategy ...
... using space-filling curve
... NGWF load balancing: max    164;  min    163;  average    163
... Projector load balancing: max     36;  min     32;  average     33
... done
Calculating direct Ion-Ion energy ...
Ion-Ion Energy        :    836007.97464140527882
Basis initialisation ...... NGWF spheres initialised
... Projector spheres initialised
... NGWF tight boxes initialised
... Tight-boxes gathered
... NGWF basis size (local,global):    1267657  51056225
... Nonlocal pseudopotential projector initialisation
... done

========================== Sparse matrix information ===========================
                        Overlap matrix filling:   6.73%
                        Density kernel filling: 100.00%
              NGWF-Proj overlap matrix filling:   1.76%
                    Hamiltonian matrix filling:   7.60%
                  NGWF diagonal matrix filling:   0.05%
                             KS matrix filling: 100.00% 
                           KSKS matrix filling: 100.00% 
================================================================================

Sparse matrix initialisation ... done

Generating smeared ion density ... done
Smeared ion self correction:     -14525.987107
Smeared ion non-self correction: -835959.637775
NGWF initialisation ...... done
============ Calculation of NGWF S^-1 using Hotelling algorithm ================ 
         Iteration  |  Frobenius norm and Maximum abs value    (of I-S*S_n^-1)   
               1       0.78690256E+02     0.98255847E+00
               2       0.76837885E+02     0.96557103E+00
               3       0.73836508E+02     0.93288113E+00
               4       0.69567263E+02     0.87263123E+00
               5       0.64247275E+02     0.76918294E+00
               6       0.58268126E+02     0.70639149E+00
               7       0.52254493E+02     0.67051076E+00
               8       0.46695870E+02     0.64419121E+00
               9       0.40624402E+02     0.60576656E+00
              10       0.32359135E+02     0.54016162E+00
              11       0.21784570E+02     0.43383694E+00
              12       0.11162233E+02     0.28703077E+00
              13       0.37000179E+01     0.13360062E+00
              14       0.59896500E+00     0.33526240E-01
              15       0.31343354E-01     0.28442616E-02
              16       0.19467653E-03     0.22722002E-04
              17       0.12054503E-07     0.20563757E-08
              18       0.94420439E-13     0.53290705E-14
================================================================================
Calculating local pseudopotential in open BC on the fine real space grid ...
... done

MG BCs: +ve charge blocks (gridpoints):     20451 (   16094576).
MG BCs: -ve charge blocks (gridpoints):      8142 (    1089491).
MG BCs:     Elided blocks (gridpoints):    173463 (  173786558).
MG BCs: Computational effort saved:  99.9850%.
MG BCs: Charge after coarse-graining:           -9.0002257.
MG DL_MG: Calling solver with defect correction order = 8
MG DL_MG: Solver finished
MG Hartree energy from (\int phi*rho dr):              1470.737109
MG Hartree energy from (\int eps (grad phi)^2 dr):     1470.118791
MG Discrepancy due to finite box and discretization:     -0.618319 (  -0.04204%)
MG Correction to account for finite box:                  0.467029
MG Remaining discrepancy, due to discretization:         -0.151290 (  -0.01029%)
 WARNING: xc_energy_potential using alternative initial XC functional PBE.
Up spin density kernel initialisation ... 
======= Optimisation of K by Palser-Manolopoulos canonical purification ======== 
         Iteration  |  Band structure energy |    c_n   
               1       -2598.35527617563685    0.5265289
               2       -2775.00880705338841    0.5169121
               3       -2955.58942942603335    0.5155501
               4       -3105.84127429079854    0.5293327
               5       -3197.82783733942597    0.5655035
               6       -3236.13183318182200    0.6104572
               7       -3249.15227741296485    0.6227067
               8       -3254.80583125445082    0.6222869
               9       -3257.54182056261379    0.6367823
              10       -3258.68578155222076    0.6652369
              11       -3259.13009382615564    0.6927675
              12       -3259.31640600409628    0.6924081
              13       -3259.41443408668147    0.6521714
              14       -3259.47924599550697    0.6079181
              15       -3259.51680201214731    0.5889723
              16       -3259.53179211921042    0.5586875
              17       -3259.53742752148082    0.5053488
              18       -3259.53967273997114    0.4612715
              19       -3259.54038283321415    0.4559761
              20       -3259.54078437965245    0.4810563
              21       -3259.54099315822259    0.4973773
              22       -3259.54104285181666    0.4999525
              23       -3259.54104509755780    0.5000006
              24       -3259.54104510194247    0.5000006
Termination criterion satisfied: band energy change below threshold.
Final occupancy bounds: [    0.00000000000000:    1.00000000000000]
Closest occupancy to 0.5:     1.00000000000000
================================================================================
... done

Writing density kernel to file "complex_36961.vacuum_dkn" ... done

>>> Optimising kernel for current NGWFs:
   Initial electron number for spin 1:    7228.00000000
     Final electron number for spin 1:    7228.00000000

=================== Penalty functional idempotency correction ==================
 RMS occupancy error at iteration   1:  0.000000 (step -0.5000 Ne1=   7228.0000)
            Final RMS occupancy error   :  0.000000 (Ne1=   7228.0000)
               Final occupancy bounds   : [ -0.0000,  1.0000]
================================================================================

................................................................................
<<<<<<<<<<<<<< LNV (Original version) density kernel optimisation >>>>>>>>>>>>>>
~~~~~~~~~~~~~~~~~~~~~~~~~~~~~~~~~~~~~~~~~~~~~~~~~~~~~~~~~~~~~~~~~~~~~~~~~~~~~~~~
   iter  |      energy (Eh)       | rms gradient |  commutator  |   dE (Eh)
MG BCs: +ve charge blocks (gridpoints):     31087 (   17258433).
MG BCs: -ve charge blocks (gridpoints):      8446 (    1122306).
MG BCs:     Elided blocks (gridpoints):    162822 (  172589886).
MG BCs: Computational effort saved:  99.9793%.
MG BCs: Charge after coarse-graining:           -9.0009534.
MG DL_MG: Calling solver with defect correction order = 8
MG DL_MG: Solver finished
MG Hartree energy from (\int phi*rho dr):              1424.060030
MG Hartree energy from (\int eps (grad phi)^2 dr):     1423.394344
MG Discrepancy due to finite box and discretization:     -0.665686 (  -0.04675%)
MG Correction to account for finite box:                  0.471852
MG Remaining discrepancy, due to discretization:         -0.193834 (  -0.01361%)
      ideal mu1:      -0.757011067812
             Q0:  -11525.599031532300
             G0:    -124.126714632838
   RMS gradient:       0.001703810510
MG BCs: +ve charge blocks (gridpoints):     31052 (   17332574).
MG BCs: -ve charge blocks (gridpoints):      8348 (    1099297).
MG BCs:     Elided blocks (gridpoints):    162855 (  172538754).
MG BCs: Computational effort saved:  99.9794%.
MG BCs: Charge after coarse-graining:           -9.0009765.
MG DL_MG: Calling solver with defect correction order = 8
MG DL_MG: Solver finished
MG Hartree energy from (\int phi*rho dr):              1446.984294
MG Hartree energy from (\int eps (grad phi)^2 dr):     1446.334848
MG Discrepancy due to finite box and discretization:     -0.649446 (  -0.04488%)
MG Correction to account for finite box:                  0.471183
MG Remaining discrepancy, due to discretization:         -0.178262 (  -0.01232%)
     Trial step:       0.500000000000
             Q1:  -11537.413394042756
 Quadratic coef:      50.248994805963
 Linear coef   :     -62.063357316419
           Qmin:  -11544.762899069648
Quadratic minimum step length (  0.308779098747) accepted
    Initial Ne1:    7228.00000000
      Final Ne1:    7228.00000000

=================== Penalty functional idempotency correction ==================
 RMS occupancy error at iteration   1:  0.003109 (step -0.4895 Ne1=   7228.0000)
 RMS occupancy error at iteration   2:  0.000022 (step -0.5000 Ne1=   7228.0000)
            Final RMS occupancy error   :  0.000000 (Ne1=   7228.0000)
               Final occupancy bounds   : [  0.0000,  1.0000]
================================================================================

    1        -1.152559903153E+04     1.7038E-03     1.5414E-03
MG BCs: +ve charge blocks (gridpoints):     31052 (   17305643).
MG BCs: -ve charge blocks (gridpoints):      8388 (    1108201).
MG BCs:     Elided blocks (gridpoints):    162855 (  172556781).
MG BCs: Computational effort saved:  99.9793%.
MG BCs: Charge after coarse-graining:           -9.0009678.
MG DL_MG: Calling solver with defect correction order = 8
MG DL_MG: Solver finished
MG Hartree energy from (\int phi*rho dr):              1431.709024
MG Hartree energy from (\int eps (grad phi)^2 dr):     1431.054219
MG Discrepancy due to finite box and discretization:     -0.654805 (  -0.04574%)
MG Correction to account for finite box:                  0.471311
MG Remaining discrepancy, due to discretization:         -0.183495 (  -0.01282%)
      ideal mu1:      -0.796489532612
             Q0:  -11545.130417833920
             G0:     -10.887561671627
   RMS gradient:       0.000501030789
MG BCs: +ve charge blocks (gridpoints):     31056 (   17322734).
MG BCs: -ve charge blocks (gridpoints):      8349 (    1101385).
MG BCs:     Elided blocks (gridpoints):    162851 (  172546506).
MG BCs: Computational effort saved:  99.9794%.
MG BCs: Charge after coarse-graining:           -9.0009720.
MG DL_MG: Calling solver with defect correction order = 8
MG DL_MG: Solver finished
MG Hartree energy from (\int phi*rho dr):              1437.534509
MG Hartree energy from (\int eps (grad phi)^2 dr):     1436.883134
MG Discrepancy due to finite box and discretization:     -0.651375 (  -0.04531%)
MG Correction to account for finite box:                  0.470939
MG Remaining discrepancy, due to discretization:         -0.180437 (  -0.01255%)
     Trial step:       0.392924355790
             Q1:  -11547.619865758112
 Quadratic coef:       1.788540231761
 Linear coef   :      -4.277988155952
           Qmin:  -11547.688535109879
Quadratic minimum step length (  0.469915551914) accepted
    Initial Ne1:    7227.99994124
      Final Ne1:    7228.00000000

=================== Penalty functional idempotency correction ==================
 RMS occupancy error at iteration   1:  0.001457 (step -0.4948 Ne1=   7228.0000)
 RMS occupancy error at iteration   2:  0.000006 (step -0.5000 Ne1=   7228.0000)
            Final RMS occupancy error   :  0.000000 (Ne1=   7228.0000)
               Final occupancy bounds   : [  0.0000,  1.0000]
================================================================================

    2        -1.154513041783E+04     5.0103E-04     4.5327E-04    -1.9531E+01
MG BCs: +ve charge blocks (gridpoints):     31051 (   17325922).
MG BCs: -ve charge blocks (gridpoints):      8345 (    1100101).
MG BCs:     Elided blocks (gridpoints):    162856 (  172544602).
MG BCs: Computational effort saved:  99.9794%.
MG BCs: Charge after coarse-graining:           -9.0009729.
MG DL_MG: Calling solver with defect correction order = 8
MG DL_MG: Solver finished
MG Hartree energy from (\int phi*rho dr):              1438.699209
MG Hartree energy from (\int eps (grad phi)^2 dr):     1438.048461
MG Discrepancy due to finite box and discretization:     -0.650748 (  -0.04523%)
MG Correction to account for finite box:                  0.470875
MG Remaining discrepancy, due to discretization:         -0.179874 (  -0.01250%)
      ideal mu1:      -0.816405292175
             Q0:  -11547.720567758661
             G0:      -1.805668565119
   RMS gradient:       0.000204126571
MG BCs: +ve charge blocks (gridpoints):     31047 (   17327210).
MG BCs: -ve charge blocks (gridpoints):      8352 (    1100000).
MG BCs:     Elided blocks (gridpoints):    162860 (  172543415).
MG BCs: Computational effort saved:  99.9794%.
MG BCs: Charge after coarse-graining:           -9.0009729.
MG DL_MG: Calling solver with defect correction order = 8
MG DL_MG: Solver finished
MG Hartree energy from (\int phi*rho dr):              1438.094046
MG Hartree energy from (\int eps (grad phi)^2 dr):     1437.443716
MG Discrepancy due to finite box and discretization:     -0.650330 (  -0.04522%)
MG Correction to account for finite box:                  0.470678
MG Remaining discrepancy, due to discretization:         -0.179652 (  -0.01249%)
     Trial step:       0.429699040622
             Q1:  -11548.181568141445
 Quadratic coef:       0.314893667330
 Linear coef   :      -0.775894050113
           Qmin:  -11548.198516062692
Quadratic minimum step length (  0.529386525594) accepted
    Initial Ne1:    7227.99998195
      Final Ne1:    7228.00000000

=================== Penalty functional idempotency correction ==================
 RMS occupancy error at iteration   1:  0.000556 (step -0.4979 Ne1=   7228.0000)
 RMS occupancy error at iteration   2:  0.000001 (step -0.5000 Ne1=   7228.0000)
            Final RMS occupancy error   :  0.000000 (Ne1=   7228.0000)
               Final occupancy bounds   : [  0.0000,  1.0000]
================================================================================

    3        -1.154772056776E+04     2.0413E-04     1.8467E-04    -2.5901E+00
MG BCs: +ve charge blocks (gridpoints):     31046 (   17327499).
MG BCs: -ve charge blocks (gridpoints):      8352 (    1100073).
MG BCs:     Elided blocks (gridpoints):    162861 (  172543053).
MG BCs: Computational effort saved:  99.9794%.
MG BCs: Charge after coarse-graining:           -9.0009729.
MG DL_MG: Calling solver with defect correction order = 8
MG DL_MG: Solver finished
MG Hartree energy from (\int phi*rho dr):              1437.958795
MG Hartree energy from (\int eps (grad phi)^2 dr):     1437.308551
MG Discrepancy due to finite box and discretization:     -0.650244 (  -0.04522%)
MG Correction to account for finite box:                  0.470634
MG Remaining discrepancy, due to discretization:         -0.179611 (  -0.01249%)
      ideal mu1:      -0.818996455163
             Q0:  -11548.202874207171
             G0:      -0.388822839725
   RMS gradient:       0.000094896132
MG BCs: +ve charge blocks (gridpoints):     31047 (   17327957).
MG BCs: -ve charge blocks (gridpoints):      8350 (    1099944).
MG BCs:     Elided blocks (gridpoints):    162860 (  172542724).
MG BCs: Computational effort saved:  99.9794%.
MG BCs: Charge after coarse-graining:           -9.0009729.
MG DL_MG: Calling solver with defect correction order = 8
MG DL_MG: Solver finished
MG Hartree energy from (\int phi*rho dr):              1439.001764
MG Hartree energy from (\int eps (grad phi)^2 dr):     1438.351441
MG Discrepancy due to finite box and discretization:     -0.650323 (  -0.04519%)
MG Correction to account for finite box:                  0.470563
MG Remaining discrepancy, due to discretization:         -0.179760 (  -0.01249%)
     Trial step:       0.476945366018
             Q1:  -11548.297815464553
 Quadratic coef:       0.090505994225
 Linear coef   :      -0.185447251609
           Qmin:  -11548.297869802280
Quadratic minimum step length (  0.488631764408) accepted
    Initial Ne1:    7227.99999629
      Final Ne1:    7228.00000000

=================== Penalty functional idempotency correction ==================
 RMS occupancy error at iteration   1:  0.000176 (step -0.4993 Ne1=   7228.0000)
            Final RMS occupancy error   :  0.000000 (Ne1=   7228.0000)
               Final occupancy bounds   : [ -0.0000,  1.0000]
================================================================================

    4        -1.154820287421E+04     9.4896E-05     8.5850E-05    -4.8231E-01
MG BCs: +ve charge blocks (gridpoints):     31047 (   17327974).
MG BCs: -ve charge blocks (gridpoints):      8350 (    1099931).
MG BCs:     Elided blocks (gridpoints):    162860 (  172542720).
MG BCs: Computational effort saved:  99.9794%.
MG BCs: Charge after coarse-graining:           -9.0009729.
MG DL_MG: Calling solver with defect correction order = 8
MG DL_MG: Solver finished
MG Hartree energy from (\int phi*rho dr):              1439.027551
MG Hartree energy from (\int eps (grad phi)^2 dr):     1438.377225
MG Discrepancy due to finite box and discretization:     -0.650326 (  -0.04519%)
MG Correction to account for finite box:                  0.470561
MG Remaining discrepancy, due to discretization:         -0.179764 (  -0.01249%)
      ideal mu1:      -0.819070673275
             Q0:  -11548.298267070670
             G0:      -0.101379663195
   RMS gradient:       0.000048591529
MG BCs: +ve charge blocks (gridpoints):     31048 (   17327641).
MG BCs: -ve charge blocks (gridpoints):      8349 (    1100090).
MG BCs:     Elided blocks (gridpoints):    162859 (  172542894).
MG BCs: Computational effort saved:  99.9794%.
MG BCs: Charge after coarse-graining:           -9.0009727.
MG DL_MG: Calling solver with defect correction order = 8
MG DL_MG: Solver finished
MG Hartree energy from (\int phi*rho dr):              1438.740627
MG Hartree energy from (\int eps (grad phi)^2 dr):     1438.090174
MG Discrepancy due to finite box and discretization:     -0.650453 (  -0.04521%)
MG Correction to account for finite box:                  0.470560
MG Remaining discrepancy, due to discretization:         -0.179893 (  -0.01250%)
     Trial step:       0.482753203742
             Q1:  -11548.321757566999
 Quadratic coef:       0.025450860872
 Linear coef   :      -0.048941357202
           Qmin:  -11548.321795316500
Quadratic minimum step length (  0.464161057326) accepted
    Initial Ne1:    7228.00163037
      Final Ne1:    7228.00000000

=================== Penalty functional idempotency correction ==================
 RMS occupancy error at iteration   1:  0.000059 (step -0.4997 Ne1=   7228.0000)
            Final RMS occupancy error   :  0.000000 (Ne1=   7228.0000)
               Final occupancy bounds   : [ -0.0000,  1.0000]
================================================================================

    5        -1.154829826707E+04     4.8592E-05     4.3960E-05    -9.5393E-02
MG BCs: +ve charge blocks (gridpoints):     31048 (   17327677).
MG BCs: -ve charge blocks (gridpoints):      8349 (    1100074).
MG BCs:     Elided blocks (gridpoints):    162859 (  172542874).
MG BCs: Computational effort saved:  99.9794%.
MG BCs: Charge after coarse-graining:           -9.0009727.
MG DL_MG: Calling solver with defect correction order = 8
MG DL_MG: Solver finished
MG Hartree energy from (\int phi*rho dr):              1438.751656
MG Hartree energy from (\int eps (grad phi)^2 dr):     1438.101208
MG Discrepancy due to finite box and discretization:     -0.650448 (  -0.04521%)
MG Correction to account for finite box:                  0.470560
MG Remaining discrepancy, due to discretization:         -0.179888 (  -0.01250%)
      ideal mu1:      -0.818418433827
             Q0:  -11548.321838218137
             G0:      -0.023917793240
   RMS gradient:       0.000023625610
MG BCs: +ve charge blocks (gridpoints):     31047 (   17327444).
MG BCs: -ve charge blocks (gridpoints):      8349 (    1100205).
MG BCs:     Elided blocks (gridpoints):    162860 (  172542976).
MG BCs: Computational effort saved:  99.9794%.
MG BCs: Charge after coarse-graining:           -9.0009726.
MG DL_MG: Calling solver with defect correction order = 8
MG DL_MG: Solver finished
MG Hartree energy from (\int phi*rho dr):              1438.276752
MG Hartree energy from (\int eps (grad phi)^2 dr):     1437.626286
MG Discrepancy due to finite box and discretization:     -0.650466 (  -0.04523%)
MG Correction to account for finite box:                  0.470568
MG Remaining discrepancy, due to discretization:         -0.179898 (  -0.01251%)
     Trial step:       0.473365860067
             Q1:  -11548.328739906894
 Quadratic coef:       0.004420178011
 Linear coef   :      -0.011321866768
           Qmin:  -11548.329088190128
Quadratic minimum step length (  0.606240878391) accepted
    Initial Ne1:    7228.00076812
      Final Ne1:    7228.00000000

=================== Penalty functional idempotency correction ==================
 RMS occupancy error at iteration   1:  0.000024 (step -0.4999 Ne1=   7228.0000)
            Final RMS occupancy error   :  0.000000 (Ne1=   7228.0000)
               Final occupancy bounds   : [ -0.0000,  1.0000]
================================================================================

    6        -1.154832183822E+04     2.3626E-05     2.1374E-05    -2.3571E-02
MG BCs: +ve charge blocks (gridpoints):     31049 (   17327408).
MG BCs: -ve charge blocks (gridpoints):      8349 (    1100226).
MG BCs:     Elided blocks (gridpoints):    162858 (  172542991).
MG BCs: Computational effort saved:  99.9794%.
MG BCs: Charge after coarse-graining:           -9.0009726.
MG DL_MG: Calling solver with defect correction order = 8
MG DL_MG: Solver finished
MG Hartree energy from (\int phi*rho dr):              1438.143304
MG Hartree energy from (\int eps (grad phi)^2 dr):     1437.492834
MG Discrepancy due to finite box and discretization:     -0.650470 (  -0.04523%)
MG Correction to account for finite box:                  0.470570
MG Remaining discrepancy, due to discretization:         -0.179901 (  -0.01251%)
      ideal mu1:      -0.818324219153
             Q0:  -11548.329093685257
             G0:      -0.009094105687
   RMS gradient:       0.000014583732
MG BCs: +ve charge blocks (gridpoints):     31048 (   17327751).
MG BCs: -ve charge blocks (gridpoints):      8349 (    1100013).
MG BCs:     Elided blocks (gridpoints):    162859 (  172542861).
MG BCs: Computational effort saved:  99.9794%.
MG BCs: Charge after coarse-graining:           -9.0009727.
MG DL_MG: Calling solver with defect correction order = 8
MG DL_MG: Solver finished
MG Hartree energy from (\int phi*rho dr):              1438.639574
MG Hartree energy from (\int eps (grad phi)^2 dr):     1437.989104
MG Discrepancy due to finite box and discretization:     -0.650469 (  -0.04521%)
MG Correction to account for finite box:                  0.470563
MG Remaining discrepancy, due to discretization:         -0.179906 (  -0.01251%)
     Trial step:       0.535699295134
             Q1:  -11548.331320841098
 Quadratic coef:       0.002644550166
 Linear coef   :      -0.004871706007
           Qmin:  -11548.331337310630
Quadratic minimum step length (  0.493424081570) accepted
    Initial Ne1:    7228.00005038
      Final Ne1:    7228.00000000

=================== Penalty functional idempotency correction ==================
 RMS occupancy error at iteration   1:  0.000001 (step -0.5000 Ne1=   7228.0000)
            Final RMS occupancy error   :  0.000000 (Ne1=   7228.0000)
               Final occupancy bounds   : [  0.0000,  1.0000]
================================================================================

    7        -1.154832909369E+04     1.4584E-05     1.3194E-05    -7.2555E-03
MG BCs: +ve charge blocks (gridpoints):     31048 (   17327739).
MG BCs: -ve charge blocks (gridpoints):      8349 (    1100020).
MG BCs:     Elided blocks (gridpoints):    162859 (  172542866).
MG BCs: Computational effort saved:  99.9794%.
MG BCs: Charge after coarse-graining:           -9.0009727.
MG DL_MG: Calling solver with defect correction order = 8
MG DL_MG: Solver finished
MG Hartree energy from (\int phi*rho dr):              1438.600374
MG Hartree energy from (\int eps (grad phi)^2 dr):     1437.949905
MG Discrepancy due to finite box and discretization:     -0.650470 (  -0.04522%)
MG Correction to account for finite box:                  0.470564
MG Remaining discrepancy, due to discretization:         -0.179906 (  -0.01251%)
      ideal mu1:      -0.818635716384
             Q0:  -11548.331337376614
             G0:      -0.004835957163
   RMS gradient:       0.000010635127
MG BCs: +ve charge blocks (gridpoints):     31048 (   17327811).
MG BCs: -ve charge blocks (gridpoints):      8349 (    1099981).
MG BCs:     Elided blocks (gridpoints):    162859 (  172542833).
MG BCs: Computational effort saved:  99.9794%.
MG BCs: Charge after coarse-graining:           -9.0009727.
MG DL_MG: Calling solver with defect correction order = 8
MG DL_MG: Solver finished
MG Hartree energy from (\int phi*rho dr):              1438.659528
MG Hartree energy from (\int eps (grad phi)^2 dr):     1438.009073
MG Discrepancy due to finite box and discretization:     -0.650455 (  -0.04521%)
MG Correction to account for finite box:                  0.470555
MG Remaining discrepancy, due to discretization:         -0.179901 (  -0.01250%)
     Trial step:       0.514127350662
             Q1:  -11548.333113871049
 Quadratic coef:       0.000709803409
 Linear coef   :      -0.002486297844
           Qmin:  -11548.333514626289
Quadratic minimum step length (  0.900442084938) accepted
    Initial Ne1:    7228.00004854
      Final Ne1:    7228.00000000

=================== Penalty functional idempotency correction ==================
 RMS occupancy error at iteration   1:  0.000010 (step -0.4998 Ne1=   7228.0000)
            Final RMS occupancy error   :  0.000000 (Ne1=   7228.0000)
               Final occupancy bounds   : [ -0.0000,  1.0000]
================================================================================

    8        -1.154833133738E+04     1.0635E-05     9.6213E-06    -2.2437E-03
MG BCs: +ve charge blocks (gridpoints):     31049 (   17327874).
MG BCs: -ve charge blocks (gridpoints):      8348 (    1099962).
MG BCs:     Elided blocks (gridpoints):    162858 (  172542789).
MG BCs: Computational effort saved:  99.9794%.
MG BCs: Charge after coarse-graining:           -9.0009727.
MG DL_MG: Calling solver with defect correction order = 8
MG DL_MG: Solver finished
MG Hartree energy from (\int phi*rho dr):              1438.703500
MG Hartree energy from (\int eps (grad phi)^2 dr):     1438.053055
MG Discrepancy due to finite box and discretization:     -0.650444 (  -0.04521%)
MG Correction to account for finite box:                  0.470548
MG Remaining discrepancy, due to discretization:         -0.179897 (  -0.01250%)
      ideal mu1:      -0.818722158015
             Q0:  -11548.333513251040
             G0:      -0.005710831274
   RMS gradient:       0.000011565080
MG BCs: +ve charge blocks (gridpoints):     31048 (   17327773).
MG BCs: -ve charge blocks (gridpoints):      8350 (    1100016).
MG BCs:     Elided blocks (gridpoints):    162859 (  172542836).
MG BCs: Computational effort saved:  99.9794%.
MG BCs: Charge after coarse-graining:           -9.0009727.
MG DL_MG: Calling solver with defect correction order = 8
MG DL_MG: Solver finished
MG Hartree energy from (\int phi*rho dr):              1438.438397
MG Hartree energy from (\int eps (grad phi)^2 dr):     1437.787980
MG Discrepancy due to finite box and discretization:     -0.650416 (  -0.04522%)
MG Correction to account for finite box:                  0.470532
MG Remaining discrepancy, due to discretization:         -0.179884 (  -0.01251%)
     Trial step:       0.680398341822
             Q1:  -11548.335793562583
 Quadratic coef:       0.001605328587
 Linear coef   :      -0.003885640130
           Qmin:  -11548.335864514098
Quadratic minimum step length (  0.823439862150) accepted
    Initial Ne1:    7228.00007953
      Final Ne1:    7228.00000000

=================== Penalty functional idempotency correction ==================
 RMS occupancy error at iteration   1:  0.000036 (step -0.4990 Ne1=   7228.0000)
            Final RMS occupancy error   :  0.000000 (Ne1=   7228.0000)
               Final occupancy bounds   : [ -0.0000,  1.0000]
================================================================================

    9        -1.154833351325E+04     1.1565E-05     1.0463E-05    -2.1759E-03
MG BCs: +ve charge blocks (gridpoints):     31048 (   17327732).
MG BCs: -ve charge blocks (gridpoints):      8350 (    1100036).
MG BCs:     Elided blocks (gridpoints):    162859 (  172542857).
MG BCs: Computational effort saved:  99.9794%.
MG BCs: Charge after coarse-graining:           -9.0009727.
MG DL_MG: Calling solver with defect correction order = 8
MG DL_MG: Solver finished
MG Hartree energy from (\int phi*rho dr):              1438.382160
MG Hartree energy from (\int eps (grad phi)^2 dr):     1437.731750
MG Discrepancy due to finite box and discretization:     -0.650410 (  -0.04522%)
MG Correction to account for finite box:                  0.470528
MG Remaining discrepancy, due to discretization:         -0.179882 (  -0.01251%)
      ideal mu1:      -0.818468472743
   10        -1.154833586321E+04     1.1069E-05     1.0014E-05    -2.3500E-03
Finished density kernel iterations (  10)

Writing density kernel to file "complex_36961.vacuum_dkn" ... done


>>> Density kernel optimised for the current NGWF basis:
     ~~~~~~~~~~~~~~~~~~~~~~~~~~~~~~~~~~~~~~~~~~~~~~~~~~~~~~~~~~~
     Total energy                =  -1.15483358632138E+04  Eh
     Estimated bandgap           =  -1.7692E-01  Eh
     RMS occupancy error         =   2.7869E-08
     [H,K] commutator            =   1.0014E-05
     Occupancy bounds            = [ -0.000:  1.000]
     ~~~~~~~~~~~~~~~~~~~~~~~~~~~~~~~~~~~~~~~~~~~~~~~~~~~~~~~~~~~




################################################################################
########################### NGWF CG iteration  001 #############################
################################################################################
****** Reciprocal space K.E. preconditioning with k_zero =  3.5000 a0^-1 *******

>>> Checking for convergence of NGWFs:   NOT CONVERGED
  ========================================================================
         NGWF RMS gradient =  1.6449E-03 >  2.0000E-06  | above tolerance
  ========================================================================

>>> Improving NGWFs using line search:
============ Calculation of NGWF S^-1 using Hotelling algorithm ================ 
         Iteration  |  Frobenius norm and Maximum abs value    (of I-S*S_n^-1)   
               1       0.23913176E+00     0.69632779E-02
               2       0.13272324E-02     0.64873203E-04
               3       0.69057437E-07     0.59001957E-08
               4       0.13170390E-12     0.66613381E-14
================================================================================
MG BCs: +ve charge blocks (gridpoints):     30619 (   17275903).
MG BCs: -ve charge blocks (gridpoints):      8365 (    1097097).
MG BCs:     Elided blocks (gridpoints):    163290 (  172597625).
MG BCs: Computational effort saved:  99.9796%.
MG BCs: Charge after coarse-graining:           -9.0009792.
MG DL_MG: Calling solver with defect correction order = 8
MG DL_MG: Solver finished
MG Hartree energy from (\int phi*rho dr):              1410.097296
MG Hartree energy from (\int eps (grad phi)^2 dr):     1409.448284
MG Discrepancy due to finite box and discretization:     -0.649012 (  -0.04603%)
MG Correction to account for finite box:                  0.470487
MG Remaining discrepancy, due to discretization:         -0.178525 (  -0.01266%)
============ Calculation of NGWF S^-1 using Hotelling algorithm ================ 
         Iteration  |  Frobenius norm and Maximum abs value    (of I-S*S_n^-1)   
               1       0.21728675E+01     0.52003297E-01
               2       0.97298918E-01     0.34192040E-02
               3       0.27321185E-03     0.16723369E-04
               4       0.39067830E-08     0.46977355E-09
               5       0.11506931E-12     0.45519144E-14
================================================================================
------------------------------- NGWF line search -------------------------------
RMS gradient                =       0.00164493430040
Trial step length           =               0.122474
Gradient along search dir.  =       -297.04431817779
Functional at step 0        =  -11548.33586321375333
Functional at step 1        =  -11581.86954189511016
Functional predicted        =  -11664.57071363375690
Selected quadratic step     =               0.782609
--------------------------- NGWF line search finished --------------------------
                                               
Writing NGWFs to file "complex_36961.vacuum_tightbox_ngwfs"....  done

>>> Optimising kernel for current NGWFs:
   Initial electron number for spin 1:    7274.09950547
     Final electron number for spin 1:    7228.00000000

=================== Penalty functional idempotency correction ==================
 RMS occupancy error at iteration   1:  0.005240 (step -0.4826 Ne1=   7228.0000)
 RMS occupancy error at iteration   2:  0.000097 (step -0.5003 Ne1=   7228.0000)
            Final RMS occupancy error   :  0.000000 (Ne1=   7228.0000)
               Final occupancy bounds   : [  0.0000,  1.0000]
================================================================================

................................................................................
<<<<<<<<<<<<<< LNV (Original version) density kernel optimisation >>>>>>>>>>>>>>
~~~~~~~~~~~~~~~~~~~~~~~~~~~~~~~~~~~~~~~~~~~~~~~~~~~~~~~~~~~~~~~~~~~~~~~~~~~~~~~~
   iter  |      energy (Eh)       | rms gradient |  commutator  |   dE (Eh)
MG BCs: +ve charge blocks (gridpoints):     24944 (   17007725).
MG BCs: -ve charge blocks (gridpoints):      8511 (    1066929).
MG BCs:     Elided blocks (gridpoints):    168970 (  172895971).
MG BCs: Computational effort saved:  99.9825%.
MG BCs: Charge after coarse-graining:           -9.0007358.
MG DL_MG: Calling solver with defect correction order = 8
MG DL_MG: Solver finished
MG Hartree energy from (\int phi*rho dr):              1279.707190
MG Hartree energy from (\int eps (grad phi)^2 dr):     1279.060917
MG Discrepancy due to finite box and discretization:     -0.646273 (  -0.05050%)
MG Correction to account for finite box:                  0.470298
MG Remaining discrepancy, due to discretization:         -0.175974 (  -0.01375%)
      ideal mu1:      -0.760604636296
             Q0:  -11663.933630895684
             G0:      -9.574383452288
   RMS gradient:       0.000473199276
MG BCs: +ve charge blocks (gridpoints):     24999 (   17021047).
MG BCs: -ve charge blocks (gridpoints):      8494 (    1063396).
MG BCs:     Elided blocks (gridpoints):    168915 (  172886182).
MG BCs: Computational effort saved:  99.9825%.
MG BCs: Charge after coarse-graining:           -9.0007322.
MG DL_MG: Calling solver with defect correction order = 8
MG DL_MG: Solver finished
MG Hartree energy from (\int phi*rho dr):              1293.410087
MG Hartree energy from (\int eps (grad phi)^2 dr):     1292.758854
MG Discrepancy due to finite box and discretization:     -0.651233 (  -0.05035%)
MG Correction to account for finite box:                  0.470001
MG Remaining discrepancy, due to discretization:         -0.181232 (  -0.01401%)
     Trial step:       0.748509930994
             Q1:  -11663.016495840740
 Quadratic coef:       8.083656152126
 Linear coef   :      -7.166521097182
           Qmin:  -11665.521990904752
Quadratic minimum step length (  0.331793690316) accepted
    Initial Ne1:    7227.99899956
      Final Ne1:    7228.00000000

=================== Penalty functional idempotency correction ==================
 RMS occupancy error at iteration   1:  0.000351 (step -0.4986 Ne1=   7228.0000)
 RMS occupancy error at iteration   2:  0.000000 (step -0.5000 Ne1=   7228.0000)
            Final RMS occupancy error   :  0.000000 (Ne1=   7228.0000)
               Final occupancy bounds   : [  0.0000,  1.0000]
================================================================================

    1        -1.166393363090E+04     4.7320E-04     4.2809E-04
MG BCs: +ve charge blocks (gridpoints):     24970 (   17013618).
MG BCs: -ve charge blocks (gridpoints):      8504 (    1065455).
MG BCs:     Elided blocks (gridpoints):    168944 (  172891552).
MG BCs: Computational effort saved:  99.9825%.
MG BCs: Charge after coarse-graining:           -9.0007342.
MG DL_MG: Calling solver with defect correction order = 8
MG DL_MG: Solver finished
MG Hartree energy from (\int phi*rho dr):              1284.748615
MG Hartree energy from (\int eps (grad phi)^2 dr):     1284.100244
MG Discrepancy due to finite box and discretization:     -0.648370 (  -0.05047%)
MG Correction to account for finite box:                  0.470145
MG Remaining discrepancy, due to discretization:         -0.178226 (  -0.01387%)
      ideal mu1:      -0.766042197610
             Q0:  -11665.502018457395
             G0:      -0.865934713980
   RMS gradient:       0.000142804479
MG BCs: +ve charge blocks (gridpoints):     24972 (   17013310).
MG BCs: -ve charge blocks (gridpoints):      8507 (    1066072).
MG BCs:     Elided blocks (gridpoints):    168942 (  172891243).
MG BCs: Computational effort saved:  99.9825%.
MG BCs: Charge after coarse-graining:           -9.0007341.
MG DL_MG: Calling solver with defect correction order = 8
MG DL_MG: Solver finished
MG Hartree energy from (\int phi*rho dr):              1285.321843
MG Hartree energy from (\int eps (grad phi)^2 dr):     1284.673223
MG Discrepancy due to finite box and discretization:     -0.648620 (  -0.05046%)
MG Correction to account for finite box:                  0.470128
MG Remaining discrepancy, due to discretization:         -0.178492 (  -0.01389%)
     Trial step:       0.498348143613
             Q1:  -11665.698644256452
 Quadratic coef:       0.234911158144
 Linear coef   :      -0.431536957202
           Qmin:  -11665.700204174607
Quadratic minimum step length (  0.457738242877) accepted
    Initial Ne1:    7227.99987429
      Final Ne1:    7228.00000000

=================== Penalty functional idempotency correction ==================
 RMS occupancy error at iteration   1:  0.000134 (step -0.4995 Ne1=   7228.0000)
            Final RMS occupancy error   :  0.000000 (Ne1=   7228.0000)
               Final occupancy bounds   : [ -0.0000,  1.0000]
================================================================================

    2        -1.166550201846E+04     1.4280E-04     1.2919E-04    -1.5684E+00
MG BCs: +ve charge blocks (gridpoints):     24972 (   17013336).
MG BCs: -ve charge blocks (gridpoints):      8507 (    1066031).
MG BCs:     Elided blocks (gridpoints):    168942 (  172891258).
MG BCs: Computational effort saved:  99.9825%.
MG BCs: Charge after coarse-graining:           -9.0007341.
MG DL_MG: Calling solver with defect correction order = 8
MG DL_MG: Solver finished
MG Hartree energy from (\int phi*rho dr):              1285.275602
MG Hartree energy from (\int eps (grad phi)^2 dr):     1284.627003
MG Discrepancy due to finite box and discretization:     -0.648599 (  -0.05046%)
MG Correction to account for finite box:                  0.470129
MG Remaining discrepancy, due to discretization:         -0.178470 (  -0.01389%)
      ideal mu1:      -0.766690596816
             Q0:  -11665.700579491677
             G0:      -0.170719897740
   RMS gradient:       0.000063125027
MG BCs: +ve charge blocks (gridpoints):     24973 (   17012746).
MG BCs: -ve charge blocks (gridpoints):      8509 (    1066390).
MG BCs:     Elided blocks (gridpoints):    168941 (  172891489).
MG BCs: Computational effort saved:  99.9825%.
MG BCs: Charge after coarse-graining:           -9.0007340.
MG DL_MG: Calling solver with defect correction order = 8
MG DL_MG: Solver finished
MG Hartree energy from (\int phi*rho dr):              1284.709475
MG Hartree energy from (\int eps (grad phi)^2 dr):     1284.060962
MG Discrepancy due to finite box and discretization:     -0.648513 (  -0.05048%)
MG Correction to account for finite box:                  0.470130
MG Remaining discrepancy, due to discretization:         -0.178383 (  -0.01389%)
     Trial step:       0.477611770791
             Q1:  -11665.750271889032
 Quadratic coef:       0.031845435315
 Linear coef   :      -0.081537832669
           Qmin:  -11665.752772357708
Quadratic minimum step length (  0.611444438782) accepted
    Initial Ne1:    7228.00051614
      Final Ne1:    7228.00000000

=================== Penalty functional idempotency correction ==================
 RMS occupancy error at iteration   1:  0.000068 (step -0.4998 Ne1=   7228.0000)
            Final RMS occupancy error   :  0.000000 (Ne1=   7228.0000)
               Final occupancy bounds   : [ -0.0000,  1.0000]
================================================================================

    3        -1.166570057949E+04     6.3125E-05     5.7108E-05    -1.9856E-01
MG BCs: +ve charge blocks (gridpoints):     24971 (   17012607).
MG BCs: -ve charge blocks (gridpoints):      8510 (    1066467).
MG BCs:     Elided blocks (gridpoints):    168943 (  172891551).
MG BCs: Computational effort saved:  99.9825%.
MG BCs: Charge after coarse-graining:           -9.0007340.
MG DL_MG: Calling solver with defect correction order = 8
MG DL_MG: Solver finished
MG Hartree energy from (\int phi*rho dr):              1284.550499
MG Hartree energy from (\int eps (grad phi)^2 dr):     1283.902009
MG Discrepancy due to finite box and discretization:     -0.648490 (  -0.05048%)
MG Correction to account for finite box:                  0.470130
MG Remaining discrepancy, due to discretization:         -0.178360 (  -0.01388%)
      ideal mu1:      -0.765800830090
             Q0:  -11665.752871433389
             G0:      -0.033046722364
   RMS gradient:       0.000027758060
MG BCs: +ve charge blocks (gridpoints):     24969 (   17012367).
MG BCs: -ve charge blocks (gridpoints):      8509 (    1066574).
MG BCs:     Elided blocks (gridpoints):    168945 (  172891684).
MG BCs: Computational effort saved:  99.9825%.
MG BCs: Charge after coarse-graining:           -9.0007341.
MG DL_MG: Calling solver with defect correction order = 8
MG DL_MG: Solver finished
MG Hartree energy from (\int phi*rho dr):              1284.565225
MG Hartree energy from (\int eps (grad phi)^2 dr):     1283.916816
MG Discrepancy due to finite box and discretization:     -0.648409 (  -0.05048%)
MG Correction to account for finite box:                  0.470135
MG Remaining discrepancy, due to discretization:         -0.178273 (  -0.01388%)
     Trial step:       0.540400833777
             Q1:  -11665.761659739772
 Quadratic coef:       0.009070169937
 Linear coef   :      -0.017858476319
           Qmin:  -11665.761661929560
Quadratic minimum step length (  0.532004116762) accepted
    Initial Ne1:    7228.00023330
      Final Ne1:    7228.00000000

=================== Penalty functional idempotency correction ==================
 RMS occupancy error at iteration   1:  0.000018 (step -0.4999 Ne1=   7228.0000)
            Final RMS occupancy error   :  0.000000 (Ne1=   7228.0000)
               Final occupancy bounds   : [ -0.0000,  1.0000]
================================================================================

    4        -1.166575287143E+04     2.7758E-05     2.5112E-05    -5.2292E-02
MG BCs: +ve charge blocks (gridpoints):     24969 (   17012372).
MG BCs: -ve charge blocks (gridpoints):      8509 (    1066574).
MG BCs:     Elided blocks (gridpoints):    168945 (  172891679).
MG BCs: Computational effort saved:  99.9825%.
MG BCs: Charge after coarse-graining:           -9.0007340.
MG DL_MG: Calling solver with defect correction order = 8
MG DL_MG: Solver finished
MG Hartree energy from (\int phi*rho dr):              1284.564985
MG Hartree energy from (\int eps (grad phi)^2 dr):     1283.916575
MG Discrepancy due to finite box and discretization:     -0.648410 (  -0.05048%)
MG Correction to account for finite box:                  0.470135
MG Remaining discrepancy, due to discretization:         -0.178275 (  -0.01388%)
      ideal mu1:      -0.765805985339
             Q0:  -11665.761666722945
             G0:      -0.010001029518
   RMS gradient:       0.000015290662
MG BCs: +ve charge blocks (gridpoints):     24969 (   17012805).
MG BCs: -ve charge blocks (gridpoints):      8506 (    1066407).
MG BCs:     Elided blocks (gridpoints):    168945 (  172891413).
MG BCs: Computational effort saved:  99.9825%.
MG BCs: Charge after coarse-graining:           -9.0007340.
MG DL_MG: Calling solver with defect correction order = 8
MG DL_MG: Solver finished
MG Hartree energy from (\int phi*rho dr):              1284.896923
MG Hartree energy from (\int eps (grad phi)^2 dr):     1284.248533
MG Discrepancy due to finite box and discretization:     -0.648390 (  -0.05046%)
MG Correction to account for finite box:                  0.470133
MG Remaining discrepancy, due to discretization:         -0.178258 (  -0.01387%)
     Trial step:       0.536186038862
             Q1:  -11665.764197029406
 Quadratic coef:       0.002832105940
 Linear coef   :      -0.005362412402
           Qmin:  -11665.764205069619
Quadratic minimum step length (  0.507617074642) accepted
    Initial Ne1:    7228.00008014
      Final Ne1:    7228.00000000

=================== Penalty functional idempotency correction ==================
 RMS occupancy error at iteration   1:  0.000007 (step -0.5000 Ne1=   7228.0000)
            Final RMS occupancy error   :  0.000000 (Ne1=   7228.0000)
               Final occupancy bounds   : [ -0.0000,  1.0000]
================================================================================

    5        -1.166576166672E+04     1.5291E-05     1.3833E-05    -8.7953E-03
MG BCs: +ve charge blocks (gridpoints):     24969 (   17012780).
MG BCs: -ve charge blocks (gridpoints):      8507 (    1066421).
MG BCs:     Elided blocks (gridpoints):    168945 (  172891424).
MG BCs: Computational effort saved:  99.9825%.
MG BCs: Charge after coarse-graining:           -9.0007340.
MG DL_MG: Calling solver with defect correction order = 8
MG DL_MG: Solver finished
MG Hartree energy from (\int phi*rho dr):              1284.879212
MG Hartree energy from (\int eps (grad phi)^2 dr):     1284.230821
MG Discrepancy due to finite box and discretization:     -0.648391 (  -0.05046%)
MG Correction to account for finite box:                  0.470133
MG Remaining discrepancy, due to discretization:         -0.178259 (  -0.01387%)
      ideal mu1:      -0.766065181821
             Q0:  -11665.764205716318
             G0:      -0.002380489495
   RMS gradient:       0.000007459804
MG BCs: +ve charge blocks (gridpoints):     24970 (   17012744).
MG BCs: -ve charge blocks (gridpoints):      8507 (    1066457).
MG BCs:     Elided blocks (gridpoints):    168944 (  172891424).
MG BCs: Computational effort saved:  99.9825%.
MG BCs: Charge after coarse-graining:           -9.0007340.
MG DL_MG: Calling solver with defect correction order = 8
MG DL_MG: Solver finished
MG Hartree energy from (\int phi*rho dr):              1284.843529
MG Hartree energy from (\int eps (grad phi)^2 dr):     1284.195145
MG Discrepancy due to finite box and discretization:     -0.648384 (  -0.05046%)
MG Correction to account for finite box:                  0.470129
MG Remaining discrepancy, due to discretization:         -0.178255 (  -0.01387%)
     Trial step:       0.521706036491
             Q1:  -11665.764913225081
 Quadratic coef:       0.000534406976
 Linear coef   :      -0.001241915739
           Qmin:  -11665.764927242595
Quadratic minimum step length (  0.606199925457) accepted
    Initial Ne1:    7228.00002656
      Final Ne1:    7228.00000000

=================== Penalty functional idempotency correction ==================
 RMS occupancy error at iteration   1:  0.000003 (step -0.5000 Ne1=   7228.0000)
            Final RMS occupancy error   :  0.000000 (Ne1=   7228.0000)
               Final occupancy bounds   : [  0.0000,  1.0000]
================================================================================

    6        -1.166576420572E+04     7.4598E-06     6.7487E-06    -2.5390E-03
MG BCs: +ve charge blocks (gridpoints):     24970 (   17012745).
MG BCs: -ve charge blocks (gridpoints):      8507 (    1066462).
MG BCs:     Elided blocks (gridpoints):    168944 (  172891418).
MG BCs: Computational effort saved:  99.9825%.
MG BCs: Charge after coarse-graining:           -9.0007340.
MG DL_MG: Calling solver with defect correction order = 8
MG DL_MG: Solver finished
MG Hartree energy from (\int phi*rho dr):              1284.837754
MG Hartree energy from (\int eps (grad phi)^2 dr):     1284.189371
MG Discrepancy due to finite box and discretization:     -0.648383 (  -0.05046%)
MG Correction to account for finite box:                  0.470128
MG Remaining discrepancy, due to discretization:         -0.178254 (  -0.01387%)
      ideal mu1:      -0.766016979629
             Q0:  -11665.764927318553
             G0:      -0.000880341967
   RMS gradient:       0.000004537476
MG BCs: +ve charge blocks (gridpoints):     24970 (   17012612).
MG BCs: -ve charge blocks (gridpoints):      8507 (    1066505).
MG BCs:     Elided blocks (gridpoints):    168944 (  172891508).
MG BCs: Computational effort saved:  99.9825%.
MG BCs: Charge after coarse-graining:           -9.0007340.
MG DL_MG: Calling solver with defect correction order = 8
MG DL_MG: Solver finished
MG Hartree energy from (\int phi*rho dr):              1284.775875
MG Hartree energy from (\int eps (grad phi)^2 dr):     1284.127490
MG Discrepancy due to finite box and discretization:     -0.648385 (  -0.05047%)
MG Correction to account for finite box:                  0.470129
MG Remaining discrepancy, due to discretization:         -0.178255 (  -0.01387%)
     Trial step:       0.562368349422
             Q1:  -11665.765127700637
 Quadratic coef:       0.000294694375
 Linear coef   :      -0.000495076459
           Qmin:  -11665.765135246427
Quadratic minimum step length (  0.472379785068) accepted
    Initial Ne1:    7227.99999925
      Final Ne1:    7228.00000000

=================== Penalty functional idempotency correction ==================
 RMS occupancy error at iteration   1:  0.000000 (step -0.5000 Ne1=   7228.0000)
            Final RMS occupancy error   :  0.000000 (Ne1=   7228.0000)
               Final occupancy bounds   : [  0.0000,  1.0000]
================================================================================

    7        -1.166576492732E+04     4.5375E-06     4.1049E-06    -7.2160E-04
MG BCs: +ve charge blocks (gridpoints):     24970 (   17012634).
MG BCs: -ve charge blocks (gridpoints):      8507 (    1066501).
MG BCs:     Elided blocks (gridpoints):    168944 (  172891490).
MG BCs: Computational effort saved:  99.9825%.
MG BCs: Charge after coarse-graining:           -9.0007340.
MG DL_MG: Calling solver with defect correction order = 8
MG DL_MG: Solver finished
MG Hartree energy from (\int phi*rho dr):              1284.785767
MG Hartree energy from (\int eps (grad phi)^2 dr):     1284.137383
MG Discrepancy due to finite box and discretization:     -0.648384 (  -0.05047%)
MG Correction to account for finite box:                  0.470129
MG Remaining discrepancy, due to discretization:         -0.178255 (  -0.01387%)
      ideal mu1:      -0.765960241719
             Q0:  -11665.765135240857
             G0:      -0.000487835339
   RMS gradient:       0.000003377604
MG BCs: +ve charge blocks (gridpoints):     24970 (   17012609).
MG BCs: -ve charge blocks (gridpoints):      8507 (    1066504).
MG BCs:     Elided blocks (gridpoints):    168944 (  172891512).
MG BCs: Computational effort saved:  99.9825%.
MG BCs: Charge after coarse-graining:           -9.0007340.
MG DL_MG: Calling solver with defect correction order = 8
MG DL_MG: Solver finished
MG Hartree energy from (\int phi*rho dr):              1284.764613
MG Hartree energy from (\int eps (grad phi)^2 dr):     1284.116229
MG Discrepancy due to finite box and discretization:     -0.648384 (  -0.05047%)
MG Correction to account for finite box:                  0.470129
MG Remaining discrepancy, due to discretization:         -0.178255 (  -0.01387%)
     Trial step:       0.515413853159
             Q1:  -11665.765323746251
 Quadratic coef:       0.000062931698
 Linear coef   :      -0.000251437092
           Qmin:  -11665.765386388581
Quadratic minimum step length (  1.029641372051) accepted
    Initial Ne1:    7227.99999909
      Final Ne1:    7228.00000000

=================== Penalty functional idempotency correction ==================
 RMS occupancy error at iteration   1:  0.000002 (step -0.5000 Ne1=   7228.0000)
            Final RMS occupancy error   :  0.000000 (Ne1=   7228.0000)
               Final occupancy bounds   : [  0.0000,  1.0000]
================================================================================

    8        -1.166576513524E+04     3.3776E-06     3.0556E-06    -2.0792E-04
MG BCs: +ve charge blocks (gridpoints):     24970 (   17012592).
MG BCs: -ve charge blocks (gridpoints):      8507 (    1066514).
MG BCs:     Elided blocks (gridpoints):    168944 (  172891519).
MG BCs: Computational effort saved:  99.9825%.
MG BCs: Charge after coarse-graining:           -9.0007340.
MG DL_MG: Calling solver with defect correction order = 8
MG DL_MG: Solver finished
[...]
 RMS occupancy error at iteration   1:  0.000000 (step -0.5000 Ne1=   7228.0000)
            Final RMS occupancy error   :  0.000000 (Ne1=   7228.0000)
               Final occupancy bounds   : [  0.0000,  1.0000]
================================================================================

    7        -1.170158333032E+04     5.4077E-09     4.8922E-09     2.3283E-10

Reusing previously generated solute cavity.
MG BCs: +ve charge blocks (gridpoints):     29222 (   19137262).
MG BCs: -ve charge blocks (gridpoints):      8529 (    1043412).
MG BCs:     Elided blocks (gridpoints):    164692 (  170789951).
MG BCs: Computational effort saved:  99.9802%.
MG BCs: Charge after coarse-graining:           -9.0009800.
MG DL_MG: Calling solver with defect correction order = 8
MG DL_MG: Solver finished
MG Hartree energy from (\int phi*rho dr):              1235.933684
MG Hartree energy from (\int eps (grad phi)^2 dr):     1235.749805
MG Discrepancy due to finite box and discretization:     -0.183879 (  -0.01488%)
MG Correction to account for finite box:                  0.006419
MG Remaining discrepancy, due to discretization:         -0.177459 (  -0.01436%)
      ideal mu1:      -0.514074223550
             Q0:  -11701.583330323105
             G0:      -0.000000001738
   RMS gradient:       0.000000004674

Reusing previously generated solute cavity.
MG BCs: +ve charge blocks (gridpoints):     29222 (   19137262).
MG BCs: -ve charge blocks (gridpoints):      8529 (    1043412).
MG BCs:     Elided blocks (gridpoints):    164692 (  170789951).
MG BCs: Computational effort saved:  99.9802%.
MG BCs: Charge after coarse-graining:           -9.0009800.
MG DL_MG: Calling solver with defect correction order = 8
MG DL_MG: Solver finished
MG Hartree energy from (\int phi*rho dr):              1235.933695
MG Hartree energy from (\int eps (grad phi)^2 dr):     1235.749816
MG Discrepancy due to finite box and discretization:     -0.183879 (  -0.01488%)
MG Correction to account for finite box:                  0.006419
MG Remaining discrepancy, due to discretization:         -0.177459 (  -0.01436%)
     Trial step:       0.183392862024
             Q1:  -11701.583330322756
 Quadratic coef:       0.000000000668
 Linear coef   :      -0.000000000319
           Qmin:  -11701.583330323143
Quadratic minimum step length (  0.043785551317) accepted
    Initial Ne1:    7228.00000000
      Final Ne1:    7228.00000000

=================== Penalty functional idempotency correction ==================
 RMS occupancy error at iteration   1:  0.000000 (step -0.5000 Ne1=   7228.0000)
            Final RMS occupancy error   :  0.000000 (Ne1=   7228.0000)
               Final occupancy bounds   : [  0.0000,  1.0000]
================================================================================

    8        -1.170158333032E+04     4.6744E-09     4.2289E-09     1.1642E-10

Reusing previously generated solute cavity.
MG BCs: +ve charge blocks (gridpoints):     29222 (   19137262).
MG BCs: -ve charge blocks (gridpoints):      8529 (    1043412).
MG BCs:     Elided blocks (gridpoints):    164692 (  170789951).
MG BCs: Computational effort saved:  99.9802%.
MG BCs: Charge after coarse-graining:           -9.0009800.
MG DL_MG: Calling solver with defect correction order = 8
MG DL_MG: Solver finished
MG Hartree energy from (\int phi*rho dr):              1235.933686
MG Hartree energy from (\int eps (grad phi)^2 dr):     1235.749808
MG Discrepancy due to finite box and discretization:     -0.183879 (  -0.01488%)
MG Correction to account for finite box:                  0.006419
MG Remaining discrepancy, due to discretization:         -0.177459 (  -0.01436%)
      ideal mu1:      -0.514074223769
             Q0:  -11701.583330323105
             G0:      -0.000000002026
   RMS gradient:       0.000000004214

Reusing previously generated solute cavity.
MG BCs: +ve charge blocks (gridpoints):     29222 (   19137262).
MG BCs: -ve charge blocks (gridpoints):      8529 (    1043412).
MG BCs:     Elided blocks (gridpoints):    164692 (  170789951).
MG BCs: Computational effort saved:  99.9802%.
MG BCs: Charge after coarse-graining:           -9.0009800.
MG DL_MG: Calling solver with defect correction order = 8
MG DL_MG: Solver finished
MG Hartree energy from (\int phi*rho dr):              1235.933693
MG Hartree energy from (\int eps (grad phi)^2 dr):     1235.749814
MG Discrepancy due to finite box and discretization:     -0.183879 (  -0.01488%)
MG Correction to account for finite box:                  0.006419
MG Remaining discrepancy, due to discretization:         -0.177459 (  -0.01436%)
     Trial step:       0.089610030529
             Q1:  -11701.583330322872
 Quadratic coef:       0.000000000415
 Linear coef   :      -0.000000000182
           Qmin:  -11701.583330323125
Quadratic minimum step length (  0.019609539640) accepted
    Initial Ne1:    7228.00000000
      Final Ne1:    7228.00000000

=================== Penalty functional idempotency correction ==================
 RMS occupancy error at iteration   1:  0.000000 (step -0.5000 Ne1=   7228.0000)
            Final RMS occupancy error   :  0.000000 (Ne1=   7228.0000)
               Final occupancy bounds   : [ -0.0000,  1.0000]
================================================================================

    9        -1.170158333032E+04     4.2142E-09     3.8125E-09     0.0000E+00

Reusing previously generated solute cavity.
MG BCs: +ve charge blocks (gridpoints):     29222 (   19137262).
MG BCs: -ve charge blocks (gridpoints):      8529 (    1043412).
MG BCs:     Elided blocks (gridpoints):    164692 (  170789951).
MG BCs: Computational effort saved:  99.9802%.
MG BCs: Charge after coarse-graining:           -9.0009800.
MG DL_MG: Calling solver with defect correction order = 8
MG DL_MG: Solver finished
MG Hartree energy from (\int phi*rho dr):              1235.933688
MG Hartree energy from (\int eps (grad phi)^2 dr):     1235.749809
MG Discrepancy due to finite box and discretization:     -0.183879 (  -0.01488%)
MG Correction to account for finite box:                  0.006419
MG Remaining discrepancy, due to discretization:         -0.177459 (  -0.01436%)
      ideal mu1:      -0.514074223890
   10        -1.170158333032E+04     3.9627E-09     3.5849E-09     1.1642E-10
Finished density kernel iterations (  10)

Writing density kernel to file "complex_36961.dkn" ... done


>>> Density kernel optimised for the current NGWF basis:
     ~~~~~~~~~~~~~~~~~~~~~~~~~~~~~~~~~~~~~~~~~~~~~~~~~~~~~~~~~~~
     Total energy                =  -1.17015833303230E+04  Eh
     Estimated bandgap           =   1.1506E-01  Eh
     RMS occupancy error         =   5.7719E-16
     [H,K] commutator            =   3.5849E-09
     Occupancy bounds            = [ -0.000:  1.000]
     ~~~~~~~~~~~~~~~~~~~~~~~~~~~~~~~~~~~~~~~~~~~~~~~~~~~~~~~~~~~




################################################################################
########################### NGWF CG iteration  005 #############################
################################################################################
****** Reciprocal space K.E. preconditioning with k_zero =  3.5000 a0^-1 *******

>>> Checking for convergence of NGWFs: 
           ........................................................
           |         *** NGWF optimisation converged ***          |
           | RMS NGWF gradient =    0.00000106565715              |
           | Criteria satisfied:                                  |
           | -> RMS NGWF gradient lower than set threshold.       |
           ========================================================

Reusing previously generated solute cavity.
MG BCs: +ve charge blocks (gridpoints):     29222 (   19137262).
MG BCs: -ve charge blocks (gridpoints):      8529 (    1043412).
MG BCs:     Elided blocks (gridpoints):    164692 (  170789951).
MG BCs: Computational effort saved:  99.9802%.
MG BCs: Charge after coarse-graining:           -9.0009800.
MG DL_MG: Calling solver with defect correction order = 8
MG DL_MG: Solver finished
MG Hartree energy from (\int phi*rho dr):              1235.933688
MG Hartree energy from (\int eps (grad phi)^2 dr):     1235.749809
MG Discrepancy due to finite box and discretization:     -0.183879 (  -0.01488%)
MG Correction to account for finite box:                  0.006419
MG Remaining discrepancy, due to discretization:         -0.177459 (  -0.01436%)

================================================================================
           ---------------- ENERGY COMPONENTS (Eh) ----------------
           | Kinetic                    :     8447.43838541973128 |
           | Pseudo. (local,OBC,corr'd) :    -5011.29631582477032 |
           | Pseudopotential (non-local):     1453.54582262981444 |
           | Hartree (molecular)        :     1235.93368765142486 |
           | Exchange-correlation       :    -3350.19710758146311 |
           | Ion-ion (open BC)          :   836007.97464140527882 |
           | Smeared ion non-self corr. :  -835959.63777540717274 |
           | Smeared ion self corr.     :   -14525.98710726666832 |
           | Solvent cavitation energy  :        2.28564849506588 |
           | Solute-solvent dis-rep en. :       -1.64320984431524 |
           | Total                      :   -11701.58333032306655 |
           --------------------------------------------------------
           ------ LOCAL ENERGY COMPONENTS FROM MATRIX TRACES ------
           | Pseudopotential (local)    :    -5011.29631582478396 |
           | Hartree                    :    -1995.44548948598867 |
           --------------------------------------------------------
           Integrated density           :     7227.99999999834927
           Integrated density tr(KS)    :     7228.00000000000000
================================================================================


                        <<<<< CALCULATION SUMMARY >>>>>                         
|ITER|    RMS GRADIENT   |     TOTAL ENERGY    |   step   |     Epredicted              
   0     0.00003732246589 -11701.53727946605068   0.517983 -11701.57688451775721        
   1     0.00001256658671 -11701.58215337758884   0.114173 -11701.58314305203749        
   2     0.00000548668598 -11701.58329089323524   0.020175 -11701.58332423047977        
   3     0.00000241910373 -11701.58332881552633   0.003989 -11701.58333009684429        
   4     0.00000106565715 -11701.58333032298833  <-- CG                                 

=================== Finished the calculation in solvent ========================
= Adjusting the following parameters: 
= read_denskern: F
= read_tightbox_ngwfs: F
= maxit_pen: 0 (restored to user-specified value)
= restart read filename prefix: ""
= restart write filename prefix: ""
================================================================================

================================================================================
IS: Calculation in solvent completed (NGWFs converged).      

Individual components of total energy in solvent:     hartree           kcal/mol
- Usual non-electrostatic DFT terms:    -12938.15945662516424    -8118817.459833
- Electrostatic fixed charge energy:      1235.93368765142486      775560.081489
- Apolar cavitation energy:                  2.28564849506588        1434.266054
- Apolar dispersion-repulsion energy:       -1.64320984431524       -1031.129723
 -------------------------------------------------------------------------------
- Total energy in solvent:              -11701.58333032298833    -7342854.242013

Components of total energy in solvent:                hartree           kcal/mol
- Usual non-electrostatic DFT terms:    -12938.15945662516424    -8118817.459833
- Electrostatic energy:                   1235.93368765142486      775560.081489
- Apolar energy terms:                       0.64243865075064         403.136331
 -------------------------------------------------------------------------------
- Total energy in solvent:              -11701.58333032298833    -7342854.242013

Calculation of free energy of solvation:              hartree           kcal/mol
- Total energy in solvent:         (+)  -11701.58333032298833    -7342854.242013
- Total energy in vacuum:          (-)  -11697.72875188558828    -7340435.457577
 -------------------------------------------------------------------------------
- Total free energy of solvation:           -3.85457843740005       -2418.784436

Components of polar term in f.e. of solvation:        hartree           kcal/mol
- Electrostatic:                            -4.86138061987390       -3050.562330
- Change in nonelectrostatic DFT terms:      0.36436353172212         228.641563
 -------------------------------------------------------------------------------
- Polar term in f.e. of solvation:          -4.49701708815178       -2821.920767

Components of free energy of solvation:               hartree           kcal/mol
- Polar term in f.e. of solvation: (+)      -4.49701708815178       -2821.920767
- Apolar (cavitation, dis., rep.): (+)       0.64243865075064         403.136331
 -------------------------------------------------------------------------------
- Total free energy of solvation:           -3.85457843740114       -2418.784436
================================================================================


------------------------------ TIMING INFORMATION ------------------------------
AVERAGE TIME:   72822.863s on     40 node(s)                                    
TOTAL TIME:     72822.864s on     40 node(s)                                    
================= AVERAGE TIMINGS FROM ALL NODES (CUMULATIVE) ==================
|| TAG                                    #calls    cpu time   %total  Gflops ||
|| work_imbalance                       :     1        0.00s   0.000%  ------ ||
|| parallel_prepare_fd_halos_request    :  2067        0.02s   0.000%  ------ ||
|| parallel_prepare_fd_halos_alloc      :  2067        0.04s   0.000%  ------ ||
|| sparse_set_to_garbage                :   218        0.05s   0.000%  ------ ||
|| parallel_prepare_fd_halos_satisfy    :  2067        0.06s   0.000%  ------ ||
|| ngwfs_initialise_from_radial         :     1        0.17s   0.000%  ------ ||
|| basis_extract_function_from_box      :  5721        0.23s   0.000%  ------ ||
|| restart_ngwfs_tightbox_input         :     1        0.98s   0.001%  ------ ||
|| pseudopotentials_nonlocal_mat        :    32        1.20s   0.002%  ------ ||
|| density_init_guess_real              :     1        3.72s   0.005%  ------ ||
|| parallel_prepare_fd_halos_comms_imbal:  2067        3.72s   0.005%  ------ ||
|| restart_kernel_read                  :     1        4.32s   0.006%  ------ ||
|| openbc_locps_radial                  :     1        4.42s   0.006%  ------ ||
|| parallel_prepare_fd_halos_clear      :  2067       14.66s   0.020%  ------ ||
|| restart_kernel_write                 :    18       14.79s   0.020%  ------ ||
|| sparse_init                          :     2       22.89s   0.031%  ------ ||
|| projectors_func_ovlp_box             :    32       25.59s   0.035%  ------ ||
|| parallel_prepare_fd_halos_comms_wait :  2067       25.68s   0.035%  ------ ||
|| projectors_init_fftbox_recip         :   219       29.58s   0.041%  ------ ||
|| function_ops_brappd_ketppd           :    32       31.21s   0.043%  ------ ||
|| palser_mano_kernel_optimise          :     1       43.06s   0.059%  ------ ||
|| parallel_prepare_fd_halos            :  2067       44.19s   0.061%  ------ ||
|| pseudo_make_structure_factor         :     2       55.05s   0.076%  ------ ||
|| ngwf_gradient_coeffs                 :    17       69.15s   0.095%  ------ ||
|| restart_ngwfs_tightbox_output        :    15       78.25s   0.107%  ------ ||
|| sparse_embed_hotelling_invert_embed  :    32      102.43s   0.141%  ------ ||
|| finite_difference_derivative         :  2067      112.59s   0.155%  ------ ||
|| basis_copy_function_to_box           : 176.9k     124.00s   0.170%  ------ ||
|| openbc_locps_on_grid                 :     2      184.64s   0.254%  ------ ||
|| integrals_kinetic                    :    32      199.58s   0.274%  ------ ||
|| projectors_gradient_batch            :   187      232.20s   0.319%  ------ ||
|| sparse_trace                         :  5206      282.65s   0.388%  ------ ||
|| fourier_apply_box_pair               : 49912      344.97s   0.474% 594.790 ||
|| kernel_purify                        :   526      383.24s   0.526%  ------ ||
|| basis_dot_function_with_box          : 20.29M     397.01s   0.545%  ------ ||
|| kernel_fix                           :   170      605.60s   0.832%  ------ ||
|| lnv_gradient_norm                    :   170      612.94s   0.842%  ------ ||
|| hamiltonian_energy_components        :     4      760.12s   1.044%  ------ ||
|| basis_add_function_to_box            : 54.28M    1013.31s   1.391%  ------ ||
|| integrals_locpot_mat_els_batch       :  1969     1040.67s   1.429%  ------ ||
|| ke_density_batch_grad_apply          :  3773     1142.52s   1.569%  ------ ||
|| ke_density_batch_row_sums            :  3773     1431.68s   1.966%  ------ ||
|| density_batch_row_sums               :  3773     1432.61s   1.967%  ------ ||
|| fourier_apply_cell_backward          :  9268     1625.73s   2.232%  76.557 ||
|| density_fftbox_deposit_to_cell       : 56252     1861.65s   2.556%  ------ ||
|| fourier_apply_cell_forward           :  9266     1899.11s   2.608%  65.522 ||
|| ke_density_fftbox_deposit_to_cell    : 56252     1964.83s   2.698%  ------ ||
|| cell_grid_deposit_box_real           : 114.6k    2199.64s   3.021%  ------ ||
|| sparse_product                       :  6823     2280.89s   3.132%  ------ ||
|| cell_grid_extract_box_real           : 140.2k    2361.71s   3.243%  ------ ||
|| multigrid_prepare_bound_cond         :   344     2585.18s   3.550%  ------ ||
|| ngwf_gradient_build_batch            :   187     2697.95s   3.705%  ------ ||
|| ngwf_gradient_batch                  :   187     3029.71s   4.160%  ------ ||
|| ngwf_gradient_lnv                    :    17     3238.22s   4.447%  ------ ||
|| potential_apply_to_ngwf_batch        :  1969     3722.57s   5.112%  ------ ||
|| density_fftbox_interpolate_multiply  : 56252     4102.37s   5.633%  ------ ||
|| xc_energy_potential                  :   344     4659.38s   6.398%  ------ ||
|| integrals_locpot_dbl_grid            :   179     4787.74s   6.575%  ------ ||
|| density_batch_interp_deposit         :  3773     6764.18s   9.289%  ------ ||
|| dl_mg_solver_calls                   :   344     7013.79s   9.631%  ------ ||
|| nlxc_vdw_energy                      :   686     7770.08s  10.670%  ------ ||
|| density_on_dbl_grid                  :   343     8676.54s  11.915%  ------ ||
|| multigrid_calculate_hartree          :   344     9766.33s  13.411%  ------ ||
|| potential_apply_to_fftbox_batch      :  5610     9935.66s  13.644%  ------ ||
|| integrals_div_locpot_grad_functions  :   170    14909.84s  20.474%  ------ ||
|| ke_density_fftbox_interpolate_multipl: 56252    16513.44s  22.676%  ------ ||
|| ke_density_batch_interp_deposit      :  3773    19307.23s  26.513%  ------ ||
|| fourier_apply_box                    : 1.276M   21509.79s  29.537% 807.470 ||
|| ke_density_on_dbl_grid               :   343    22388.24s  30.743%  ------ ||
|| hamiltonian_lhxc_calculate           :   339    45524.12s  62.513%  ------ ||
|| lnv_denskernel_optimise_cg           :    17    65425.34s  89.842%  ------ ||
|| ngwf_cg_optimise                     :     2    72040.39s  98.926%  ------ ||
|| total_time                           :     1    72822.86s 100.000%  ------ ||
================================================================================
Overhead of generating timer report: 
- 0 ms averaging over threads,
- 6 ms ensuring consistency across MPI ranks,
- 2 ms printing in order.

Job completed: 29-02-2020 16:14 (-0000)

