 +---------------------------------------------------------------+
 |                                                               |
 |        ####### #     # ####### ####### ####### ######         |
 |        #     # ##    # #          #    #       #     #        |
 |        #     # # #   # #          #    #       #     #        |
 |        #     # #  #  # #####      #    #####   ######         |
 |        #     # #   # # #          #    #       #              |
 |        #     # #    ## #          #    #       #              |
 |        ####### #     # #######    #    ####### #              |
 |                                                               |
 |        Linear-Scaling Ab Initio Total Energy Program          |
 |                                                               |
 |          Release for academic collaborators of ODG            |
 |                                             Version 5.3.2.6.  |
 |                                                               |
 +---------------------------------------------------------------+
 |                                                               |
 |  Authors:                                                     |
 |  Jacek Dziedzic, Peter D. Haynes, Nicholas D. M. Hine,        |
 |  Arash. A. Mostofi, Mike C. Payne and Chris-Kriton Skylaris   |
 |                                                               |
 |  Contributors:                                                |
 |  J. Aarons, L. Andrinopoulos, P. W. Avraam, R. A. Bell,       |
 |  A. Bhandari, G. A. Bramley, R. J. Charlton, S. J. Clark,     |
 |  R. J. Clements, G. C. Constantinescu, F. Corsetti,           |
 |  N. Corsini, O. Dieguez, S. M. M. Dubois, K. K. B. Duff,      |
 |  J. M. Escartin, A. Greco, H. Helal, Q. O. Hill, L. P. Lee,   |
 |  J.-H. Li, E. B. Linscott, G. Moynihan, D. D. O`Regan,        |
 |  O. K. Okan, M. J. S. Phipps, C. J. Pickard,                  |
 |  J. C. A. Prentice, M. I. J. Probert, L. E. Ratcliff,         |
 |  M. Robinson, A. Ruiz Serrano, J. S. Spencer, E. W. Tait,     |
 |  G. Teobaldi, D. Turban, V. Vitale, K. A. Wilkinson,          |
 |  C. Weber, J. C. Womack, N. Yeung and T. J. Zuehlsdorff       |
 |                                                               |
 |                                   Copyright (c) 2004-2019     |
 |                                                               |
 |  Please cite:                                                 |
 |  "Introducing ONETEP: Linear-scaling density functional       |
 |   simulations on parallel computers".                         |
 |   C.-K. Skylaris, P. D. Haynes, A. A. Mostofi, M. C. Payne.   |
 |   J. Chem. Phys. 122 084119 (2005).                           |
 |                                                               |
 |          in all publications arising from your use of ONETEP. |
 |                                                               |
 +---------------------------------------------------------------+
 |                                                               |
 |   ONETEP is based on developments described in the following  |
 |   publications:                                               |
 |                                                               |
 |  "Nonorthogonal generalized Wannier function pseudopotential  |
 |   plane-wave method".                                         |
 |   C.-K. Skylaris, A. A. Mostofi, P. D. Haynes, O. Dieguez,    |
 |   M. C. Payne.                                                |
 |   Phys. Rev. B 66 035119 (2002).                              |
 |                                                               |
 |  "Preconditioned iterative minimization for linear-scaling    |
 |   electronic structure calculations".                         |
 |   A. A. Mostofi, P. D. Haynes, C.-K. Skylaris, M. C. Payne.   |
 |   J. Chem. Phys. 119(17), pp.8842-8848 (2003).                |
 |                                                               |
 |  "Total-energy calculations on a real space grid with         |
 |   localized functions and a plane-wave basis".                |
 |   A. A. Mostofi, C.-K. Skylaris, P. D. Haynes, M. C. Payne.   |
 |   Comput. Phys. Commun. 147, pp.788-802 (2002).               |
 |                                                               |
 |  "Accurate kinetic energy evaluation in electronic structure  |
 |   calculations with localized functions on real space grids"  |
 |   C.-K. Skylaris, A. A. Mostofi, P. D. Haynes, C. J. Pickard, |
 |   M. C. Payne.                                                |
 |   Comput. Phys. Commun. 140, pp.315-322 (2001).               |
 |                                                               |
 |  "Accurate ionic forces and geometry optimization in linear-  |
 |   scaling density-functional theory with local orbitals"      |
 |   N. D. M. Hine, M. Robinson, P. D. Haynes, C.-K. Skylaris,   |
 |   M. C. Payne, and A. A. Mostofi.                             |
 |   Phys. Rev. B 83 195102 (2011).                              |
 |                                                               |
 +---------------------------------------------------------------+

Job started: 18-02-2020 09:39 (-0000)
 
Reading parameters from file "complex_23281.dat" ...... done

If your calculation crashes here, before "Checking processes and threads..."
is displayed, then your stack size is insufficient.
If so, use "ulimit -s unlimited" at runtime.
You can disable this check with "check_stack_size F".

Checking processes and threads...
   Determining the default number of threads...
      No default threads set at compilation time: defaulting to 1.
      OpenMP library call suggests 4 threads.
      Hybrid MPI-OpenMP compilation detected.
      Number of MPI processes > 1.
      OMP_NUM_THREADS environment variable present and
      its value matches the one obtained from the OpenMP library call.
      Using this value as default.
      Default threads: 4
      Default applies to threads_max and threads_num_fftboxes.
      Settings in the input file override this default.
   ... done

   Running with 40 MPI processes.
   There are 10 MPI processes running on the same node as the root process.
   Each MPI process is using: 
               1 threads for simulation cell FFTs.
               1 threads for parallel FFT box operations.
               4 threads for loops over batched FFT box operations.
               4 threads in other parallel regions.
... done

Basic input checks...... done

Reading geometry and species blocks from file "complex_23281.dat" ...
  <species_atomic_set> block not found: NGWF initialisation set to SOLVE
IS: Dielectric excluded regions:
    - NONE.
    
  Number of PPD points along a3 set to 1.  This is 
  the default value, it may have been provided also in the input file.
... done
 Writing xyz coordinates to file "complex_23281.xyz" ... done


--------------------------------------------------------------------------------
---------------------------------- INPUT FILE ----------------------------------
--------------------------------------------------------------------------------

cutoff_energy       : 800 eV                                                    
xc_functional B97M-V                                                            
task SINGLEPOINT                                                                
write_xyz true                                                                  
output_detail VERBOSE                                                           
ngwf_threshold_orig : 0.000002                                                  
kernel_cutoff       : 1000                                                      
k_zero              : 3.5                                                       
elec_cg_max 0                                                                   
occ_mix 1.0                                                                     
dispersion 0                                                                    
maxit_ngwf_cg 40                                                                
minit_lnv 10                                                                    
maxit_lnv 10                                                                    
write_denskern T                                                                
write_tightbox_ngwfs T                                                          
charge 9                                                                        
is_implicit_solvent T                                                           
is_auto_solvation T                                                             
is_include_apolar T                                                             
is_smeared_ion_rep T                                                            
is_solvent_surf_tension 4.7624E-5 Ha/bohr**2                                    
is_apolar_scaling_factor 0.281075                                               
is_solvation_beta 1.3                                                           
is_density_threshold 0.00035                                                    
is_bulk_permittivity 78.54                                                      
is_dielectric_model fix_initial                                                 
is_smeared_ion_width 0.8                                                        
mg_defco_fd_order 8                                                             
is_bc_coarseness 10                                                             
is_bc_surface_coarseness 1                                                      
fine_grid_scale 2.0                                                             
%block species                                                                  
N   N   7 4 8.0                                                                 
H   H   1 1 8.0                                                                 
C   C   6 4 8.0                                                                 
S   S  16 9 8.0                                                                 
O   O   8 4 8.0                                                                 
%endblock species                                                               
%block species_pot                                                              
N   N_00.recpot                                                                 
H   H_04.recpot                                                                 
C   C_01.recpot                                                                 
S   S_00.recpot                                                                 
O   O_02.recpot                                                                 
%endblock species_pot                                                           
%block lattice_cart                                                             
135.996   0.000   0.000                                                         
0.000 142.663   0.000                                                           
0.000   0.000   160.158                                                         
%endblock lattice_cart                                                          
%block positions_abs                                                            
     Hash =  -000006126001966209016603
%endblock positions_abs                                                         

--------------------------------------------------------------------------------
-------------------------------- END INPUT FILE --------------------------------
--------------------------------------------------------------------------------


 
 ESDF WARNING(1): "kernelcutoff" (esdf_physical) has no units. Assume "bohr".
 ESDF WARNING(2): "kzero" (esdf_physical) has no units. Assume "1/bohr".
 ESDF WARNING(3
 ): "issmearedionwidth" (esdf_physical) has no units. Assume "bohr".
<<<<<<<<<<<<<<<<<<<<<<<<<<<<<<<<< Full system >>>>>>>>>>>>>>>>>>>>>>>>>>>>>>>>>>
<<<<<<<<<<<<<<<<<<<<<<<<< Pseudopotential information >>>>>>>>>>>>>>>>>>>>>>>>>>
File: N_00.recpot [ 2001 points up to Gmax=  52.9 (1/bohr)]
  Atomic number:  7;  ionic charge:  5.000000
    Shell 1: l = 0; rc = 1.48 bohr
File: H_04.recpot [ 2001 points up to Gmax=  52.9 (1/bohr)]
  Atomic number:  1;  ionic charge:  1.000000
    Local potential
File: C_01.recpot [ 2001 points up to Gmax=  52.9 (1/bohr)]
  Atomic number:  6;  ionic charge:  4.000000
    Shell 1: l = 0; rc = 1.48 bohr
File: S_00.recpot [ 2001 points up to Gmax=  52.9 (1/bohr)]
  Atomic number: 16;  ionic charge:  6.000000
    Shell 1: l = 0; rc = 1.90 bohr
    Shell 2: l = 2; rc = 1.84 bohr
File: O_02.recpot [ 2001 points up to Gmax=  52.9 (1/bohr)]
  Atomic number:  8;  ionic charge:  6.000000
    Shell 1: l = 0; rc = 1.31 bohr
<<<<<<<<<<<<<<<<<<<<<<<<<<<<<<<<<<<<<<<<>>>>>>>>>>>>>>>>>>>>>>>>>>>>>>>>>>>>>>>>

-------------------------- Atom counting information ---------------------------
Symbol    Natoms    Nngwfs    Nprojs
  N        236       944       236
  H       1317      1317         0
  C        816      3264       816
  S          6        54        36
  O        240       960       240
.......   ......    ......    ......
Totals:   2615      6539      1328
--------------------------------------------------------------------------------

=============================== PSINC grid sizes ===============================
                      Simulation cell:  270 x 286 x 315
                              FFT-box:   99 x 105 x  99
                                  PPD:    5 x  11 x   1
Grid space d1=  0.503688888889a0 (KE cutoff=  29.94189Eh = 814.76038eV)
Grid space d2=  0.498821678322a0 (KE cutoff=  30.52906Eh = 830.73786eV)
Grid space d3=  0.508438095238a0 (KE cutoff=  29.38514Eh = 799.61048eV)
================================================================================

********************* Fourier parallelisation information **********************
       Coarse grid (whole simulation cell) dimensions:    270   286   315
          Real-space ('12') slabs/node (min max mean):      7     8     7
         Recip-space ('23') slabs/node (min max mean):      3     4     3
********************************************************************************

********************* Fourier parallelisation information **********************
       Double grid (whole simulation cell) dimensions:    540   572   630
          Real-space ('12') slabs/node (min max mean):     15    16    15
         Recip-space ('23') slabs/node (min max mean):      6     7     6
********************************************************************************
ONETEP fine grid is 540 x 572 x 630 gridpoints, 135.9960 x 142.6630 x 160.1580 bohr.
FD multigrid is     537 x 569 x 625 gridpoints, 135.2405 x 141.9148 x 158.8869 bohr.


Calculating local pseudopotential in open BC on a radial grid ...
Discrepancy between calculated realspace psloc and -Z/x on [5a0,253.965a0]:
max |rel. diff| # avg |rel. diff| #  avg rel. diff #  f # pseudopotential file
 0.000259282084    0.000004141996   0.000000074978   54  'N_00.recpot'
 0.000405386992    0.000016970607  -0.000000075982   54  'H_04.recpot'
 0.000371694516    0.000017434762   0.000000149329   54  'C_01.recpot'
 0.000461642895    0.000020341726   0.000000491514   54  'S_00.recpot'
 0.000682525123    0.000027368244   0.000000159803   54  'O_02.recpot'
... done
 WARNING: meta-GGA functionality under development.
          Using this functional is experimental.
          Minimum tau threshold, xc_min_tau =   1.00000000E-12
 WARNING: Using alternative XC functional PBE for 
          radial densities (xc_radial).

Atom SCF Calculation for N  : Z (AE atom) =   7 : Z (PS atom) =   5
Config String:
Orbitals (num,occ):  2     2.00 3.00
Orbitals   (num,l):  2        0    1
Real-space Grid (nr,dr,rmax): 1203    0.0066555740    8.0000000000
Spherical Bessel Basis (nsws,lmax,cutoff):   47    1  176.3951722778
Confining potential (l,width,scale):  0    3.0000000000  100.0000000000
Confining potential (l,width,scale):  1    3.0000000000  100.0000000000
  1         -4.7312375307   -3.4155304497    7.0523828109   -1.9351020946
  2         -9.7309464766   -2.0532547791    8.2966052865   -2.2494486027
  3         -9.6627394379   -2.1124926340    8.2327997121   -2.2369778124
  4         -9.6814993499   -2.1215521045    8.2229805960   -2.2365178421
  5         -9.6843326483   -2.1250939529    8.2191374534   -2.2362718126
  6         -9.6859628709   -2.1267894855    8.2172963573   -2.2362066344
  7         -9.6867347035   -2.1276425665    8.2163697352   -2.2361903369
  8         -9.6870802100   -2.1280764625    8.2158983890   -2.2361891460
  9         -9.6872290423   -2.1282977424    8.2156580222   -2.2361920435
 10         -9.6872901988   -2.1284107021    8.2155353368   -2.2361953393
 11         -9.6873135296   -2.1284684031    8.2154726809   -2.2361979819
 12         -9.6873212476   -2.1284978948    8.2154406648   -2.2361998431
 13         -9.6873229586   -2.1285129774    8.2154242957   -2.2362010676
 14         -9.6873226456   -2.1285206957    8.2154159216   -2.2362018403
 15         -9.6873218534   -2.1285246479    8.2154116349   -2.2362023142
 16         -9.6873212599   -2.1285262679    8.2154098784   -2.2362025420
 17         -9.6873207834   -2.1285272564    8.2154088068   -2.2362026955
 18         -9.6873204210   -2.1285278597    8.2154081529   -2.2362027982
 19         -9.6873201550   -2.1285282280    8.2154077538   -2.2362028667
 20         -9.6873199645   -2.1285284529    8.2154075102   -2.2362029121
 21         -9.6873198305   -2.1285285903    8.2154073614   -2.2362029421
 22         -9.6873197377   -2.1285286742    8.2154072705   -2.2362029618
Atom SCF converged after  22 iterations to a total energy of     -9.68731974

Atom SCF Calculation for H  : Z (AE atom) =   1 : Z (PS atom) =   1
Config String:
Orbitals (num,occ):  1     1.00
Orbitals   (num,l):  1        0
Real-space Grid (nr,dr,rmax): 1203    0.0066555740    8.0000000000
Spherical Bessel Basis (nsws,lmax,cutoff):   47    0  176.3951722778
Confining potential (l,width,scale):  0    3.0000000000  100.0000000000
  1         -0.3194257691   -0.2393854593    0.2820953124   -0.2424203209
  2         -0.3951823392   -0.2377116493    0.2886404059   -0.2475147891
  3         -0.4317044583   -0.2352244387    0.2921333887   -0.2514046172
  4         -0.4470703708   -0.2341892222    0.2934391879   -0.2531009782
  5         -0.4532132900   -0.2338556667    0.2938388426   -0.2537313520
  6         -0.4556579251   -0.2337612552    0.2939448584   -0.2539550462
  7         -0.4566418315   -0.2337377355    0.2939680120   -0.2540342273
  8         -0.4570437922   -0.2337331116    0.2939708287   -0.2540627372
  9         -0.4572102946   -0.2337328328    0.2939698291   -0.2540732650
 10         -0.4572800424   -0.2337332404    0.2939687193   -0.2540772588
 11         -0.4573095100   -0.2337335791    0.2939680317   -0.2540788122
 12         -0.4573220379   -0.2337337762    0.2939676699   -0.2540794294
 13         -0.4573273880   -0.2337338775    0.2939674931   -0.2540796787
 14         -0.4573296803   -0.2337339266    0.2939674099   -0.2540797808
 15         -0.4573306647   -0.2337339495    0.2939673718   -0.2540798230
 16         -0.4573310882   -0.2337339601    0.2939673545   -0.2540798406
 17         -0.4573312706   -0.2337339649    0.2939673467   -0.2540798479
 18         -0.4573313493   -0.2337339670    0.2939673433   -0.2540798510
Atom SCF converged after  18 iterations to a total energy of     -0.45733135

Atom SCF Calculation for C  : Z (AE atom) =   6 : Z (PS atom) =   4
Config String:
Orbitals (num,occ):  2     2.00 2.00
Orbitals   (num,l):  2        0    1
Real-space Grid (nr,dr,rmax): 1203    0.0066555740    8.0000000000
Spherical Bessel Basis (nsws,lmax,cutoff):   47    1  176.3951722778
Confining potential (l,width,scale):  0    3.0000000000  100.0000000000
Confining potential (l,width,scale):  1    3.0000000000  100.0000000000
  1         -5.2976922011   -1.3069684169    4.5135249990   -1.4493313817
  2         -5.3721716256   -1.3429755895    4.4750154450   -1.4361613026
  3         -5.3809959565   -1.3617365618    4.4541655428   -1.4305930207
  4         -5.3918938866   -1.3667928461    4.4484735100   -1.4294652294
  5         -5.3956096428   -1.3688539142    4.4461376126   -1.4290734646
  6         -5.3968271862   -1.3696852393    4.4451910874   -1.4289366866
  7         -5.3972028401   -1.3700178062    4.4448112275   -1.4288900460
  8         -5.3973067903   -1.3701500158    4.4446598370   -1.4288749220
  9         -5.3973286940   -1.3702023868    4.4445997329   -1.4288704293
 10         -5.3973289850   -1.3702230869    4.4445759233   -1.4288693188
 11         -5.3973254264   -1.3702312560    4.4445665049   -1.4288691775
 12         -5.3973224003   -1.3702344755    4.4445627836   -1.4288692549
 13         -5.3973208708   -1.3702354890    4.4445616088   -1.4288693270
 14         -5.3973198783   -1.3702360102    4.4445610034   -1.4288693814
 15         -5.3973192535   -1.3702362780    4.4445606917   -1.4288694190
 16         -5.3973188684   -1.3702364155    4.4445605313   -1.4288694437
 17         -5.3973186349   -1.3702364860    4.4445604489   -1.4288694595
 18         -5.3973184951   -1.3702365221    4.4445604065   -1.4288694693
 19         -5.3973184122   -1.3702365405    4.4445603848   -1.4288694753
Atom SCF converged after  19 iterations to a total energy of     -5.39731841

Atom SCF Calculation for S  : Z (AE atom) =  16 : Z (PS atom) =   6
Config String:
Orbitals (num,occ):  3     2.00 4.00 0.00
Orbitals   (num,l):  3        0    1    2
Real-space Grid (nr,dr,rmax): 1203    0.0066555740    8.0000000000
Spherical Bessel Basis (nsws,lmax,cutoff):   47    2  176.3951722778
Confining potential (l,width,scale):  0    3.0000000000  100.0000000000
Confining potential (l,width,scale):  1    3.0000000000  100.0000000000
Confining potential (l,width,scale):  2    3.0000000000  100.0000000000
  1        -12.4735062396   -1.0328741412   10.1554312477   -2.4512393157
  2         -9.9458301913   -2.4607392455    8.3041325857   -2.0306994528
  3        -10.1450417646   -2.2931184565    8.4831893826   -2.0812538287
  4        -10.1528335592   -2.2733105793    8.5050388867   -2.0896035179
  5        -10.1571940363   -2.2633716629    8.5160794258   -2.0939370707
  6        -10.1594380571   -2.2584938667    8.5215163935   -2.0961289008
  7        -10.1605856507   -2.2561081821    8.5241804044   -2.0972291378
  8        -10.1611799191   -2.2549395235    8.5254868240   -2.0977806248
  9        -10.1614918752   -2.2543658586    8.5261285885   -2.0980571586
 10        -10.1616572884   -2.2540839121    8.5264441898   -2.0981959233
 11        -10.1617455602   -2.2539453058    8.5265994231   -2.0982656006
 12        -10.1617928447   -2.2538772062    8.5266757320   -2.0983006047
 13        -10.1618182292   -2.2538437891    8.5267131983   -2.0983181961
 14        -10.1618318741   -2.2538274201    8.5267315620   -2.0983270391
 15        -10.1618392144   -2.2538194197    8.5267405433   -2.0983314852
 16        -10.1618431651   -2.2538155200    8.5267449245   -2.0983337210
 17        -10.1618452923   -2.2538136252    8.5267470551   -2.0983348455
 18        -10.1618464380   -2.2538127080    8.5267480875   -2.0983354110
 19        -10.1618470552   -2.2538122659    8.5267485856   -2.0983356955
 20        -10.1618473878   -2.2538120540    8.5267488248   -2.0983358386
 21        -10.1618475670   -2.2538119530    8.5267489389   -2.0983359106
 22        -10.1618476637   -2.2538119053    8.5267489929   -2.0983359468
Atom SCF converged after  22 iterations to a total energy of    -10.16184766

Atom SCF Calculation for O  : Z (AE atom) =   8 : Z (PS atom) =   6
Config String:
Orbitals (num,occ):  2     2.00 4.00
Orbitals   (num,l):  2        0    1
Real-space Grid (nr,dr,rmax): 1203    0.0066555740    8.0000000000
Spherical Bessel Basis (nsws,lmax,cutoff):   47    1  176.3951722778
Confining potential (l,width,scale):  0    3.0000000000  100.0000000000
Confining potential (l,width,scale):  1    3.0000000000  100.0000000000
  1         -1.8735052164   -7.5539365035   10.1554312477   -2.4512393157
  2        -16.0318313751   -3.1285771268   13.6395848164   -3.2358799643
  3        -15.9524020423   -3.0762819706   13.6967272503   -3.2536856837
  4        -15.8521515939   -3.0781493909   13.6951909330   -3.2561700440
  5        -15.8357139793   -3.0748501933   13.6988803334   -3.2580493133
  6        -15.8246052853   -3.0740779781   13.6997881576   -3.2588327446
  7        -15.8189019501   -3.0737449687   13.7001869911   -3.2592378801
  8        -15.8159785510   -3.0736026016   13.7003615168   -3.2594475790
  9        -15.8144776168   -3.0735437994   13.7004360379   -3.2595560735
 10        -15.8137058024   -3.0735207882   13.7004667348   -3.2596122456
 11        -15.8133083127   -3.0735125946   13.7004786868   -3.2596413656
 12        -15.8131032938   -3.0735102195   13.7004828997   -3.2596564858
 13        -15.8129973902   -3.0735099286   13.7004840891   -3.2596643505
 14        -15.8129426040   -3.0735102506   13.7004842061   -3.2596684489
 15        -15.8129142203   -3.0735106556   13.7004840157   -3.2596705887
 16        -15.8128994940   -3.0735109855   13.7004837906   -3.2596717080
 17        -15.8128918425   -3.0735112169   13.7004836103   -3.2596722946
 18        -15.8128878614   -3.0735113674   13.7004834848   -3.2596726026
 19        -15.8128857871   -3.0735114608   13.7004834035   -3.2596727646
 20        -15.8128847048   -3.0735115170   13.7004833533   -3.2596728500
 21        -15.8128841394   -3.0735115501   13.7004833231   -3.2596728951
 22        -15.8128838436   -3.0735115693   13.7004833054   -3.2596729190
 23        -15.8128836887   -3.0735115802   13.7004832951   -3.2596729316
 24        -15.8128836074   -3.0735115864   13.7004832893   -3.2596729383
Atom SCF converged after  24 iterations to a total energy of    -15.81288361

========================== Calculation in vacuum ==============================
= Adjusting the following parameters: 
= is_implicit_solvent: F
= is_include_apolar: F
= write_denskern: T
= write_tightbox_ngwfs: T
= restart read filename prefix: ""
= restart write filename prefix: "vacuum_"
===============================================================================

Determining parallel strategy ...
... using space-filling curve
... NGWF load balancing: max    164;  min    163;  average    163
... Projector load balancing: max     36;  min     32;  average     33
... done
Calculating direct Ion-Ion energy ...
Ion-Ion Energy        :    837024.03903915465344
Basis initialisation ...... NGWF spheres initialised
... Projector spheres initialised
... NGWF tight boxes initialised
... Tight-boxes gathered
... NGWF basis size (local,global):    1272305  51085665
... Nonlocal pseudopotential projector initialisation
... done

========================== Sparse matrix information ===========================
                        Overlap matrix filling:   6.79%
                        Density kernel filling: 100.00%
              NGWF-Proj overlap matrix filling:   1.77%
                    Hamiltonian matrix filling:   7.67%
                  NGWF diagonal matrix filling:   0.05%
                             KS matrix filling: 100.00% 
                           KSKS matrix filling: 100.00% 
================================================================================

Sparse matrix initialisation ... done

Generating smeared ion density ... done
Smeared ion self correction:     -14525.987107
Smeared ion non-self correction: -836975.848011
NGWF initialisation ...... done
============ Calculation of NGWF S^-1 using Hotelling algorithm ================ 
         Iteration  |  Frobenius norm and Maximum abs value    (of I-S*S_n^-1)   
               1       0.78626247E+02     0.98218438E+00
               2       0.76728199E+02     0.96485610E+00
               3       0.73668876E+02     0.93156432E+00
               4       0.69345081E+02     0.86986813E+00
               5       0.63986186E+02     0.76372775E+00
               6       0.57989601E+02     0.70206611E+00
               7       0.51989937E+02     0.67241604E+00
               8       0.46438706E+02     0.64448723E+00
               9       0.40295139E+02     0.60433543E+00
              10       0.31902631E+02     0.53427075E+00
              11       0.21245839E+02     0.42125130E+00
              12       0.10691248E+02     0.27772482E+00
              13       0.34297767E+01     0.12782648E+00
              14       0.51684556E+00     0.29007398E-01
              15       0.22863116E-01     0.20273068E-02
              16       0.11180178E-03     0.15200868E-04
              17       0.58427594E-08     0.10909569E-08
              18       0.86012020E-13     0.42188475E-14
================================================================================
Calculating local pseudopotential in open BC on the fine real space grid ...
... done

MG BCs: +ve charge blocks (gridpoints):     20442 (   16063920).
MG BCs: -ve charge blocks (gridpoints):      8167 (    1089769).
MG BCs:     Elided blocks (gridpoints):    173472 (  173816936).
MG BCs: Computational effort saved:  99.9850%.
MG BCs: Charge after coarse-graining:           -9.0002232.
MG DL_MG: Calling solver with defect correction order = 8
MG DL_MG: Solver finished
MG Hartree energy from (\int phi*rho dr):              1470.866099
MG Hartree energy from (\int eps (grad phi)^2 dr):     1470.248029
MG Discrepancy due to finite box and discretization:     -0.618070 (  -0.04202%)
MG Correction to account for finite box:                  0.466795
MG Remaining discrepancy, due to discretization:         -0.151275 (  -0.01028%)
 WARNING: xc_energy_potential using alternative initial XC functional PBE.
Up spin density kernel initialisation ... 
======= Optimisation of K by Palser-Manolopoulos canonical purification ======== 
         Iteration  |  Band structure energy |    c_n   
               1       -2586.72529354438302    0.5278330
               2       -2762.93668730512809    0.5176714
               3       -2944.88261027004955    0.5153244
               4       -3098.40046796849401    0.5280151
               5       -3194.21016369186964    0.5629157
               6       -3234.93789271260357    0.6084875
               7       -3248.77674473451270    0.6228052
               8       -3254.68899619140893    0.6237061
               9       -3257.54166142728218    0.6391190
              10       -3258.73919322060146    0.6633841
              11       -3259.21838491822655    0.6782049
              12       -3259.43233235386924    0.6670106
              13       -3259.54634978128479    0.6169810
              14       -3259.61686159387136    0.5296462
              15       -3259.65658383548180    0.3993138
              16       -3259.66354402748038    0.3373820
              17       -3259.66470937411941    0.3399839
              18       -3259.66543125391672    0.3869953
              19       -3259.66607723257539    0.4428558
              20       -3259.66655964603433    0.4839970
              21       -3259.66675966119419    0.4986661
              22       -3259.66678576915365    0.4999908
              23       -3259.66678616715990    0.5000385
              24       -3259.66678616725676    0.5000385
Termination criterion satisfied: band energy change below threshold.
Final occupancy bounds: [    0.00000000000000:    1.00000000000000]
Closest occupancy to 0.5:     1.00000000000000
================================================================================
... done

Writing density kernel to file "complex_23281.vacuum_dkn" ... done

>>> Optimising kernel for current NGWFs:
   Initial electron number for spin 1:    7228.00000000
     Final electron number for spin 1:    7228.00000000

=================== Penalty functional idempotency correction ==================
 RMS occupancy error at iteration   1:  0.000000 (step -0.5000 Ne1=   7228.0000)
            Final RMS occupancy error   :  0.000000 (Ne1=   7228.0000)
               Final occupancy bounds   : [  0.0000,  1.0000]
================================================================================

................................................................................
<<<<<<<<<<<<<< LNV (Original version) density kernel optimisation >>>>>>>>>>>>>>
~~~~~~~~~~~~~~~~~~~~~~~~~~~~~~~~~~~~~~~~~~~~~~~~~~~~~~~~~~~~~~~~~~~~~~~~~~~~~~~~
   iter  |      energy (Eh)       | rms gradient |  commutator  |   dE (Eh)
MG BCs: +ve charge blocks (gridpoints):     30911 (   17211217).
MG BCs: -ve charge blocks (gridpoints):      8463 (    1123170).
MG BCs:     Elided blocks (gridpoints):    162990 (  172636238).
MG BCs: Computational effort saved:  99.9794%.
MG BCs: Charge after coarse-graining:           -9.0009570.
MG DL_MG: Calling solver with defect correction order = 8
MG DL_MG: Solver finished
MG Hartree energy from (\int phi*rho dr):              1424.791910
MG Hartree energy from (\int eps (grad phi)^2 dr):     1424.124236
MG Discrepancy due to finite box and discretization:     -0.667674 (  -0.04686%)
MG Correction to account for finite box:                  0.473001
MG Remaining discrepancy, due to discretization:         -0.194672 (  -0.01366%)
      ideal mu1:      -0.755983206235
             Q0:  -11525.292231209693
             G0:    -125.210923787336
   RMS gradient:       0.001711235466
MG BCs: +ve charge blocks (gridpoints):     30849 (   17285238).
MG BCs: -ve charge blocks (gridpoints):      8346 (    1099870).
MG BCs:     Elided blocks (gridpoints):    163052 (  172585517).
MG BCs: Computational effort saved:  99.9795%.
MG BCs: Charge after coarse-graining:           -9.0009801.
MG DL_MG: Calling solver with defect correction order = 8
MG DL_MG: Solver finished
MG Hartree energy from (\int phi*rho dr):              1447.215393
MG Hartree energy from (\int eps (grad phi)^2 dr):     1446.565038
MG Discrepancy due to finite box and discretization:     -0.650355 (  -0.04494%)
MG Correction to account for finite box:                  0.471280
MG Remaining discrepancy, due to discretization:         -0.179075 (  -0.01237%)
     Trial step:       0.500000000000
             Q1:  -11537.229742450290
 Quadratic coef:      50.667950653071
 Linear coef   :     -62.605461893668
           Qmin:  -11544.631102273161
Quadratic minimum step length (  0.308900700969) accepted
    Initial Ne1:    7228.00000000
      Final Ne1:    7228.00000000

=================== Penalty functional idempotency correction ==================
 RMS occupancy error at iteration   1:  0.003148 (step -0.4893 Ne1=   7228.0000)
 RMS occupancy error at iteration   2:  0.000022 (step -0.5000 Ne1=   7228.0000)
            Final RMS occupancy error   :  0.000000 (Ne1=   7228.0000)
               Final occupancy bounds   : [  0.0000,  1.0000]
================================================================================

    1        -1.152529223121E+04     1.7112E-03     1.5481E-03
MG BCs: +ve charge blocks (gridpoints):     30867 (   17259262).
MG BCs: -ve charge blocks (gridpoints):      8395 (    1108910).
MG BCs:     Elided blocks (gridpoints):    163034 (  172602453).
MG BCs: Computational effort saved:  99.9794%.
MG BCs: Charge after coarse-graining:           -9.0009705.
MG DL_MG: Calling solver with defect correction order = 8
MG DL_MG: Solver finished
MG Hartree energy from (\int phi*rho dr):              1432.074206
MG Hartree energy from (\int eps (grad phi)^2 dr):     1431.418091
MG Discrepancy due to finite box and discretization:     -0.656114 (  -0.04582%)
MG Correction to account for finite box:                  0.471810
MG Remaining discrepancy, due to discretization:         -0.184304 (  -0.01287%)
      ideal mu1:      -0.795377170141
             Q0:  -11545.006393296178
             G0:     -10.959463663815
   RMS gradient:       0.000502637259
MG BCs: +ve charge blocks (gridpoints):     30851 (   17275099).
MG BCs: -ve charge blocks (gridpoints):      8369 (    1102138).
MG BCs:     Elided blocks (gridpoints):    163048 (  172593388).
MG BCs: Computational effort saved:  99.9795%.
MG BCs: Charge after coarse-graining:           -9.0009754.
MG DL_MG: Calling solver with defect correction order = 8
MG DL_MG: Solver finished
MG Hartree energy from (\int phi*rho dr):              1437.718975
MG Hartree energy from (\int eps (grad phi)^2 dr):     1437.066677
MG Discrepancy due to finite box and discretization:     -0.652298 (  -0.04537%)
MG Correction to account for finite box:                  0.471059
MG Remaining discrepancy, due to discretization:         -0.181239 (  -0.01261%)
     Trial step:       0.393001718170
             Q1:  -11547.517220237409
 Quadratic coef:       1.796261108873
 Linear coef   :      -4.307088050103
           Qmin:  -11547.588285118545
Quadratic minimum step length (  0.471171199899) accepted
    Initial Ne1:    7227.99993348
      Final Ne1:    7228.00000000

=================== Penalty functional idempotency correction ==================
 RMS occupancy error at iteration   1:  0.001477 (step -0.4947 Ne1=   7228.0000)
 RMS occupancy error at iteration   2:  0.000006 (step -0.5000 Ne1=   7228.0000)
            Final RMS occupancy error   :  0.000000 (Ne1=   7228.0000)
               Final occupancy bounds   : [  0.0000,  1.0000]
================================================================================

    2        -1.154500639330E+04     5.0264E-04     4.5472E-04    -1.9714E+01
MG BCs: +ve charge blocks (gridpoints):     30846 (   17278028).
MG BCs: -ve charge blocks (gridpoints):      8362 (    1100857).
MG BCs:     Elided blocks (gridpoints):    163053 (  172591740).
MG BCs: Computational effort saved:  99.9795%.
MG BCs: Charge after coarse-graining:           -9.0009766.
MG DL_MG: Calling solver with defect correction order = 8
MG DL_MG: Solver finished
MG Hartree energy from (\int phi*rho dr):              1438.865559
MG Hartree energy from (\int eps (grad phi)^2 dr):     1438.213972
MG Discrepancy due to finite box and discretization:     -0.651587 (  -0.04528%)
MG Correction to account for finite box:                  0.470922
MG Remaining discrepancy, due to discretization:         -0.180666 (  -0.01256%)
      ideal mu1:      -0.815417979044
             Q0:  -11547.620951721794
             G0:      -1.830458476887
   RMS gradient:       0.000205512844
MG BCs: +ve charge blocks (gridpoints):     30848 (   17278827).
MG BCs: -ve charge blocks (gridpoints):      8362 (    1100857).
MG BCs:     Elided blocks (gridpoints):    163051 (  172590941).
MG BCs: Computational effort saved:  99.9795%.
MG BCs: Charge after coarse-graining:           -9.0009768.
MG DL_MG: Calling solver with defect correction order = 8
MG DL_MG: Solver finished
MG Hartree energy from (\int phi*rho dr):              1438.274222
MG Hartree energy from (\int eps (grad phi)^2 dr):     1437.623126
MG Discrepancy due to finite box and discretization:     -0.651095 (  -0.04527%)
MG Correction to account for finite box:                  0.470644
MG Remaining discrepancy, due to discretization:         -0.180451 (  -0.01255%)
     Trial step:       0.430315106768
             Q1:  -11548.087909687543
 Quadratic coef:       0.320715969166
 Linear coef   :      -0.787673934916
           Qmin:  -11548.104580763838
Quadratic minimum step length (  0.528423942036) accepted
    Initial Ne1:    7227.99997920
      Final Ne1:    7228.00000000

=================== Penalty functional idempotency correction ==================
 RMS occupancy error at iteration   1:  0.000564 (step -0.4978 Ne1=   7228.0000)
 RMS occupancy error at iteration   2:  0.000001 (step -0.5000 Ne1=   7228.0000)
            Final RMS occupancy error   :  0.000000 (Ne1=   7228.0000)
               Final occupancy bounds   : [  0.0000,  1.0000]
================================================================================

    3        -1.154762095172E+04     2.0551E-04     1.8592E-04    -2.6146E+00
MG BCs: +ve charge blocks (gridpoints):     30850 (   17278964).
MG BCs: -ve charge blocks (gridpoints):      8363 (    1100863).
MG BCs:     Elided blocks (gridpoints):    163049 (  172590798).
MG BCs: Computational effort saved:  99.9795%.
MG BCs: Charge after coarse-graining:           -9.0009769.
MG DL_MG: Calling solver with defect correction order = 8
MG DL_MG: Solver finished
MG Hartree energy from (\int phi*rho dr):              1438.144568
MG Hartree energy from (\int eps (grad phi)^2 dr):     1437.493573
MG Discrepancy due to finite box and discretization:     -0.650995 (  -0.04527%)
MG Correction to account for finite box:                  0.470583
MG Remaining discrepancy, due to discretization:         -0.180412 (  -0.01254%)
      ideal mu1:      -0.818331939323
             Q0:  -11548.109089694219
             G0:      -0.397993399823
   RMS gradient:       0.000095994581
MG BCs: +ve charge blocks (gridpoints):     30847 (   17279358).
MG BCs: -ve charge blocks (gridpoints):      8364 (    1100779).
MG BCs:     Elided blocks (gridpoints):    163052 (  172590488).
MG BCs: Computational effort saved:  99.9795%.
MG BCs: Charge after coarse-graining:           -9.0009769.
MG DL_MG: Calling solver with defect correction order = 8
MG DL_MG: Solver finished
MG Hartree energy from (\int phi*rho dr):              1439.202293
MG Hartree energy from (\int eps (grad phi)^2 dr):     1438.551201
MG Discrepancy due to finite box and discretization:     -0.651092 (  -0.04524%)
MG Correction to account for finite box:                  0.470516
MG Remaining discrepancy, due to discretization:         -0.180576 (  -0.01255%)
     Trial step:       0.476853022467
             Q1:  -11548.206212646211
 Quadratic coef:       0.092661403634
 Linear coef   :      -0.189784355628
           Qmin:  -11548.206266350919
Quadratic minimum step length (  0.488333006238) accepted
    Initial Ne1:    7227.99999569
      Final Ne1:    7228.00000000

=================== Penalty functional idempotency correction ==================
 RMS occupancy error at iteration   1:  0.000180 (step -0.4993 Ne1=   7228.0000)
            Final RMS occupancy error   :  0.000000 (Ne1=   7228.0000)
               Final occupancy bounds   : [ -0.0000,  1.0000]
================================================================================

    4        -1.154810908969E+04     9.5995E-05     8.6844E-05    -4.8814E-01
MG BCs: +ve charge blocks (gridpoints):     30848 (   17279363).
MG BCs: -ve charge blocks (gridpoints):      8364 (    1100771).
MG BCs:     Elided blocks (gridpoints):    163051 (  172590491).
MG BCs: Computational effort saved:  99.9795%.
MG BCs: Charge after coarse-graining:           -9.0009769.
MG DL_MG: Calling solver with defect correction order = 8
MG DL_MG: Solver finished
MG Hartree energy from (\int phi*rho dr):              1439.227991
MG Hartree energy from (\int eps (grad phi)^2 dr):     1438.576896
MG Discrepancy due to finite box and discretization:     -0.651095 (  -0.04524%)
MG Correction to account for finite box:                  0.470514
MG Remaining discrepancy, due to discretization:         -0.180580 (  -0.01255%)
      ideal mu1:      -0.818247060190
             Q0:  -11548.206683719764
             G0:      -0.103214928186
   RMS gradient:       0.000049028183
MG BCs: +ve charge blocks (gridpoints):     30850 (   17279010).
MG BCs: -ve charge blocks (gridpoints):      8368 (    1100964).
MG BCs:     Elided blocks (gridpoints):    163049 (  172590651).
MG BCs: Computational effort saved:  99.9795%.
MG BCs: Charge after coarse-graining:           -9.0009766.
MG DL_MG: Calling solver with defect correction order = 8
MG DL_MG: Solver finished
MG Hartree energy from (\int phi*rho dr):              1438.960183
MG Hartree energy from (\int eps (grad phi)^2 dr):     1438.308928
MG Discrepancy due to finite box and discretization:     -0.651255 (  -0.04526%)
MG Correction to account for finite box:                  0.470541
MG Remaining discrepancy, due to discretization:         -0.180714 (  -0.01256%)
     Trial step:       0.482558877232
             Q1:  -11548.230779300095
 Quadratic coef:       0.025711699527
 Linear coef   :      -0.049807279859
           Qmin:  -11548.230804695551
Quadratic minimum step length (  0.467393161259) accepted
    Initial Ne1:    7228.00168093
      Final Ne1:    7228.00000000

=================== Penalty functional idempotency correction ==================
 RMS occupancy error at iteration   1:  0.000061 (step -0.4997 Ne1=   7228.0000)
            Final RMS occupancy error   :  0.000000 (Ne1=   7228.0000)
               Final occupancy bounds   : [ -0.0000,  1.0000]
================================================================================

    5        -1.154820668372E+04     4.9028E-05     4.4355E-05    -9.7594E-02
MG BCs: +ve charge blocks (gridpoints):     30850 (   17279018).
MG BCs: -ve charge blocks (gridpoints):      8368 (    1100959).
MG BCs:     Elided blocks (gridpoints):    163049 (  172590648).
MG BCs: Computational effort saved:  99.9795%.
MG BCs: Charge after coarse-graining:           -9.0009766.
MG DL_MG: Calling solver with defect correction order = 8
MG DL_MG: Solver finished
MG Hartree energy from (\int phi*rho dr):              1438.968589
MG Hartree energy from (\int eps (grad phi)^2 dr):     1438.317339
MG Discrepancy due to finite box and discretization:     -0.651250 (  -0.04526%)
MG Correction to account for finite box:                  0.470540
MG Remaining discrepancy, due to discretization:         -0.180710 (  -0.01256%)
      ideal mu1:      -0.817691859125
             Q0:  -11548.230849617510
             G0:      -0.024071062686
   RMS gradient:       0.000023700481
MG BCs: +ve charge blocks (gridpoints):     30849 (   17278732).
MG BCs: -ve charge blocks (gridpoints):      8369 (    1101133).
MG BCs:     Elided blocks (gridpoints):    163050 (  172590760).
MG BCs: Computational effort saved:  99.9795%.
MG BCs: Charge after coarse-graining:           -9.0009766.
MG DL_MG: Calling solver with defect correction order = 8
MG DL_MG: Solver finished
MG Hartree energy from (\int phi*rho dr):              1438.480597
MG Hartree energy from (\int eps (grad phi)^2 dr):     1437.829336
MG Discrepancy due to finite box and discretization:     -0.651261 (  -0.04527%)
MG Correction to account for finite box:                  0.470540
MG Remaining discrepancy, due to discretization:         -0.180720 (  -0.01256%)
     Trial step:       0.474915486295
             Q1:  -11548.237767174840
 Quadratic coef:       0.004514163111
 Linear coef   :      -0.011431720441
           Qmin:  -11548.238087073769
Quadratic minimum step length (  0.601340817702) accepted
    Initial Ne1:    7228.00076477
      Final Ne1:    7228.00000000

=================== Penalty functional idempotency correction ==================
 RMS occupancy error at iteration   1:  0.000024 (step -0.4999 Ne1=   7228.0000)
            Final RMS occupancy error   :  0.000000 (Ne1=   7228.0000)
               Final occupancy bounds   : [ -0.0000,  1.0000]
================================================================================

    6        -1.154823084962E+04     2.3700E-05     2.1441E-05    -2.4166E-02
MG BCs: +ve charge blocks (gridpoints):     30848 (   17278650).
MG BCs: -ve charge blocks (gridpoints):      8369 (    1101173).
MG BCs:     Elided blocks (gridpoints):    163051 (  172590802).
MG BCs: Computational effort saved:  99.9795%.
MG BCs: Charge after coarse-graining:           -9.0009766.
MG DL_MG: Calling solver with defect correction order = 8
MG DL_MG: Solver finished
MG Hartree energy from (\int phi*rho dr):              1438.350561
MG Hartree energy from (\int eps (grad phi)^2 dr):     1437.699297
MG Discrepancy due to finite box and discretization:     -0.651264 (  -0.04528%)
MG Correction to account for finite box:                  0.470540
MG Remaining discrepancy, due to discretization:         -0.180723 (  -0.01256%)
      ideal mu1:      -0.817564415502
             Q0:  -11548.238092452753
             G0:      -0.008742966454
   RMS gradient:       0.000014299408
MG BCs: +ve charge blocks (gridpoints):     30849 (   17279040).
MG BCs: -ve charge blocks (gridpoints):      8369 (    1100940).
MG BCs:     Elided blocks (gridpoints):    163050 (  172590645).
MG BCs: Computational effort saved:  99.9795%.
MG BCs: Charge after coarse-graining:           -9.0009767.
MG DL_MG: Calling solver with defect correction order = 8
MG DL_MG: Solver finished
MG Hartree energy from (\int phi*rho dr):              1438.841468
MG Hartree energy from (\int eps (grad phi)^2 dr):     1438.190207
MG Discrepancy due to finite box and discretization:     -0.651262 (  -0.04526%)
MG Correction to account for finite box:                  0.470532
MG Remaining discrepancy, due to discretization:         -0.180730 (  -0.01256%)
     Trial step:       0.534402532617
             Q1:  -11548.240226048627
 Quadratic coef:       0.002538667542
 Linear coef   :      -0.004672263415
           Qmin:  -11548.240242207010
Quadratic minimum step length (  0.491767701066) accepted
    Initial Ne1:    7228.00004044
      Final Ne1:    7228.00000000

=================== Penalty functional idempotency correction ==================
 RMS occupancy error at iteration   1:  0.000001 (step -0.5000 Ne1=   7228.0000)
            Final RMS occupancy error   :  0.000000 (Ne1=   7228.0000)
               Final occupancy bounds   : [  0.0000,  1.0000]
================================================================================

    7        -1.154823809245E+04     1.4299E-05     1.2936E-05    -7.2428E-03
MG BCs: +ve charge blocks (gridpoints):     30849 (   17279002).
MG BCs: -ve charge blocks (gridpoints):      8369 (    1100962).
MG BCs:     Elided blocks (gridpoints):    163050 (  172590661).
MG BCs: Computational effort saved:  99.9795%.
MG BCs: Charge after coarse-graining:           -9.0009767.
MG DL_MG: Calling solver with defect correction order = 8
MG DL_MG: Solver finished
MG Hartree energy from (\int phi*rho dr):              1438.802268
MG Hartree energy from (\int eps (grad phi)^2 dr):     1438.151006
MG Discrepancy due to finite box and discretization:     -0.651262 (  -0.04526%)
MG Correction to account for finite box:                  0.470532
MG Remaining discrepancy, due to discretization:         -0.180730 (  -0.01256%)
      ideal mu1:      -0.817894026140
             Q0:  -11548.240242240252
             G0:      -0.004397620518
   RMS gradient:       0.000010141657
MG BCs: +ve charge blocks (gridpoints):     30849 (   17279100).
MG BCs: -ve charge blocks (gridpoints):      8369 (    1100898).
MG BCs:     Elided blocks (gridpoints):    163050 (  172590627).
MG BCs: Computational effort saved:  99.9795%.
MG BCs: Charge after coarse-graining:           -9.0009767.
MG DL_MG: Calling solver with defect correction order = 8
MG DL_MG: Solver finished
MG Hartree energy from (\int phi*rho dr):              1438.851000
MG Hartree energy from (\int eps (grad phi)^2 dr):     1438.199753
MG Discrepancy due to finite box and discretization:     -0.651247 (  -0.04526%)
MG Correction to account for finite box:                  0.470523
MG Remaining discrepancy, due to discretization:         -0.180724 (  -0.01256%)
     Trial step:       0.512642082655
             Q1:  -11548.241838403628
 Quadratic coef:       0.000658241965
 Linear coef   :      -0.002254405341
           Qmin:  -11548.242172511989
Quadratic minimum step length (  0.877870989070) accepted
    Initial Ne1:    7228.00003612
      Final Ne1:    7228.00000000

=================== Penalty functional idempotency correction ==================
 RMS occupancy error at iteration   1:  0.000007 (step -0.4999 Ne1=   7228.0000)
            Final RMS occupancy error   :  0.000000 (Ne1=   7228.0000)
               Final occupancy bounds   : [ -0.0000,  1.0000]
================================================================================

    8        -1.154824024224E+04     1.0142E-05     9.1749E-06    -2.1498E-03
MG BCs: +ve charge blocks (gridpoints):     30848 (   17279154).
MG BCs: -ve charge blocks (gridpoints):      8367 (    1100878).
MG BCs:     Elided blocks (gridpoints):    163051 (  172590593).
MG BCs: Computational effort saved:  99.9795%.
MG BCs: Charge after coarse-graining:           -9.0009767.
MG DL_MG: Calling solver with defect correction order = 8
MG DL_MG: Solver finished
MG Hartree energy from (\int phi*rho dr):              1438.885332
MG Hartree energy from (\int eps (grad phi)^2 dr):     1438.234096
MG Discrepancy due to finite box and discretization:     -0.651236 (  -0.04526%)
MG Correction to account for finite box:                  0.470516
MG Remaining discrepancy, due to discretization:         -0.180720 (  -0.01256%)
      ideal mu1:      -0.817963598533
             Q0:  -11548.242171604536
             G0:      -0.004630748226
   RMS gradient:       0.000010412196
MG BCs: +ve charge blocks (gridpoints):     30847 (   17279018).
MG BCs: -ve charge blocks (gridpoints):      8368 (    1100941).
MG BCs:     Elided blocks (gridpoints):    163052 (  172590666).
MG BCs: Computational effort saved:  99.9795%.
MG BCs: Charge after coarse-graining:           -9.0009767.
MG DL_MG: Calling solver with defect correction order = 8
MG DL_MG: Solver finished
MG Hartree energy from (\int phi*rho dr):              1438.643230
MG Hartree energy from (\int eps (grad phi)^2 dr):     1437.992014
MG Discrepancy due to finite box and discretization:     -0.651216 (  -0.04527%)
MG Correction to account for finite box:                  0.470506
MG Remaining discrepancy, due to discretization:         -0.180711 (  -0.01256%)
     Trial step:       0.670845445791
             Q1:  -11548.243966918904
 Quadratic coef:       0.001311201990
 Linear coef   :      -0.003106516358
           Qmin:  -11548.244011604009
Quadratic minimum step length (  0.794687762572) accepted
    Initial Ne1:    7228.00004745
      Final Ne1:    7228.00000000

=================== Penalty functional idempotency correction ==================
 RMS occupancy error at iteration   1:  0.000021 (step -0.4995 Ne1=   7228.0000)
            Final RMS occupancy error   :  0.000000 (Ne1=   7228.0000)
               Final occupancy bounds   : [ -0.0000,  1.0000]
================================================================================

    9        -1.154824217160E+04     1.0412E-05     9.4197E-06    -1.9294E-03
MG BCs: +ve charge blocks (gridpoints):     30847 (   17278998).
MG BCs: -ve charge blocks (gridpoints):      8368 (    1100957).
MG BCs:     Elided blocks (gridpoints):    163052 (  172590670).
MG BCs: Computational effort saved:  99.9795%.
MG BCs: Charge after coarse-graining:           -9.0009767.
MG DL_MG: Calling solver with defect correction order = 8
MG DL_MG: Solver finished
MG Hartree energy from (\int phi*rho dr):              1438.598220
MG Hartree energy from (\int eps (grad phi)^2 dr):     1437.947008
MG Discrepancy due to finite box and discretization:     -0.651213 (  -0.04527%)
MG Correction to account for finite box:                  0.470504
MG Remaining discrepancy, due to discretization:         -0.180709 (  -0.01256%)
      ideal mu1:      -0.817786156378
   10        -1.154824401113E+04     9.4274E-06     8.5288E-06    -1.8395E-03
Finished density kernel iterations (  10)

Writing density kernel to file "complex_23281.vacuum_dkn" ... done


>>> Density kernel optimised for the current NGWF basis:
     ~~~~~~~~~~~~~~~~~~~~~~~~~~~~~~~~~~~~~~~~~~~~~~~~~~~~~~~~~~~
     Total energy                =  -1.15482440111343E+04  Eh
     Estimated bandgap           =  -2.3024E-01  Eh
     RMS occupancy error         =   9.8933E-09
     [H,K] commutator            =   8.5288E-06
     Occupancy bounds            = [ -0.000:  1.000]
     ~~~~~~~~~~~~~~~~~~~~~~~~~~~~~~~~~~~~~~~~~~~~~~~~~~~~~~~~~~~




################################################################################
########################### NGWF CG iteration  001 #############################
################################################################################
****** Reciprocal space K.E. preconditioning with k_zero =  3.5000 a0^-1 *******

>>> Checking for convergence of NGWFs:   NOT CONVERGED
  ========================================================================
         NGWF RMS gradient =  1.6443E-03 >  2.0000E-06  | above tolerance
  ========================================================================

>>> Improving NGWFs using line search:
============ Calculation of NGWF S^-1 using Hotelling algorithm ================ 
         Iteration  |  Frobenius norm and Maximum abs value    (of I-S*S_n^-1)   
               1       0.23907461E+00     0.70266521E-02
               2       0.13235823E-02     0.63453494E-04
               3       0.67948537E-07     0.52250854E-08
               4       0.13259437E-12     0.68833828E-14
================================================================================
MG BCs: +ve charge blocks (gridpoints):     30384 (   17222851).
MG BCs: -ve charge blocks (gridpoints):      8378 (    1097548).
MG BCs:     Elided blocks (gridpoints):    163518 (  172650226).
MG BCs: Computational effort saved:  99.9797%.
MG BCs: Charge after coarse-graining:           -9.0009831.
MG DL_MG: Calling solver with defect correction order = 8
MG DL_MG: Solver finished
MG Hartree energy from (\int phi*rho dr):              1410.420098
MG Hartree energy from (\int eps (grad phi)^2 dr):     1409.770458
MG Discrepancy due to finite box and discretization:     -0.649640 (  -0.04606%)
MG Correction to account for finite box:                  0.470434
MG Remaining discrepancy, due to discretization:         -0.179205 (  -0.01271%)
============ Calculation of NGWF S^-1 using Hotelling algorithm ================ 
         Iteration  |  Frobenius norm and Maximum abs value    (of I-S*S_n^-1)   
               1       0.21703200E+01     0.52840532E-01
               2       0.96910702E-01     0.35053695E-02
               3       0.26916605E-03     0.16110198E-04
               4       0.36114556E-08     0.34647751E-09
               5       0.11667562E-12     0.62172489E-14
================================================================================
------------------------------- NGWF line search -------------------------------
RMS gradient                =       0.00164425597727
Trial step length           =               0.122474
Gradient along search dir.  =       -296.79938379247
Functional at step 0        =  -11548.24401113425847
Functional at step 1        =  -11581.74995306739584
Functional predicted        =  -11664.37951346498812
Selected quadratic step     =               0.782586
--------------------------- NGWF line search finished --------------------------
                                               
Writing NGWFs to file "complex_23281.vacuum_tightbox_ngwfs"....  done

>>> Optimising kernel for current NGWFs:
   Initial electron number for spin 1:    7274.35559754
     Final electron number for spin 1:    7228.00000000

=================== Penalty functional idempotency correction ==================
 RMS occupancy error at iteration   1:  0.005310 (step -0.4821 Ne1=   7228.0000)
 RMS occupancy error at iteration   2:  0.000102 (step -0.5003 Ne1=   7228.0000)
            Final RMS occupancy error   :  0.000000 (Ne1=   7228.0000)
               Final occupancy bounds   : [  0.0000,  1.0000]
================================================================================

................................................................................
<<<<<<<<<<<<<< LNV (Original version) density kernel optimisation >>>>>>>>>>>>>>
~~~~~~~~~~~~~~~~~~~~~~~~~~~~~~~~~~~~~~~~~~~~~~~~~~~~~~~~~~~~~~~~~~~~~~~~~~~~~~~~
   iter  |      energy (Eh)       | rms gradient |  commutator  |   dE (Eh)
MG BCs: +ve charge blocks (gridpoints):     24969 (   16965344).
MG BCs: -ve charge blocks (gridpoints):      8493 (    1067984).
MG BCs:     Elided blocks (gridpoints):    168945 (  172937297).
MG BCs: Computational effort saved:  99.9825%.
MG BCs: Charge after coarse-graining:           -9.0007237.
MG DL_MG: Calling solver with defect correction order = 8
MG DL_MG: Solver finished
MG Hartree energy from (\int phi*rho dr):              1280.534393
MG Hartree energy from (\int eps (grad phi)^2 dr):     1279.888316
MG Discrepancy due to finite box and discretization:     -0.646077 (  -0.05045%)
MG Correction to account for finite box:                  0.470113
MG Remaining discrepancy, due to discretization:         -0.175964 (  -0.01374%)
      ideal mu1:      -0.759821365247
             Q0:  -11663.744442824274
             G0:      -9.546365704493
   RMS gradient:       0.000472506401
MG BCs: +ve charge blocks (gridpoints):     25024 (   16978542).
MG BCs: -ve charge blocks (gridpoints):      8467 (    1064468).
MG BCs:     Elided blocks (gridpoints):    168890 (  172927615).
MG BCs: Computational effort saved:  99.9825%.
MG BCs: Charge after coarse-graining:           -9.0007198.
MG DL_MG: Calling solver with defect correction order = 8
MG DL_MG: Solver finished
MG Hartree energy from (\int phi*rho dr):              1293.708975
MG Hartree energy from (\int eps (grad phi)^2 dr):     1293.057943
MG Discrepancy due to finite box and discretization:     -0.651032 (  -0.05032%)
MG Correction to account for finite box:                  0.470008
MG Remaining discrepancy, due to discretization:         -0.181024 (  -0.01399%)
     Trial step:       0.730145647352
             Q1:  -11663.045494956314
 Quadratic coef:       7.669185235129
 Linear coef   :      -6.970237367167
           Qmin:  -11665.328190232412
Quadratic minimum step length (  0.331801118282) accepted
    Initial Ne1:    7227.99888370
      Final Ne1:    7228.00000000

=================== Penalty functional idempotency correction ==================
 RMS occupancy error at iteration   1:  0.000352 (step -0.4985 Ne1=   7228.0000)
 RMS occupancy error at iteration   2:  0.000000 (step -0.5000 Ne1=   7228.0000)
            Final RMS occupancy error   :  0.000000 (Ne1=   7228.0000)
               Final occupancy bounds   : [  0.0000,  1.0000]
================================================================================

    1        -1.166374444282E+04     4.7251E-04     4.2747E-04
MG BCs: +ve charge blocks (gridpoints):     24984 (   16971499).
MG BCs: -ve charge blocks (gridpoints):      8488 (    1066399).
MG BCs:     Elided blocks (gridpoints):    168930 (  172932727).
MG BCs: Computational effort saved:  99.9825%.
MG BCs: Charge after coarse-graining:           -9.0007218.
MG DL_MG: Calling solver with defect correction order = 8
MG DL_MG: Solver finished
MG Hartree energy from (\int phi*rho dr):              1285.533680
MG Hartree energy from (\int eps (grad phi)^2 dr):     1284.885447
MG Discrepancy due to finite box and discretization:     -0.648234 (  -0.05043%)
MG Correction to account for finite box:                  0.470047
MG Remaining discrepancy, due to discretization:         -0.178186 (  -0.01386%)
      ideal mu1:      -0.765200259668
             Q0:  -11665.309323777561
             G0:      -0.864477039118
   RMS gradient:       0.000142635547
MG BCs: +ve charge blocks (gridpoints):     24986 (   16970972).
MG BCs: -ve charge blocks (gridpoints):      8487 (    1067173).
MG BCs:     Elided blocks (gridpoints):    168928 (  172932480).
MG BCs: Computational effort saved:  99.9825%.
MG BCs: Charge after coarse-graining:           -9.0007217.
MG DL_MG: Calling solver with defect correction order = 8
MG DL_MG: Solver finished
MG Hartree energy from (\int phi*rho dr):              1286.081062
MG Hartree energy from (\int eps (grad phi)^2 dr):     1285.432550
MG Discrepancy due to finite box and discretization:     -0.648512 (  -0.05043%)
MG Correction to account for finite box:                  0.470065
MG Remaining discrepancy, due to discretization:         -0.178447 (  -0.01388%)
     Trial step:       0.492202338779
             Q1:  -11665.506806419697
 Quadratic coef:       0.228014978340
 Linear coef   :      -0.425497620475
           Qmin:  -11665.507828527499
Quadratic minimum step length (  0.459248171913) accepted
    Initial Ne1:    7227.99985919
      Final Ne1:    7228.00000000

=================== Penalty functional idempotency correction ==================
 RMS occupancy error at iteration   1:  0.000135 (step -0.4995 Ne1=   7228.0000)
            Final RMS occupancy error   :  0.000000 (Ne1=   7228.0000)
               Final occupancy bounds   : [ -0.0000,  1.0000]
================================================================================

    2        -1.166530932378E+04     1.4264E-04     1.2904E-04    -1.5649E+00
MG BCs: +ve charge blocks (gridpoints):     24985 (   16971007).
MG BCs: -ve charge blocks (gridpoints):      8488 (    1067117).
MG BCs:     Elided blocks (gridpoints):    168929 (  172932501).
MG BCs: Computational effort saved:  99.9825%.
MG BCs: Charge after coarse-graining:           -9.0007217.
MG DL_MG: Calling solver with defect correction order = 8
MG DL_MG: Solver finished
MG Hartree energy from (\int phi*rho dr):              1286.044826
MG Hartree energy from (\int eps (grad phi)^2 dr):     1285.396333
MG Discrepancy due to finite box and discretization:     -0.648493 (  -0.05043%)
MG Correction to account for finite box:                  0.470064
MG Remaining discrepancy, due to discretization:         -0.178429 (  -0.01387%)
      ideal mu1:      -0.765790453947
             Q0:  -11665.508203021600
             G0:      -0.170789346870
   RMS gradient:       0.000063137752
MG BCs: +ve charge blocks (gridpoints):     24985 (   16970460).
MG BCs: -ve charge blocks (gridpoints):      8486 (    1067444).
MG BCs:     Elided blocks (gridpoints):    168929 (  172932721).
MG BCs: Computational effort saved:  99.9825%.
MG BCs: Charge after coarse-graining:           -9.0007217.
MG DL_MG: Calling solver with defect correction order = 8
MG DL_MG: Solver finished
MG Hartree energy from (\int phi*rho dr):              1285.474163
MG Hartree energy from (\int eps (grad phi)^2 dr):     1284.825747
MG Discrepancy due to finite box and discretization:     -0.648416 (  -0.05044%)
MG Correction to account for finite box:                  0.470073
MG Remaining discrepancy, due to discretization:         -0.178343 (  -0.01387%)
     Trial step:       0.475439821950
             Q1:  -11665.557815008564
 Quadratic coef:       0.031588069704
 Linear coef   :      -0.081200056667
           Qmin:  -11665.560386086794
Quadratic minimum step length (  0.611081032275) accepted
    Initial Ne1:    7228.00052916
      Final Ne1:    7228.00000000

=================== Penalty functional idempotency correction ==================
 RMS occupancy error at iteration   1:  0.000068 (step -0.4997 Ne1=   7228.0000)
            Final RMS occupancy error   :  0.000000 (Ne1=   7228.0000)
               Final occupancy bounds   : [ -0.0000,  1.0000]
================================================================================

    3        -1.166550820302E+04     6.3138E-05     5.7119E-05    -1.9888E-01
MG BCs: +ve charge blocks (gridpoints):     24984 (   16970280).
MG BCs: -ve charge blocks (gridpoints):      8488 (    1067562).
MG BCs:     Elided blocks (gridpoints):    168930 (  172932783).
MG BCs: Computational effort saved:  99.9825%.
MG BCs: Charge after coarse-graining:           -9.0007217.
MG DL_MG: Calling solver with defect correction order = 8
MG DL_MG: Solver finished
MG Hartree energy from (\int phi*rho dr):              1285.311019
MG Hartree energy from (\int eps (grad phi)^2 dr):     1284.662624
MG Discrepancy due to finite box and discretization:     -0.648395 (  -0.05045%)
MG Correction to account for finite box:                  0.470075
MG Remaining discrepancy, due to discretization:         -0.178319 (  -0.01387%)
      ideal mu1:      -0.764838984378
             Q0:  -11665.560486141243
             G0:      -0.033094076275
   RMS gradient:       0.000027777584
MG BCs: +ve charge blocks (gridpoints):     24984 (   16970005).
MG BCs: -ve charge blocks (gridpoints):      8489 (    1067657).
MG BCs:     Elided blocks (gridpoints):    168930 (  172932963).
MG BCs: Computational effort saved:  99.9825%.
MG BCs: Charge after coarse-graining:           -9.0007217.
MG DL_MG: Calling solver with defect correction order = 8
MG DL_MG: Solver finished
MG Hartree energy from (\int phi*rho dr):              1285.320447
MG Hartree energy from (\int eps (grad phi)^2 dr):     1284.672137
MG Discrepancy due to finite box and discretization:     -0.648311 (  -0.05044%)
MG Correction to account for finite box:                  0.470077
MG Remaining discrepancy, due to discretization:         -0.178234 (  -0.01387%)
     Trial step:       0.539010442554
             Q1:  -11665.569243510137
 Quadratic coef:       0.009080683805
 Linear coef   :      -0.017838052699
           Qmin:  -11665.569246388019
Quadratic minimum step length (  0.529414793307) accepted
    Initial Ne1:    7228.00023750
      Final Ne1:    7228.00000000

=================== Penalty functional idempotency correction ==================
 RMS occupancy error at iteration   1:  0.000018 (step -0.4999 Ne1=   7228.0000)
            Final RMS occupancy error   :  0.000000 (Ne1=   7228.0000)
               Final occupancy bounds   : [ -0.0000,  1.0000]
================================================================================

    4        -1.166556048614E+04     2.7778E-05     2.5130E-05    -5.2283E-02
MG BCs: +ve charge blocks (gridpoints):     24984 (   16970006).
MG BCs: -ve charge blocks (gridpoints):      8489 (    1067656).
MG BCs:     Elided blocks (gridpoints):    168930 (  172932963).
MG BCs: Computational effort saved:  99.9825%.
MG BCs: Charge after coarse-graining:           -9.0007217.
MG DL_MG: Calling solver with defect correction order = 8
MG DL_MG: Solver finished
MG Hartree energy from (\int phi*rho dr):              1285.320266
MG Hartree energy from (\int eps (grad phi)^2 dr):     1284.671954
MG Discrepancy due to finite box and discretization:     -0.648312 (  -0.05044%)
MG Correction to account for finite box:                  0.470077
MG Remaining discrepancy, due to discretization:         -0.178236 (  -0.01387%)
      ideal mu1:      -0.764904918484
             Q0:  -11665.569251154549
             G0:      -0.009818721583
   RMS gradient:       0.000015150560
MG BCs: +ve charge blocks (gridpoints):     24983 (   16970465).
MG BCs: -ve charge blocks (gridpoints):      8486 (    1067481).
MG BCs:     Elided blocks (gridpoints):    168931 (  172932679).
MG BCs: Computational effort saved:  99.9825%.
MG BCs: Charge after coarse-graining:           -9.0007216.
MG DL_MG: Calling solver with defect correction order = 8
MG DL_MG: Solver finished
MG Hartree energy from (\int phi*rho dr):              1285.647101
MG Hartree energy from (\int eps (grad phi)^2 dr):     1284.998813
MG Discrepancy due to finite box and discretization:     -0.648288 (  -0.05043%)
MG Correction to account for finite box:                  0.470070
MG Remaining discrepancy, due to discretization:         -0.178219 (  -0.01386%)
     Trial step:       0.534191072590
             Q1:  -11665.571735574864
 Quadratic coef:       0.002760653100
 Linear coef   :      -0.005245073414
           Qmin:  -11665.571742484872
Quadratic minimum step length (  0.507465315476) accepted
    Initial Ne1:    7228.00007962
      Final Ne1:    7228.00000000

=================== Penalty functional idempotency correction ==================
 RMS occupancy error at iteration   1:  0.000007 (step -0.5000 Ne1=   7228.0000)
            Final RMS occupancy error   :  0.000000 (Ne1=   7228.0000)
               Final occupancy bounds   : [ -0.0000,  1.0000]
================================================================================

    5        -1.166556925115E+04     1.5151E-05     1.3706E-05    -8.7650E-03
MG BCs: +ve charge blocks (gridpoints):     24983 (   16970449).
MG BCs: -ve charge blocks (gridpoints):      8486 (    1067486).
MG BCs:     Elided blocks (gridpoints):    168931 (  172932690).
MG BCs: Computational effort saved:  99.9825%.
MG BCs: Charge after coarse-graining:           -9.0007216.
MG DL_MG: Calling solver with defect correction order = 8
MG DL_MG: Solver finished
MG Hartree energy from (\int phi*rho dr):              1285.630726
MG Hartree energy from (\int eps (grad phi)^2 dr):     1284.982437
MG Discrepancy due to finite box and discretization:     -0.648289 (  -0.05043%)
MG Correction to account for finite box:                  0.470070
MG Remaining discrepancy, due to discretization:         -0.178219 (  -0.01386%)
      ideal mu1:      -0.765147499328
             Q0:  -11665.571743087261
             G0:      -0.002219317385
   RMS gradient:       0.000007202957
MG BCs: +ve charge blocks (gridpoints):     24983 (   16970420).
MG BCs: -ve charge blocks (gridpoints):      8486 (    1067523).
MG BCs:     Elided blocks (gridpoints):    168931 (  172932682).
MG BCs: Computational effort saved:  99.9825%.
MG BCs: Charge after coarse-graining:           -9.0007216.
MG DL_MG: Calling solver with defect correction order = 8
MG DL_MG: Solver finished
MG Hartree energy from (\int phi*rho dr):              1285.595448
MG Hartree energy from (\int eps (grad phi)^2 dr):     1284.947164
MG Discrepancy due to finite box and discretization:     -0.648285 (  -0.05043%)
MG Correction to account for finite box:                  0.470069
MG Remaining discrepancy, due to discretization:         -0.178216 (  -0.01386%)
     Trial step:       0.520656740258
             Q1:  -11665.572392101516
 Quadratic coef:       0.000506488301
 Linear coef   :      -0.001155502555
           Qmin:  -11665.572402128226
Quadratic minimum step length (  0.593913218602) accepted
    Initial Ne1:    7228.00002366
      Final Ne1:    7228.00000000

=================== Penalty functional idempotency correction ==================
 RMS occupancy error at iteration   1:  0.000002 (step -0.5000 Ne1=   7228.0000)
            Final RMS occupancy error   :  0.000000 (Ne1=   7228.0000)
               Final occupancy bounds   : [  0.0000,  1.0000]
================================================================================

    6        -1.166557174309E+04     7.2030E-06     6.5163E-06    -2.4919E-03
MG BCs: +ve charge blocks (gridpoints):     24983 (   16970427).
MG BCs: -ve charge blocks (gridpoints):      8486 (    1067519).
MG BCs:     Elided blocks (gridpoints):    168931 (  172932679).
MG BCs: Computational effort saved:  99.9825%.
MG BCs: Charge after coarse-graining:           -9.0007216.
MG DL_MG: Calling solver with defect correction order = 8
MG DL_MG: Solver finished
MG Hartree energy from (\int phi*rho dr):              1285.590490
MG Hartree energy from (\int eps (grad phi)^2 dr):     1284.942205
MG Discrepancy due to finite box and discretization:     -0.648284 (  -0.05043%)
MG Correction to account for finite box:                  0.470069
MG Remaining discrepancy, due to discretization:         -0.178215 (  -0.01386%)
      ideal mu1:      -0.765111958199
             Q0:  -11665.572402190533
             G0:      -0.000714286312
   RMS gradient:       0.000004087190
MG BCs: +ve charge blocks (gridpoints):     24983 (   16970269).
MG BCs: -ve charge blocks (gridpoints):      8488 (    1067566).
MG BCs:     Elided blocks (gridpoints):    168931 (  172932790).
MG BCs: Computational effort saved:  99.9825%.
MG BCs: Charge after coarse-graining:           -9.0007217.
MG DL_MG: Calling solver with defect correction order = 8
MG DL_MG: Solver finished
MG Hartree energy from (\int phi*rho dr):              1285.532916
MG Hartree energy from (\int eps (grad phi)^2 dr):     1284.884631
MG Discrepancy due to finite box and discretization:     -0.648285 (  -0.05043%)
MG Correction to account for finite box:                  0.470069
MG Remaining discrepancy, due to discretization:         -0.178216 (  -0.01386%)
     Trial step:       0.556079958633
             Q1:  -11665.572563707014
 Quadratic coef:       0.000235683823
 Linear coef   :      -0.000397200303
           Qmin:  -11665.572569541944
Quadratic minimum step length (  0.468583556324) accepted
    Initial Ne1:    7227.99999946
      Final Ne1:    7228.00000000

=================== Penalty functional idempotency correction ==================
 RMS occupancy error at iteration   1:  0.000000 (step -0.5000 Ne1=   7228.0000)
            Final RMS occupancy error   :  0.000000 (Ne1=   7228.0000)
               Final occupancy bounds   : [  0.0000,  1.0000]
================================================================================

    7        -1.166557240219E+04     4.0872E-06     3.6976E-06    -6.5910E-04
MG BCs: +ve charge blocks (gridpoints):     24983 (   16970288).
MG BCs: -ve charge blocks (gridpoints):      8488 (    1067559).
MG BCs:     Elided blocks (gridpoints):    168931 (  172932778).
MG BCs: Computational effort saved:  99.9825%.
MG BCs: Charge after coarse-graining:           -9.0007217.
MG DL_MG: Calling solver with defect correction order = 8
MG DL_MG: Solver finished
MG Hartree energy from (\int phi*rho dr):              1285.541967
MG Hartree energy from (\int eps (grad phi)^2 dr):     1284.893682
MG Discrepancy due to finite box and discretization:     -0.648285 (  -0.05043%)
MG Correction to account for finite box:                  0.470069
MG Remaining discrepancy, due to discretization:         -0.178216 (  -0.01386%)
      ideal mu1:      -0.765049246984
             Q0:  -11665.572569538723
             G0:      -0.000350367912
   RMS gradient:       0.000002862433
MG BCs: +ve charge blocks (gridpoints):     24983 (   16970271).
MG BCs: -ve charge blocks (gridpoints):      8488 (    1067572).
MG BCs:     Elided blocks (gridpoints):    168931 (  172932782).
MG BCs: Computational effort saved:  99.9825%.
MG BCs: Charge after coarse-graining:           -9.0007217.
MG DL_MG: Calling solver with defect correction order = 8
MG DL_MG: Solver finished
MG Hartree energy from (\int phi*rho dr):              1285.524513
MG Hartree energy from (\int eps (grad phi)^2 dr):     1284.876227
MG Discrepancy due to finite box and discretization:     -0.648285 (  -0.05043%)
MG Correction to account for finite box:                  0.470070
MG Remaining discrepancy, due to discretization:         -0.178216 (  -0.01386%)
     Trial step:       0.510460502504
             Q1:  -11665.572698292672
 Quadratic coef:       0.000050095032
 Linear coef   :      -0.000178848981
           Qmin:  -11665.572729170111
Quadratic minimum step length (  0.911221503786) accepted
    Initial Ne1:    7227.99999949
      Final Ne1:    7228.00000000

=================== Penalty functional idempotency correction ==================
 RMS occupancy error at iteration   1:  0.000001 (step -0.5000 Ne1=   7228.0000)
            Final RMS occupancy error   :  0.000000 (Ne1=   7228.0000)
               Final occupancy bounds   : [  0.0000,  1.0000]
================================================================================

    8        -1.166557256954E+04     2.8624E-06     2.5896E-06    -1.6735E-04
MG BCs: +ve charge blocks (gridpoints):     24983 (   16970282).
MG BCs: -ve charge blocks (gridpoints):      8488 (    1067566).
MG BCs:     Elided blocks (gridpoints):    168931 (  172932777).
MG BCs: Computational effort saved:  99.9825%.
MG BCs: Charge after coarse-graining:           -9.0007216.
MG DL_MG: Calling solver with defect correction order = 8
MG DL_MG: Solver finished
[...]
 RMS occupancy error at iteration   1:  0.000000 (step -0.5000 Ne1=   7228.0000)
            Final RMS occupancy error   :  0.000000 (Ne1=   7228.0000)
               Final occupancy bounds   : [  0.0000,  1.0000]
================================================================================

    7        -1.170150436372E+04     4.2416E-09     3.8372E-09     1.1642E-10

Reusing previously generated solute cavity.
MG BCs: +ve charge blocks (gridpoints):     29045 (   19078101).
MG BCs: -ve charge blocks (gridpoints):      8506 (    1044569).
MG BCs:     Elided blocks (gridpoints):    164869 (  170847955).
MG BCs: Computational effort saved:  99.9803%.
MG BCs: Charge after coarse-graining:           -9.0009753.
MG DL_MG: Calling solver with defect correction order = 8
MG DL_MG: Solver finished
MG Hartree energy from (\int phi*rho dr):              1236.722710
MG Hartree energy from (\int eps (grad phi)^2 dr):     1236.538591
MG Discrepancy due to finite box and discretization:     -0.184119 (  -0.01489%)
MG Correction to account for finite box:                  0.006442
MG Remaining discrepancy, due to discretization:         -0.177677 (  -0.01437%)
      ideal mu1:      -0.513977998501
             Q0:  -11701.504363716929
             G0:      -0.000000001307
   RMS gradient:       0.000000003973

Reusing previously generated solute cavity.
MG BCs: +ve charge blocks (gridpoints):     29045 (   19078101).
MG BCs: -ve charge blocks (gridpoints):      8506 (    1044569).
MG BCs:     Elided blocks (gridpoints):    164869 (  170847955).
MG BCs: Computational effort saved:  99.9803%.
MG BCs: Charge after coarse-graining:           -9.0009753.
MG DL_MG: Calling solver with defect correction order = 8
MG DL_MG: Solver finished
MG Hartree energy from (\int phi*rho dr):              1236.722719
MG Hartree energy from (\int eps (grad phi)^2 dr):     1236.538600
MG Discrepancy due to finite box and discretization:     -0.184119 (  -0.01489%)
MG Correction to account for finite box:                  0.006442
MG Remaining discrepancy, due to discretization:         -0.177677 (  -0.01437%)
     Trial step:       0.108038028619
             Q1:  -11701.504363716580
 Quadratic coef:       0.000000000491
 Linear coef   :      -0.000000000141
           Qmin:  -11701.504363716940
Quadratic minimum step length (  0.015527348052) accepted
    Initial Ne1:    7228.00000000
      Final Ne1:    7228.00000000

=================== Penalty functional idempotency correction ==================
 RMS occupancy error at iteration   1:  0.000000 (step -0.5000 Ne1=   7228.0000)
            Final RMS occupancy error   :  0.000000 (Ne1=   7228.0000)
               Final occupancy bounds   : [  0.0000,  1.0000]
================================================================================

    8        -1.170150436372E+04     3.9730E-09     3.5943E-09     0.0000E+00

Reusing previously generated solute cavity.
MG BCs: +ve charge blocks (gridpoints):     29045 (   19078101).
MG BCs: -ve charge blocks (gridpoints):      8506 (    1044569).
MG BCs:     Elided blocks (gridpoints):    164869 (  170847955).
MG BCs: Computational effort saved:  99.9803%.
MG BCs: Charge after coarse-graining:           -9.0009753.
MG DL_MG: Calling solver with defect correction order = 8
MG DL_MG: Solver finished
MG Hartree energy from (\int phi*rho dr):              1236.722711
MG Hartree energy from (\int eps (grad phi)^2 dr):     1236.538592
MG Discrepancy due to finite box and discretization:     -0.184119 (  -0.01489%)
MG Correction to account for finite box:                  0.006442
MG Remaining discrepancy, due to discretization:         -0.177677 (  -0.01437%)
      ideal mu1:      -0.513977998678
             Q0:  -11701.504363716813
             G0:      -0.000000001775
   RMS gradient:       0.000000003813

Reusing previously generated solute cavity.
MG BCs: +ve charge blocks (gridpoints):     29045 (   19078101).
MG BCs: -ve charge blocks (gridpoints):      8506 (    1044569).
MG BCs:     Elided blocks (gridpoints):    164869 (  170847955).
MG BCs: Computational effort saved:  99.9803%.
MG BCs: Charge after coarse-graining:           -9.0009753.
MG DL_MG: Calling solver with defect correction order = 8
MG DL_MG: Solver finished
MG Hartree energy from (\int phi*rho dr):              1236.722716
MG Hartree energy from (\int eps (grad phi)^2 dr):     1236.538597
MG Discrepancy due to finite box and discretization:     -0.184119 (  -0.01489%)
MG Correction to account for finite box:                  0.006442
MG Remaining discrepancy, due to discretization:         -0.177677 (  -0.01437%)
     Trial step:       0.040957832868
             Q1:  -11701.504363716696
 Quadratic coef:       0.000000000189
 Linear coef   :      -0.000000000073
           Qmin:  -11701.504363716820
Quadratic minimum step length (  0.007871543482) accepted
    Initial Ne1:    7228.00000000
      Final Ne1:    7228.00000000

=================== Penalty functional idempotency correction ==================
 RMS occupancy error at iteration   1:  0.000000 (step -0.5000 Ne1=   7228.0000)
            Final RMS occupancy error   :  0.000000 (Ne1=   7228.0000)
               Final occupancy bounds   : [  0.0000,  1.0000]
================================================================================

    9        -1.170150436372E+04     3.8126E-09     3.4491E-09     1.1642E-10

Reusing previously generated solute cavity.
MG BCs: +ve charge blocks (gridpoints):     29045 (   19078101).
MG BCs: -ve charge blocks (gridpoints):      8506 (    1044569).
MG BCs:     Elided blocks (gridpoints):    164869 (  170847955).
MG BCs: Computational effort saved:  99.9803%.
MG BCs: Charge after coarse-graining:           -9.0009753.
MG DL_MG: Calling solver with defect correction order = 8
MG DL_MG: Solver finished
MG Hartree energy from (\int phi*rho dr):              1236.722712
MG Hartree energy from (\int eps (grad phi)^2 dr):     1236.538593
MG Discrepancy due to finite box and discretization:     -0.184119 (  -0.01489%)
MG Correction to account for finite box:                  0.006442
MG Remaining discrepancy, due to discretization:         -0.177677 (  -0.01437%)
      ideal mu1:      -0.513977998807
   10        -1.170150436372E+04     3.6997E-09     3.3470E-09     0.0000E+00
Finished density kernel iterations (  10)

Writing density kernel to file "complex_23281.dkn" ... done


>>> Density kernel optimised for the current NGWF basis:
     ~~~~~~~~~~~~~~~~~~~~~~~~~~~~~~~~~~~~~~~~~~~~~~~~~~~~~~~~~~~
     Total energy                =  -1.17015043637168E+04  Eh
     Estimated bandgap           =   1.2062E-01  Eh
     RMS occupancy error         =   3.0088E-16
     [H,K] commutator            =   3.3470E-09
     Occupancy bounds            = [  0.000:  1.000]
     ~~~~~~~~~~~~~~~~~~~~~~~~~~~~~~~~~~~~~~~~~~~~~~~~~~~~~~~~~~~




################################################################################
########################### NGWF CG iteration  005 #############################
################################################################################
****** Reciprocal space K.E. preconditioning with k_zero =  3.5000 a0^-1 *******

>>> Checking for convergence of NGWFs: 
           ........................................................
           |         *** NGWF optimisation converged ***          |
           | RMS NGWF gradient =    0.00000110043499              |
           | Criteria satisfied:                                  |
           | -> RMS NGWF gradient lower than set threshold.       |
           ========================================================

Reusing previously generated solute cavity.
MG BCs: +ve charge blocks (gridpoints):     29045 (   19078101).
MG BCs: -ve charge blocks (gridpoints):      8506 (    1044569).
MG BCs:     Elided blocks (gridpoints):    164869 (  170847955).
MG BCs: Computational effort saved:  99.9803%.
MG BCs: Charge after coarse-graining:           -9.0009753.
MG DL_MG: Calling solver with defect correction order = 8
MG DL_MG: Solver finished
MG Hartree energy from (\int phi*rho dr):              1236.722712
MG Hartree energy from (\int eps (grad phi)^2 dr):     1236.538593
MG Discrepancy due to finite box and discretization:     -0.184119 (  -0.01489%)
MG Correction to account for finite box:                  0.006442
MG Remaining discrepancy, due to discretization:         -0.177677 (  -0.01437%)

================================================================================
           ---------------- ENERGY COMPONENTS (Eh) ----------------
           | Kinetic                    :     8444.97026819809253 |
           | Pseudo. (local,OBC,corr'd) :    -5009.78436205772050 |
           | Pseudopotential (non-local):     1453.32398636374251 |
           | Hartree (molecular)        :     1236.72271198429053 |
           | Exchange-correlation       :    -3349.57872087580563 |
           | Ion-ion (open BC)          :   837024.03903915465344 |
           | Smeared ion non-self corr. :  -836975.84801112511195 |
           | Smeared ion self corr.     :   -14525.98710726666832 |
           | Solvent cavitation energy  :        2.26925876641462 |
           | Solute-solvent dis-rep en. :       -1.63142685864463 |
           | Total                      :   -11701.50436371676187 |
           --------------------------------------------------------
           ------ LOCAL ENERGY COMPONENTS FROM MATRIX TRACES ------
           | Pseudopotential (local)    :    -5009.78436205774597 |
           | Hartree                    :    -1994.96524483564485 |
           --------------------------------------------------------
           Integrated density           :     7227.99999999834654
           Integrated density tr(KS)    :     7228.00000000000091
================================================================================


                        <<<<< CALCULATION SUMMARY >>>>>                         
|ITER|    RMS GRADIENT   |     TOTAL ENERGY    |   step   |     Epredicted              
   0     0.00003795163449 -11701.45592891727574   0.527857 -11701.49766109609482        
   1     0.00001264981652 -11701.50314739556052   0.116519 -11701.50417083190405        
   2     0.00000556677067 -11701.50432169064879   0.020882 -11701.50435721142276        
   3     0.00000247619495 -11701.50436206639279   0.004201 -11701.50436348042422        
   4     0.00000110043499 -11701.50436371681280  <-- CG                                 

=================== Finished the calculation in solvent ========================
= Adjusting the following parameters: 
= read_denskern: F
= read_tightbox_ngwfs: F
= maxit_pen: 0 (restored to user-specified value)
= restart read filename prefix: ""
= restart write filename prefix: ""
================================================================================

================================================================================
IS: Calculation in solvent completed (NGWFs converged).      

Individual components of total energy in solvent:     hartree           kcal/mol
- Usual non-electrostatic DFT terms:    -12938.86490760887318    -8119260.136999
- Electrostatic fixed charge energy:      1236.72271198429053      776055.201723
- Apolar cavitation energy:                  2.26925876641462        1423.981344
- Apolar dispersion-repulsion energy:       -1.63142685864463       -1023.735788
 -------------------------------------------------------------------------------
- Total energy in solvent:              -11701.50436371681280    -7342804.689720

Components of total energy in solvent:                hartree           kcal/mol
- Usual non-electrostatic DFT terms:    -12938.86490760887318    -8119260.136999
- Electrostatic energy:                   1236.72271198429053      776055.201723
- Apolar energy terms:                       0.63783190776999         400.245556
 -------------------------------------------------------------------------------
- Total energy in solvent:              -11701.50436371681280    -7342804.689720

Calculation of free energy of solvation:              hartree           kcal/mol
- Total energy in solvent:         (+)  -11701.50436371681280    -7342804.689720
- Total energy in vacuum:          (-)  -11697.58963028818835    -7340348.157459
 -------------------------------------------------------------------------------
- Total free energy of solvation:           -3.91473342862446       -2456.532262

Components of polar term in f.e. of solvation:        hartree           kcal/mol
- Electrostatic:                            -4.80748636239127       -3016.743173
- Change in nonelectrostatic DFT terms:      0.25492102599674         159.965355
 -------------------------------------------------------------------------------
- Polar term in f.e. of solvation:          -4.55256533639454       -2856.777818

Components of free energy of solvation:               hartree           kcal/mol
- Polar term in f.e. of solvation: (+)      -4.55256533639454       -2856.777818
- Apolar (cavitation, dis., rep.): (+)       0.63783190776999         400.245556
 -------------------------------------------------------------------------------
- Total free energy of solvation:           -3.91473342862455       -2456.532262
================================================================================


------------------------------ TIMING INFORMATION ------------------------------
AVERAGE TIME:   82448.992s on     40 node(s)                                    
TOTAL TIME:     82448.992s on     40 node(s)                                    
================= AVERAGE TIMINGS FROM ALL NODES (CUMULATIVE) ==================
|| TAG                                    #calls    cpu time   %total  Gflops ||
|| work_imbalance                       :     1        0.00s   0.000%  ------ ||
|| parallel_prepare_fd_halos_request    :  2313        0.02s   0.000%  ------ ||
|| parallel_prepare_fd_halos_alloc      :  2313        0.04s   0.000%  ------ ||
|| sparse_set_to_garbage                :   253        0.07s   0.000%  ------ ||
|| parallel_prepare_fd_halos_satisfy    :  2313        0.07s   0.000%  ------ ||
|| ngwfs_initialise_from_radial         :     1        0.17s   0.000%  ------ ||
|| basis_extract_function_from_box      :  6375        0.25s   0.000%  ------ ||
|| pseudopotentials_nonlocal_mat        :    37        1.34s   0.002%  ------ ||
|| restart_ngwfs_tightbox_input         :     1        3.75s   0.005%  ------ ||
|| density_init_guess_real              :     1        4.74s   0.006%  ------ ||
|| parallel_prepare_fd_halos_comms_imbal:  2313        4.88s   0.006%  ------ ||
|| openbc_locps_radial                  :     1        5.08s   0.006%  ------ ||
|| restart_kernel_read                  :     1        6.09s   0.007%  ------ ||
|| parallel_prepare_fd_halos_clear      :  2313       16.47s   0.020%  ------ ||
|| sparse_init                          :     2       23.38s   0.028%  ------ ||
|| parallel_prepare_fd_halos_comms_wait :  2313       29.10s   0.035%  ------ ||
|| projectors_func_ovlp_box             :    37       30.64s   0.037%  ------ ||
|| projectors_init_fftbox_recip         :   246       33.51s   0.041%  ------ ||
|| function_ops_brappd_ketppd           :    37       34.87s   0.042%  ------ ||
|| palser_mano_kernel_optimise          :     1       43.11s   0.052%  ------ ||
|| restart_kernel_write                 :    20       48.39s   0.059%  ------ ||
|| parallel_prepare_fd_halos            :  2313       50.59s   0.061%  ------ ||
|| pseudo_make_structure_factor         :     2       54.76s   0.066%  ------ ||
|| ngwf_gradient_coeffs                 :    19       79.17s   0.096%  ------ ||
|| sparse_embed_hotelling_invert_embed  :    37      112.21s   0.136%  ------ ||
|| finite_difference_derivative         :  2313      128.30s   0.156%  ------ ||
|| basis_copy_function_to_box           : 198.0k     138.72s   0.168%  ------ ||
|| openbc_locps_on_grid                 :     2      186.21s   0.226%  ------ ||
|| restart_ngwfs_tightbox_output        :    17      227.36s   0.276%  ------ ||
|| integrals_kinetic                    :    37      232.82s   0.282%  ------ ||
|| projectors_gradient_batch            :   209      259.99s   0.315%  ------ ||
|| sparse_trace                         :  5915      322.56s   0.391%  ------ ||
|| fourier_apply_box_pair               : 55886      385.62s   0.468% 595.771 ||
|| kernel_purify                        :   589      433.88s   0.526%  ------ ||
|| basis_dot_function_with_box          : 22.83M     452.86s   0.549%  ------ ||
|| kernel_fix                           :   190      701.29s   0.851%  ------ ||
|| lnv_gradient_norm                    :   190      712.90s   0.865%  ------ ||
|| hamiltonian_energy_components        :     4      768.09s   0.932%  ------ ||
|| basis_add_function_to_box            : 61.22M    1159.88s   1.407%  ------ ||
|| integrals_locpot_mat_els_batch       :  2189     1208.80s   1.466%  ------ ||
|| ke_density_batch_grad_apply          :  4224     1280.24s   1.553%  ------ ||
|| density_batch_row_sums               :  4224     1596.22s   1.936%  ------ ||
|| ke_density_batch_row_sums            :  4224     1597.06s   1.937%  ------ ||
|| fourier_apply_cell_backward          : 10375     1808.09s   2.193%  77.057 ||
|| fourier_apply_cell_forward           : 10373     2086.97s   2.531%  66.747 ||
|| density_fftbox_deposit_to_cell       : 62976     2240.22s   2.717%  ------ ||
|| ke_density_fftbox_deposit_to_cell    : 62976     2256.18s   2.736%  ------ ||
|| cell_grid_deposit_box_real           : 128.3k    2521.91s   3.059%  ------ ||
|| sparse_product                       :  7657     2624.92s   3.184%  ------ ||
|| cell_grid_extract_box_real           : 156.6k    2774.32s   3.365%  ------ ||
|| multigrid_prepare_bound_cond         :   385     2923.45s   3.546%  ------ ||
|| ngwf_gradient_build_batch            :   209     3028.37s   3.673%  ------ ||
|| ngwf_gradient_batch                  :   209     3394.77s   4.117%  ------ ||
|| ngwf_gradient_lnv                    :    19     3622.79s   4.394%  ------ ||
|| potential_apply_to_ngwf_batch        :  2189     4261.27s   5.168%  ------ ||
|| density_fftbox_interpolate_multiply  : 62976     4578.75s   5.553%  ------ ||
|| xc_energy_potential                  :   385     5164.58s   6.264%  ------ ||
|| integrals_locpot_dbl_grid            :   199     5498.90s   6.669%  ------ ||
|| density_batch_interp_deposit         :  4224     7713.43s   9.355%  ------ ||
|| dl_mg_solver_calls                   :   385     7746.90s   9.396%  ------ ||
|| nlxc_vdw_energy                      :   768     8609.35s  10.442%  ------ ||
|| density_on_dbl_grid                  :   384     9917.75s  12.029%  ------ ||
|| multigrid_calculate_hartree          :   385    10860.63s  13.173%  ------ ||
|| potential_apply_to_fftbox_batch      :  6270    11395.36s  13.821%  ------ ||
|| integrals_div_locpot_grad_functions  :   190    17106.49s  20.748%  ------ ||
|| ke_density_fftbox_interpolate_multipl: 62976    18456.03s  22.385%  ------ ||
|| ke_density_batch_interp_deposit      :  4224    21650.28s  26.259%  ------ ||
|| fourier_apply_box                    : 1.428M   23904.18s  28.993% 812.642 ||
|| ke_density_on_dbl_grid               :   384    25170.12s  30.528%  ------ ||
|| hamiltonian_lhxc_calculate           :   380    51206.78s  62.107%  ------ ||
|| lnv_denskernel_optimise_cg           :    19    73997.20s  89.749%  ------ ||
|| ngwf_cg_optimise                     :     2    81644.10s  99.024%  ------ ||
|| total_time                           :     1    82448.99s 100.000%  ------ ||
================================================================================
Overhead of generating timer report: 
- 0 ms averaging over threads,
- 7 ms ensuring consistency across MPI ranks,
- 2 ms printing in order.

Job completed: 19-02-2020 08:33 (-0000)

