 +---------------------------------------------------------------+
 |                                                               |
 |        ####### #     # ####### ####### ####### ######         |
 |        #     # ##    # #          #    #       #     #        |
 |        #     # # #   # #          #    #       #     #        |
 |        #     # #  #  # #####      #    #####   ######         |
 |        #     # #   # # #          #    #       #              |
 |        #     # #    ## #          #    #       #              |
 |        ####### #     # #######    #    ####### #              |
 |                                                               |
 |        Linear-Scaling Ab Initio Total Energy Program          |
 |                                                               |
 |          Release for academic collaborators of ODG            |
 |                                             Version 5.3.2.6.  |
 |                                                               |
 +---------------------------------------------------------------+
 |                                                               |
 |  Authors:                                                     |
 |  Jacek Dziedzic, Peter D. Haynes, Nicholas D. M. Hine,        |
 |  Arash. A. Mostofi, Mike C. Payne and Chris-Kriton Skylaris   |
 |                                                               |
 |  Contributors:                                                |
 |  J. Aarons, L. Andrinopoulos, P. W. Avraam, R. A. Bell,       |
 |  A. Bhandari, G. A. Bramley, R. J. Charlton, S. J. Clark,     |
 |  R. J. Clements, G. C. Constantinescu, F. Corsetti,           |
 |  N. Corsini, O. Dieguez, S. M. M. Dubois, K. K. B. Duff,      |
 |  J. M. Escartin, A. Greco, H. Helal, Q. O. Hill, L. P. Lee,   |
 |  J.-H. Li, E. B. Linscott, G. Moynihan, D. D. O`Regan,        |
 |  O. K. Okan, M. J. S. Phipps, C. J. Pickard,                  |
 |  J. C. A. Prentice, M. I. J. Probert, L. E. Ratcliff,         |
 |  M. Robinson, A. Ruiz Serrano, J. S. Spencer, E. W. Tait,     |
 |  G. Teobaldi, D. Turban, V. Vitale, K. A. Wilkinson,          |
 |  C. Weber, J. C. Womack, N. Yeung and T. J. Zuehlsdorff       |
 |                                                               |
 |                                   Copyright (c) 2004-2019     |
 |                                                               |
 |  Please cite:                                                 |
 |  "Introducing ONETEP: Linear-scaling density functional       |
 |   simulations on parallel computers".                         |
 |   C.-K. Skylaris, P. D. Haynes, A. A. Mostofi, M. C. Payne.   |
 |   J. Chem. Phys. 122 084119 (2005).                           |
 |                                                               |
 |          in all publications arising from your use of ONETEP. |
 |                                                               |
 +---------------------------------------------------------------+
 |                                                               |
 |   ONETEP is based on developments described in the following  |
 |   publications:                                               |
 |                                                               |
 |  "Nonorthogonal generalized Wannier function pseudopotential  |
 |   plane-wave method".                                         |
 |   C.-K. Skylaris, A. A. Mostofi, P. D. Haynes, O. Dieguez,    |
 |   M. C. Payne.                                                |
 |   Phys. Rev. B 66 035119 (2002).                              |
 |                                                               |
 |  "Preconditioned iterative minimization for linear-scaling    |
 |   electronic structure calculations".                         |
 |   A. A. Mostofi, P. D. Haynes, C.-K. Skylaris, M. C. Payne.   |
 |   J. Chem. Phys. 119(17), pp.8842-8848 (2003).                |
 |                                                               |
 |  "Total-energy calculations on a real space grid with         |
 |   localized functions and a plane-wave basis".                |
 |   A. A. Mostofi, C.-K. Skylaris, P. D. Haynes, M. C. Payne.   |
 |   Comput. Phys. Commun. 147, pp.788-802 (2002).               |
 |                                                               |
 |  "Accurate kinetic energy evaluation in electronic structure  |
 |   calculations with localized functions on real space grids"  |
 |   C.-K. Skylaris, A. A. Mostofi, P. D. Haynes, C. J. Pickard, |
 |   M. C. Payne.                                                |
 |   Comput. Phys. Commun. 140, pp.315-322 (2001).               |
 |                                                               |
 |  "Accurate ionic forces and geometry optimization in linear-  |
 |   scaling density-functional theory with local orbitals"      |
 |   N. D. M. Hine, M. Robinson, P. D. Haynes, C.-K. Skylaris,   |
 |   M. C. Payne, and A. A. Mostofi.                             |
 |   Phys. Rev. B 83 195102 (2011).                              |
 |                                                               |
 +---------------------------------------------------------------+

Job started: 18-03-2020 10:07 (-0000)
 
Reading parameters from file "complex_17961.dat" ...... done

If your calculation crashes here, before "Checking processes and threads..."
is displayed, then your stack size is insufficient.
If so, use "ulimit -s unlimited" at runtime.
You can disable this check with "check_stack_size F".

Checking processes and threads...
   Determining the default number of threads...
      No default threads set at compilation time: defaulting to 1.
      OpenMP library call suggests 4 threads.
      Hybrid MPI-OpenMP compilation detected.
      Number of MPI processes > 1.
      OMP_NUM_THREADS environment variable present and
      its value matches the one obtained from the OpenMP library call.
      Using this value as default.
      Default threads: 4
      Default applies to threads_max and threads_num_fftboxes.
      Settings in the input file override this default.
   ... done

   Running with 40 MPI processes.
   There are 10 MPI processes running on the same node as the root process.
   Each MPI process is using: 
               1 threads for simulation cell FFTs.
               1 threads for parallel FFT box operations.
               4 threads for loops over batched FFT box operations.
               4 threads in other parallel regions.
... done

Basic input checks...... done

Reading geometry and species blocks from file "complex_17961.dat" ...
  <species_atomic_set> block not found: NGWF initialisation set to SOLVE
IS: Dielectric excluded regions:
    - NONE.
    
  Number of PPD points along a3 set to 1.  This is 
  the default value, it may have been provided also in the input file.
... done
 Writing xyz coordinates to file "complex_17961.xyz" ... done


--------------------------------------------------------------------------------
---------------------------------- INPUT FILE ----------------------------------
--------------------------------------------------------------------------------

cutoff_energy       : 800 eV                                                    
xc_functional B97M-V                                                            
task SINGLEPOINT                                                                
write_xyz true                                                                  
output_detail VERBOSE                                                           
ngwf_threshold_orig : 0.000002                                                  
kernel_cutoff       : 1000                                                      
k_zero              : 3.5                                                       
elec_cg_max 0                                                                   
occ_mix 1.0                                                                     
dispersion 0                                                                    
maxit_ngwf_cg 40                                                                
minit_lnv 10                                                                    
maxit_lnv 10                                                                    
write_denskern T                                                                
write_tightbox_ngwfs T                                                          
charge 9                                                                        
is_implicit_solvent T                                                           
is_auto_solvation T                                                             
is_include_apolar T                                                             
is_smeared_ion_rep T                                                            
is_solvent_surf_tension 4.7624E-5 Ha/bohr**2                                    
is_apolar_scaling_factor 0.281075                                               
is_solvation_beta 1.3                                                           
is_density_threshold 0.00035                                                    
is_bulk_permittivity 78.54                                                      
is_dielectric_model fix_initial                                                 
is_smeared_ion_width 0.8                                                        
mg_defco_fd_order 8                                                             
is_bc_coarseness 10                                                             
is_bc_surface_coarseness 1                                                      
fine_grid_scale 2.0                                                             
%block species                                                                  
N   N   7 4 8.0                                                                 
H   H   1 1 8.0                                                                 
C   C   6 4 8.0                                                                 
S   S  16 9 8.0                                                                 
O   O   8 4 8.0                                                                 
%endblock species                                                               
%block species_pot                                                              
N   N_00.recpot                                                                 
H   H_04.recpot                                                                 
C   C_01.recpot                                                                 
S   S_00.recpot                                                                 
O   O_02.recpot                                                                 
%endblock species_pot                                                           
%block lattice_cart                                                             
135.996   0.000   0.000                                                         
0.000 142.663   0.000                                                           
0.000   0.000   160.158                                                         
%endblock lattice_cart                                                          
%block positions_abs                                                            
     Hash =   000000299326933097824166
%endblock positions_abs                                                         

--------------------------------------------------------------------------------
-------------------------------- END INPUT FILE --------------------------------
--------------------------------------------------------------------------------


 
 ESDF WARNING(1): "kernelcutoff" (esdf_physical) has no units. Assume "bohr".
 ESDF WARNING(2): "kzero" (esdf_physical) has no units. Assume "1/bohr".
 ESDF WARNING(3
 ): "issmearedionwidth" (esdf_physical) has no units. Assume "bohr".
<<<<<<<<<<<<<<<<<<<<<<<<<<<<<<<<< Full system >>>>>>>>>>>>>>>>>>>>>>>>>>>>>>>>>>
<<<<<<<<<<<<<<<<<<<<<<<<< Pseudopotential information >>>>>>>>>>>>>>>>>>>>>>>>>>
File: N_00.recpot [ 2001 points up to Gmax=  52.9 (1/bohr)]
  Atomic number:  7;  ionic charge:  5.000000
    Shell 1: l = 0; rc = 1.48 bohr
File: H_04.recpot [ 2001 points up to Gmax=  52.9 (1/bohr)]
  Atomic number:  1;  ionic charge:  1.000000
    Local potential
File: C_01.recpot [ 2001 points up to Gmax=  52.9 (1/bohr)]
  Atomic number:  6;  ionic charge:  4.000000
    Shell 1: l = 0; rc = 1.48 bohr
File: S_00.recpot [ 2001 points up to Gmax=  52.9 (1/bohr)]
  Atomic number: 16;  ionic charge:  6.000000
    Shell 1: l = 0; rc = 1.90 bohr
    Shell 2: l = 2; rc = 1.84 bohr
File: O_02.recpot [ 2001 points up to Gmax=  52.9 (1/bohr)]
  Atomic number:  8;  ionic charge:  6.000000
    Shell 1: l = 0; rc = 1.31 bohr
<<<<<<<<<<<<<<<<<<<<<<<<<<<<<<<<<<<<<<<<>>>>>>>>>>>>>>>>>>>>>>>>>>>>>>>>>>>>>>>>

-------------------------- Atom counting information ---------------------------
Symbol    Natoms    Nngwfs    Nprojs
  N        236       944       236
  H       1317      1317         0
  C        816      3264       816
  S          6        54        36
  O        240       960       240
.......   ......    ......    ......
Totals:   2615      6539      1328
--------------------------------------------------------------------------------

=============================== PSINC grid sizes ===============================
                      Simulation cell:  270 x 286 x 315
                              FFT-box:   99 x 105 x  99
                                  PPD:    5 x  11 x   1
Grid space d1=  0.503688888889a0 (KE cutoff=  29.94189Eh = 814.76038eV)
Grid space d2=  0.498821678322a0 (KE cutoff=  30.52906Eh = 830.73786eV)
Grid space d3=  0.508438095238a0 (KE cutoff=  29.38514Eh = 799.61048eV)
================================================================================

********************* Fourier parallelisation information **********************
       Coarse grid (whole simulation cell) dimensions:    270   286   315
          Real-space ('12') slabs/node (min max mean):      7     8     7
         Recip-space ('23') slabs/node (min max mean):      3     4     3
********************************************************************************

********************* Fourier parallelisation information **********************
       Double grid (whole simulation cell) dimensions:    540   572   630
          Real-space ('12') slabs/node (min max mean):     15    16    15
         Recip-space ('23') slabs/node (min max mean):      6     7     6
********************************************************************************
ONETEP fine grid is 540 x 572 x 630 gridpoints, 135.9960 x 142.6630 x 160.1580 bohr.
FD multigrid is     537 x 569 x 625 gridpoints, 135.2405 x 141.9148 x 158.8869 bohr.


Calculating local pseudopotential in open BC on a radial grid ...
Discrepancy between calculated realspace psloc and -Z/x on [5a0,253.965a0]:
max |rel. diff| # avg |rel. diff| #  avg rel. diff #  f # pseudopotential file
 0.000259282084    0.000004141996   0.000000074978   54  'N_00.recpot'
 0.000405386992    0.000016970607  -0.000000075982   54  'H_04.recpot'
 0.000371694516    0.000017434762   0.000000149329   54  'C_01.recpot'
 0.000461642895    0.000020341726   0.000000491514   54  'S_00.recpot'
 0.000682525123    0.000027368244   0.000000159803   54  'O_02.recpot'
... done
 WARNING: meta-GGA functionality under development.
          Using this functional is experimental.
          Minimum tau threshold, xc_min_tau =   1.00000000E-12
 WARNING: Using alternative XC functional PBE for 
          radial densities (xc_radial).

Atom SCF Calculation for N  : Z (AE atom) =   7 : Z (PS atom) =   5
Config String:
Orbitals (num,occ):  2     2.00 3.00
Orbitals   (num,l):  2        0    1
Real-space Grid (nr,dr,rmax): 1203    0.0066555740    8.0000000000
Spherical Bessel Basis (nsws,lmax,cutoff):   47    1  176.3951722778
Confining potential (l,width,scale):  0    3.0000000000  100.0000000000
Confining potential (l,width,scale):  1    3.0000000000  100.0000000000
  1         -4.7312375307   -3.4155304497    7.0523828109   -1.9351020946
  2         -9.7309464766   -2.0532547791    8.2966052865   -2.2494486027
  3         -9.6627394379   -2.1124926340    8.2327997121   -2.2369778124
  4         -9.6814993499   -2.1215521045    8.2229805960   -2.2365178421
  5         -9.6843326483   -2.1250939529    8.2191374534   -2.2362718126
  6         -9.6859628709   -2.1267894855    8.2172963573   -2.2362066344
  7         -9.6867347035   -2.1276425665    8.2163697352   -2.2361903369
  8         -9.6870802100   -2.1280764625    8.2158983890   -2.2361891460
  9         -9.6872290423   -2.1282977424    8.2156580222   -2.2361920435
 10         -9.6872901988   -2.1284107021    8.2155353368   -2.2361953393
 11         -9.6873135296   -2.1284684031    8.2154726809   -2.2361979819
 12         -9.6873212476   -2.1284978948    8.2154406648   -2.2361998431
 13         -9.6873229586   -2.1285129774    8.2154242957   -2.2362010676
 14         -9.6873226456   -2.1285206957    8.2154159216   -2.2362018403
 15         -9.6873218534   -2.1285246479    8.2154116349   -2.2362023142
 16         -9.6873212599   -2.1285262679    8.2154098784   -2.2362025420
 17         -9.6873207834   -2.1285272564    8.2154088068   -2.2362026955
 18         -9.6873204210   -2.1285278597    8.2154081529   -2.2362027982
 19         -9.6873201550   -2.1285282280    8.2154077538   -2.2362028667
 20         -9.6873199645   -2.1285284529    8.2154075102   -2.2362029121
 21         -9.6873198305   -2.1285285903    8.2154073614   -2.2362029421
 22         -9.6873197377   -2.1285286742    8.2154072705   -2.2362029618
Atom SCF converged after  22 iterations to a total energy of     -9.68731974

Atom SCF Calculation for H  : Z (AE atom) =   1 : Z (PS atom) =   1
Config String:
Orbitals (num,occ):  1     1.00
Orbitals   (num,l):  1        0
Real-space Grid (nr,dr,rmax): 1203    0.0066555740    8.0000000000
Spherical Bessel Basis (nsws,lmax,cutoff):   47    0  176.3951722778
Confining potential (l,width,scale):  0    3.0000000000  100.0000000000
  1         -0.3194257691   -0.2393854593    0.2820953124   -0.2424203209
  2         -0.3951823392   -0.2377116493    0.2886404059   -0.2475147891
  3         -0.4317044583   -0.2352244387    0.2921333887   -0.2514046172
  4         -0.4470703708   -0.2341892222    0.2934391879   -0.2531009782
  5         -0.4532132900   -0.2338556667    0.2938388426   -0.2537313520
  6         -0.4556579251   -0.2337612552    0.2939448584   -0.2539550462
  7         -0.4566418315   -0.2337377355    0.2939680120   -0.2540342273
  8         -0.4570437922   -0.2337331116    0.2939708287   -0.2540627372
  9         -0.4572102946   -0.2337328328    0.2939698291   -0.2540732650
 10         -0.4572800424   -0.2337332404    0.2939687193   -0.2540772588
 11         -0.4573095100   -0.2337335791    0.2939680317   -0.2540788122
 12         -0.4573220379   -0.2337337762    0.2939676699   -0.2540794294
 13         -0.4573273880   -0.2337338775    0.2939674931   -0.2540796787
 14         -0.4573296803   -0.2337339266    0.2939674099   -0.2540797808
 15         -0.4573306647   -0.2337339495    0.2939673718   -0.2540798230
 16         -0.4573310882   -0.2337339601    0.2939673545   -0.2540798406
 17         -0.4573312706   -0.2337339649    0.2939673467   -0.2540798479
 18         -0.4573313493   -0.2337339670    0.2939673433   -0.2540798510
Atom SCF converged after  18 iterations to a total energy of     -0.45733135

Atom SCF Calculation for C  : Z (AE atom) =   6 : Z (PS atom) =   4
Config String:
Orbitals (num,occ):  2     2.00 2.00
Orbitals   (num,l):  2        0    1
Real-space Grid (nr,dr,rmax): 1203    0.0066555740    8.0000000000
Spherical Bessel Basis (nsws,lmax,cutoff):   47    1  176.3951722778
Confining potential (l,width,scale):  0    3.0000000000  100.0000000000
Confining potential (l,width,scale):  1    3.0000000000  100.0000000000
  1         -5.2976922011   -1.3069684169    4.5135249990   -1.4493313817
  2         -5.3721716256   -1.3429755895    4.4750154450   -1.4361613026
  3         -5.3809959565   -1.3617365618    4.4541655428   -1.4305930207
  4         -5.3918938866   -1.3667928461    4.4484735100   -1.4294652294
  5         -5.3956096428   -1.3688539142    4.4461376126   -1.4290734646
  6         -5.3968271862   -1.3696852393    4.4451910874   -1.4289366866
  7         -5.3972028401   -1.3700178062    4.4448112275   -1.4288900460
  8         -5.3973067903   -1.3701500158    4.4446598370   -1.4288749220
  9         -5.3973286940   -1.3702023868    4.4445997329   -1.4288704293
 10         -5.3973289850   -1.3702230869    4.4445759233   -1.4288693188
 11         -5.3973254264   -1.3702312560    4.4445665049   -1.4288691775
 12         -5.3973224003   -1.3702344755    4.4445627836   -1.4288692549
 13         -5.3973208708   -1.3702354890    4.4445616088   -1.4288693270
 14         -5.3973198783   -1.3702360102    4.4445610034   -1.4288693814
 15         -5.3973192535   -1.3702362780    4.4445606917   -1.4288694190
 16         -5.3973188684   -1.3702364155    4.4445605313   -1.4288694437
 17         -5.3973186349   -1.3702364860    4.4445604489   -1.4288694595
 18         -5.3973184951   -1.3702365221    4.4445604065   -1.4288694693
 19         -5.3973184122   -1.3702365405    4.4445603848   -1.4288694753
Atom SCF converged after  19 iterations to a total energy of     -5.39731841

Atom SCF Calculation for S  : Z (AE atom) =  16 : Z (PS atom) =   6
Config String:
Orbitals (num,occ):  3     2.00 4.00 0.00
Orbitals   (num,l):  3        0    1    2
Real-space Grid (nr,dr,rmax): 1203    0.0066555740    8.0000000000
Spherical Bessel Basis (nsws,lmax,cutoff):   47    2  176.3951722778
Confining potential (l,width,scale):  0    3.0000000000  100.0000000000
Confining potential (l,width,scale):  1    3.0000000000  100.0000000000
Confining potential (l,width,scale):  2    3.0000000000  100.0000000000
  1        -12.4735062396   -1.0328741412   10.1554312477   -2.4512393157
  2         -9.9458301913   -2.4607392455    8.3041325857   -2.0306994528
  3        -10.1450417646   -2.2931184565    8.4831893826   -2.0812538287
  4        -10.1528335592   -2.2733105793    8.5050388867   -2.0896035179
  5        -10.1571940363   -2.2633716629    8.5160794258   -2.0939370707
  6        -10.1594380571   -2.2584938667    8.5215163935   -2.0961289008
  7        -10.1605856507   -2.2561081821    8.5241804044   -2.0972291378
  8        -10.1611799191   -2.2549395235    8.5254868240   -2.0977806248
  9        -10.1614918752   -2.2543658586    8.5261285885   -2.0980571586
 10        -10.1616572884   -2.2540839121    8.5264441898   -2.0981959233
 11        -10.1617455602   -2.2539453058    8.5265994231   -2.0982656006
 12        -10.1617928447   -2.2538772062    8.5266757320   -2.0983006047
 13        -10.1618182292   -2.2538437891    8.5267131983   -2.0983181961
 14        -10.1618318741   -2.2538274201    8.5267315620   -2.0983270391
 15        -10.1618392144   -2.2538194197    8.5267405433   -2.0983314852
 16        -10.1618431651   -2.2538155200    8.5267449245   -2.0983337210
 17        -10.1618452923   -2.2538136252    8.5267470551   -2.0983348455
 18        -10.1618464380   -2.2538127080    8.5267480875   -2.0983354110
 19        -10.1618470552   -2.2538122659    8.5267485856   -2.0983356955
 20        -10.1618473878   -2.2538120540    8.5267488248   -2.0983358386
 21        -10.1618475670   -2.2538119530    8.5267489389   -2.0983359106
 22        -10.1618476637   -2.2538119053    8.5267489929   -2.0983359468
Atom SCF converged after  22 iterations to a total energy of    -10.16184766

Atom SCF Calculation for O  : Z (AE atom) =   8 : Z (PS atom) =   6
Config String:
Orbitals (num,occ):  2     2.00 4.00
Orbitals   (num,l):  2        0    1
Real-space Grid (nr,dr,rmax): 1203    0.0066555740    8.0000000000
Spherical Bessel Basis (nsws,lmax,cutoff):   47    1  176.3951722778
Confining potential (l,width,scale):  0    3.0000000000  100.0000000000
Confining potential (l,width,scale):  1    3.0000000000  100.0000000000
  1         -1.8735052164   -7.5539365035   10.1554312477   -2.4512393157
  2        -16.0318313751   -3.1285771268   13.6395848164   -3.2358799643
  3        -15.9524020423   -3.0762819706   13.6967272503   -3.2536856837
  4        -15.8521515939   -3.0781493909   13.6951909330   -3.2561700440
  5        -15.8357139793   -3.0748501933   13.6988803334   -3.2580493133
  6        -15.8246052853   -3.0740779781   13.6997881576   -3.2588327446
  7        -15.8189019501   -3.0737449687   13.7001869911   -3.2592378801
  8        -15.8159785510   -3.0736026016   13.7003615168   -3.2594475790
  9        -15.8144776168   -3.0735437994   13.7004360379   -3.2595560735
 10        -15.8137058024   -3.0735207882   13.7004667348   -3.2596122456
 11        -15.8133083127   -3.0735125946   13.7004786868   -3.2596413656
 12        -15.8131032938   -3.0735102195   13.7004828997   -3.2596564858
 13        -15.8129973902   -3.0735099286   13.7004840891   -3.2596643505
 14        -15.8129426040   -3.0735102506   13.7004842061   -3.2596684489
 15        -15.8129142203   -3.0735106556   13.7004840157   -3.2596705887
 16        -15.8128994940   -3.0735109855   13.7004837906   -3.2596717080
 17        -15.8128918425   -3.0735112169   13.7004836103   -3.2596722946
 18        -15.8128878614   -3.0735113674   13.7004834848   -3.2596726026
 19        -15.8128857871   -3.0735114608   13.7004834035   -3.2596727646
 20        -15.8128847048   -3.0735115170   13.7004833533   -3.2596728500
 21        -15.8128841394   -3.0735115501   13.7004833231   -3.2596728951
 22        -15.8128838436   -3.0735115693   13.7004833054   -3.2596729190
 23        -15.8128836887   -3.0735115802   13.7004832951   -3.2596729316
 24        -15.8128836074   -3.0735115864   13.7004832893   -3.2596729383
Atom SCF converged after  24 iterations to a total energy of    -15.81288361

========================== Calculation in vacuum ==============================
= Adjusting the following parameters: 
= is_implicit_solvent: F
= is_include_apolar: F
= write_denskern: T
= write_tightbox_ngwfs: T
= restart read filename prefix: ""
= restart write filename prefix: "vacuum_"
===============================================================================

Determining parallel strategy ...
... using space-filling curve
... NGWF load balancing: max    164;  min    163;  average    163
... Projector load balancing: max     36;  min     32;  average     33
... done
Calculating direct Ion-Ion energy ...
Ion-Ion Energy        :    841706.64977713197004
Basis initialisation ...... NGWF spheres initialised
... Projector spheres initialised
... NGWF tight boxes initialised
... Tight-boxes gathered
... NGWF basis size (local,global):    1272961  51069633
... Nonlocal pseudopotential projector initialisation
... done

========================== Sparse matrix information ===========================
                        Overlap matrix filling:   6.83%
                        Density kernel filling: 100.00%
              NGWF-Proj overlap matrix filling:   1.78%
                    Hamiltonian matrix filling:   7.72%
                  NGWF diagonal matrix filling:   0.05%
                             KS matrix filling: 100.00% 
                           KSKS matrix filling: 100.00% 
================================================================================

Sparse matrix initialisation ... done

Generating smeared ion density ... done
Smeared ion self correction:     -14525.987107
Smeared ion non-self correction: -841658.207741
NGWF initialisation ...... done
============ Calculation of NGWF S^-1 using Hotelling algorithm ================ 
         Iteration  |  Frobenius norm and Maximum abs value    (of I-S*S_n^-1)   
               1       0.78606311E+02     0.98192928E+00
               2       0.76695173E+02     0.96436312E+00
               3       0.73621228E+02     0.93064047E+00
               4       0.69286529E+02     0.86822618E+00
               5       0.63921547E+02     0.76130931E+00
               6       0.57923800E+02     0.70136370E+00
               7       0.51931863E+02     0.66834923E+00
               8       0.46388712E+02     0.64259905E+00
               9       0.40234996E+02     0.60120275E+00
              10       0.31824130E+02     0.52837847E+00
              11       0.21164502E+02     0.42836677E+00
              12       0.10634034E+02     0.28822375E+00
              13       0.34110595E+01     0.13192493E+00
              14       0.52414077E+00     0.31421060E-01
              15       0.25839965E-01     0.28699597E-02
              16       0.14744393E-03     0.26162066E-04
              17       0.84304160E-08     0.22248248E-08
              18       0.88635393E-13     0.38857806E-14
================================================================================
Calculating local pseudopotential in open BC on the fine real space grid ...
... done

MG BCs: +ve charge blocks (gridpoints):     20480 (   16104896).
MG BCs: -ve charge blocks (gridpoints):      8125 (    1089466).
MG BCs:     Elided blocks (gridpoints):    173434 (  173776263).
MG BCs: Computational effort saved:  99.9850%.
MG BCs: Charge after coarse-graining:           -9.0002253.
MG DL_MG: Calling solver with defect correction order = 8
MG DL_MG: Solver finished
MG Hartree energy from (\int phi*rho dr):              1470.727985
MG Hartree energy from (\int eps (grad phi)^2 dr):     1470.109808
MG Discrepancy due to finite box and discretization:     -0.618178 (  -0.04203%)
MG Correction to account for finite box:                  0.466827
MG Remaining discrepancy, due to discretization:         -0.151350 (  -0.01029%)
 WARNING: xc_energy_potential using alternative initial XC functional PBE.
Up spin density kernel initialisation ... 
======= Optimisation of K by Palser-Manolopoulos canonical purification ======== 
         Iteration  |  Band structure energy |    c_n   
               1       -2594.08706001421206    0.5278204
               2       -2770.56362549375081    0.5177530
               3       -2952.66758009073692    0.5155036
               4       -3106.23046124775465    0.5282866
               5       -3201.99851554110001    0.5631928
               6       -3242.69344804069988    0.6083598
               7       -3256.56117137102547    0.6224391
               8       -3262.48864742655041    0.6226704
               9       -3265.35286334530747    0.6391297
              10       -3266.54602361601565    0.6686707
              11       -3267.01087454316985    0.6928435
              12       -3267.21232008997231    0.6947377
              13       -3267.31692696164191    0.6481910
              14       -3267.38745708696388    0.5640811
              15       -3267.43469121283943    0.4735990
              16       -3267.45073533882351    0.4197472
              17       -3267.45279115183712    0.3823845
              18       -3267.45381682347761    0.3752535
              19       -3267.45431556672065    0.4212319
              20       -3267.45472412911568    0.4685626
              21       -3267.45501208180031    0.4946049
              22       -3267.45512796839103    0.4998390
              23       -3267.45514323440239    0.4999999
              24       -3267.45514347554581    0.4999999
Termination criterion satisfied: band energy change below threshold.
Final occupancy bounds: [    0.00000000000039:    0.99999999999973]
Closest occupancy to 0.5:     0.99999999999965
================================================================================
... done

Writing density kernel to file "complex_17961.vacuum_dkn" ... done

>>> Optimising kernel for current NGWFs:
   Initial electron number for spin 1:    7228.00000000
     Final electron number for spin 1:    7228.00000000

=================== Penalty functional idempotency correction ==================
 RMS occupancy error at iteration   1:  0.000000 (step -0.5000 Ne1=   7228.0000)
            Final RMS occupancy error   :  0.000000 (Ne1=   7228.0000)
               Final occupancy bounds   : [  0.0000,  1.0000]
================================================================================

................................................................................
<<<<<<<<<<<<<< LNV (Original version) density kernel optimisation >>>>>>>>>>>>>>
~~~~~~~~~~~~~~~~~~~~~~~~~~~~~~~~~~~~~~~~~~~~~~~~~~~~~~~~~~~~~~~~~~~~~~~~~~~~~~~~
   iter  |      energy (Eh)       | rms gradient |  commutator  |   dE (Eh)
MG BCs: +ve charge blocks (gridpoints):     31052 (   17217796).
MG BCs: -ve charge blocks (gridpoints):      8425 (    1122033).
MG BCs:     Elided blocks (gridpoints):    162854 (  172630796).
MG BCs: Computational effort saved:  99.9793%.
MG BCs: Charge after coarse-graining:           -9.0009592.
MG DL_MG: Calling solver with defect correction order = 8
MG DL_MG: Solver finished
MG Hartree energy from (\int phi*rho dr):              1424.078563
MG Hartree energy from (\int eps (grad phi)^2 dr):     1423.413221
MG Discrepancy due to finite box and discretization:     -0.665341 (  -0.04672%)
MG Correction to account for finite box:                  0.471410
MG Remaining discrepancy, due to discretization:         -0.193931 (  -0.01362%)
      ideal mu1:      -0.732813364713
             Q0:  -11525.358029507566
             G0:    -124.891800944001
   RMS gradient:       0.001709053377
MG BCs: +ve charge blocks (gridpoints):     31025 (   17294502).
MG BCs: -ve charge blocks (gridpoints):      8343 (    1099184).
MG BCs:     Elided blocks (gridpoints):    162881 (  172576939).
MG BCs: Computational effort saved:  99.9794%.
MG BCs: Charge after coarse-graining:           -9.0009832.
MG DL_MG: Calling solver with defect correction order = 8
MG DL_MG: Solver finished
MG Hartree energy from (\int phi*rho dr):              1446.534529
MG Hartree energy from (\int eps (grad phi)^2 dr):     1445.885270
MG Discrepancy due to finite box and discretization:     -0.649260 (  -0.04488%)
MG Correction to account for finite box:                  0.470798
MG Remaining discrepancy, due to discretization:         -0.178461 (  -0.01234%)
     Trial step:       0.500000000000
             Q1:  -11537.340540996986
 Quadratic coef:      50.463388982582
 Linear coef   :     -62.445900472000
           Qmin:  -11544.676443135637
Quadratic minimum step length (  0.309362399806) accepted
    Initial Ne1:    7228.00000000
      Final Ne1:    7228.00000000

=================== Penalty functional idempotency correction ==================
 RMS occupancy error at iteration   1:  0.003146 (step -0.4893 Ne1=   7228.0000)
 RMS occupancy error at iteration   2:  0.000023 (step -0.5000 Ne1=   7228.0000)
            Final RMS occupancy error   :  0.000000 (Ne1=   7228.0000)
               Final occupancy bounds   : [  0.0000,  1.0000]
================================================================================

    1        -1.152535802951E+04     1.7091E-03     1.5461E-03
MG BCs: +ve charge blocks (gridpoints):     31050 (   17266893).
MG BCs: -ve charge blocks (gridpoints):      8382 (    1108034).
MG BCs:     Elided blocks (gridpoints):    162857 (  172595698).
MG BCs: Computational effort saved:  99.9794%.
MG BCs: Charge after coarse-graining:           -9.0009739.
MG DL_MG: Calling solver with defect correction order = 8
MG DL_MG: Solver finished
MG Hartree energy from (\int phi*rho dr):              1431.452590
MG Hartree energy from (\int eps (grad phi)^2 dr):     1430.798029
MG Discrepancy due to finite box and discretization:     -0.654561 (  -0.04573%)
MG Correction to account for finite box:                  0.470929
MG Remaining discrepancy, due to discretization:         -0.183632 (  -0.01283%)
      ideal mu1:      -0.778964495616
             Q0:  -11545.050975069753
             G0:     -11.070853642957
   RMS gradient:       0.000505183993
MG BCs: +ve charge blocks (gridpoints):     31019 (   17283795).
MG BCs: -ve charge blocks (gridpoints):      8356 (    1101180).
MG BCs:     Elided blocks (gridpoints):    162887 (  172585650).
MG BCs: Computational effort saved:  99.9794%.
MG BCs: Charge after coarse-graining:           -9.0009789.
MG DL_MG: Calling solver with defect correction order = 8
MG DL_MG: Solver finished
MG Hartree energy from (\int phi*rho dr):              1437.152093
MG Hartree energy from (\int eps (grad phi)^2 dr):     1436.501027
MG Discrepancy due to finite box and discretization:     -0.651067 (  -0.04530%)
MG Correction to account for finite box:                  0.470489
MG Remaining discrepancy, due to discretization:         -0.180577 (  -0.01256%)
     Trial step:       0.393295308773
             Q1:  -11547.581495893188
 Quadratic coef:       1.823593978455
 Linear coef   :      -4.354114801890
           Qmin:  -11547.650006972142
Quadratic minimum step length (  0.469526919280) accepted
    Initial Ne1:    7227.99992680
      Final Ne1:    7228.00000000

=================== Penalty functional idempotency correction ==================
 RMS occupancy error at iteration   1:  0.001484 (step -0.4947 Ne1=   7228.0000)
 RMS occupancy error at iteration   2:  0.000006 (step -0.5000 Ne1=   7228.0000)
            Final RMS occupancy error   :  0.000000 (Ne1=   7228.0000)
               Final occupancy bounds   : [  0.0000,  1.0000]
================================================================================

    2        -1.154505097507E+04     5.0518E-04     4.5703E-04    -1.9693E+01
MG BCs: +ve charge blocks (gridpoints):     31016 (   17287144).
MG BCs: -ve charge blocks (gridpoints):      8355 (    1099796).
MG BCs:     Elided blocks (gridpoints):    162890 (  172583685).
MG BCs: Computational effort saved:  99.9794%.
MG BCs: Charge after coarse-graining:           -9.0009798.
MG DL_MG: Calling solver with defect correction order = 8
MG DL_MG: Solver finished
MG Hartree energy from (\int phi*rho dr):              1438.281270
MG Hartree energy from (\int eps (grad phi)^2 dr):     1437.630835
MG Discrepancy due to finite box and discretization:     -0.650435 (  -0.04522%)
MG Correction to account for finite box:                  0.470413
MG Remaining discrepancy, due to discretization:         -0.180021 (  -0.01252%)
      ideal mu1:      -0.802302444974
             Q0:  -11547.683222871274
             G0:      -1.833808034501
   RMS gradient:       0.000205679925
MG BCs: +ve charge blocks (gridpoints):     31016 (   17288000).
MG BCs: -ve charge blocks (gridpoints):      8360 (    1099690).
MG BCs:     Elided blocks (gridpoints):    162890 (  172582935).
MG BCs: Computational effort saved:  99.9794%.
MG BCs: Charge after coarse-graining:           -9.0009802.
MG DL_MG: Calling solver with defect correction order = 8
MG DL_MG: Solver finished
MG Hartree energy from (\int phi*rho dr):              1437.704344
MG Hartree energy from (\int eps (grad phi)^2 dr):     1437.054315
MG Discrepancy due to finite box and discretization:     -0.650029 (  -0.04521%)
MG Correction to account for finite box:                  0.470212
MG Remaining discrepancy, due to discretization:         -0.179816 (  -0.01251%)
     Trial step:       0.429724021548
             Q1:  -11548.150524985860
 Quadratic coef:       0.320729248748
 Linear coef   :      -0.788031363333
           Qmin:  -11548.167270889986
Quadratic minimum step length (  0.527915691943) accepted
    Initial Ne1:    7227.99997668
      Final Ne1:    7228.00000000

=================== Penalty functional idempotency correction ==================
 RMS occupancy error at iteration   1:  0.000563 (step -0.4978 Ne1=   7228.0000)
 RMS occupancy error at iteration   2:  0.000001 (step -0.5000 Ne1=   7228.0000)
            Final RMS occupancy error   :  0.000000 (Ne1=   7228.0000)
               Final occupancy bounds   : [  0.0000,  1.0000]
================================================================================

    3        -1.154768322287E+04     2.0568E-04     1.8607E-04    -2.6322E+00
MG BCs: +ve charge blocks (gridpoints):     31018 (   17288263).
MG BCs: -ve charge blocks (gridpoints):      8364 (    1099678).
MG BCs:     Elided blocks (gridpoints):    162888 (  172582684).
MG BCs: Computational effort saved:  99.9794%.
MG BCs: Charge after coarse-graining:           -9.0009802.
MG DL_MG: Calling solver with defect correction order = 8
MG DL_MG: Solver finished
MG Hartree energy from (\int phi*rho dr):              1437.577689
MG Hartree energy from (\int eps (grad phi)^2 dr):     1436.927742
MG Discrepancy due to finite box and discretization:     -0.649948 (  -0.04521%)
MG Correction to account for finite box:                  0.470168
MG Remaining discrepancy, due to discretization:         -0.179780 (  -0.01251%)
      ideal mu1:      -0.805086122012
             Q0:  -11548.171766379965
             G0:      -0.398189165634
   RMS gradient:       0.000096020358
MG BCs: +ve charge blocks (gridpoints):     31023 (   17288675).
MG BCs: -ve charge blocks (gridpoints):      8360 (    1099583).
MG BCs:     Elided blocks (gridpoints):    162883 (  172582367).
MG BCs: Computational effort saved:  99.9794%.
MG BCs: Charge after coarse-graining:           -9.0009801.
MG DL_MG: Calling solver with defect correction order = 8
MG DL_MG: Solver finished
MG Hartree energy from (\int phi*rho dr):              1438.615690
MG Hartree energy from (\int eps (grad phi)^2 dr):     1437.965651
MG Discrepancy due to finite box and discretization:     -0.650039 (  -0.04519%)
MG Correction to account for finite box:                  0.470096
MG Remaining discrepancy, due to discretization:         -0.179943 (  -0.01251%)
     Trial step:       0.476296183252
             Q1:  -11548.268860605080
 Quadratic coef:       0.092561754689
 Linear coef   :      -0.189655979804
           Qmin:  -11548.268916090436
Quadratic minimum step length (  0.487957578239) accepted
    Initial Ne1:    7227.99999517
      Final Ne1:    7228.00000000

=================== Penalty functional idempotency correction ==================
 RMS occupancy error at iteration   1:  0.000180 (step -0.4993 Ne1=   7228.0000)
            Final RMS occupancy error   :  0.000000 (Ne1=   7228.0000)
               Final occupancy bounds   : [ -0.0000,  1.0000]
================================================================================

    4        -1.154817176638E+04     9.6020E-05     8.6867E-05    -4.8854E-01
MG BCs: +ve charge blocks (gridpoints):     31023 (   17288667).
MG BCs: -ve charge blocks (gridpoints):      8360 (    1099599).
MG BCs:     Elided blocks (gridpoints):    162883 (  172582359).
MG BCs: Computational effort saved:  99.9794%.
MG BCs: Charge after coarse-graining:           -9.0009801.
MG DL_MG: Calling solver with defect correction order = 8
MG DL_MG: Solver finished
MG Hartree energy from (\int phi*rho dr):              1438.641337
MG Hartree energy from (\int eps (grad phi)^2 dr):     1437.991295
MG Discrepancy due to finite box and discretization:     -0.650042 (  -0.04518%)
MG Correction to account for finite box:                  0.470094
MG Remaining discrepancy, due to discretization:         -0.179948 (  -0.01251%)
      ideal mu1:      -0.805071747363
             Q0:  -11548.269332187134
             G0:      -0.102243481117
   RMS gradient:       0.000048796202
MG BCs: +ve charge blocks (gridpoints):     31021 (   17288220).
MG BCs: -ve charge blocks (gridpoints):      8360 (    1099758).
MG BCs:     Elided blocks (gridpoints):    162885 (  172582647).
MG BCs: Computational effort saved:  99.9794%.
MG BCs: Charge after coarse-graining:           -9.0009799.
MG DL_MG: Calling solver with defect correction order = 8
MG DL_MG: Solver finished
MG Hartree energy from (\int phi*rho dr):              1438.356561
MG Hartree energy from (\int eps (grad phi)^2 dr):     1437.706370
MG Discrepancy due to finite box and discretization:     -0.650191 (  -0.04520%)
MG Correction to account for finite box:                  0.470112
MG Remaining discrepancy, due to discretization:         -0.180079 (  -0.01252%)
     Trial step:       0.482091622105
             Q1:  -11548.293153243372
 Quadratic coef:       0.025469669423
 Linear coef   :      -0.049290725661
           Qmin:  -11548.293179921431
Quadratic minimum step length (  0.466489091285) accepted
    Initial Ne1:    7228.00172280
      Final Ne1:    7228.00000000

=================== Penalty functional idempotency correction ==================
 RMS occupancy error at iteration   1:  0.000060 (step -0.4997 Ne1=   7228.0000)
            Final RMS occupancy error   :  0.000000 (Ne1=   7228.0000)
               Final occupancy bounds   : [ -0.0000,  1.0000]
================================================================================

    5        -1.154826933219E+04     4.8796E-05     4.4145E-05    -9.7566E-02
MG BCs: +ve charge blocks (gridpoints):     31021 (   17288224).
MG BCs: -ve charge blocks (gridpoints):      8360 (    1099758).
MG BCs:     Elided blocks (gridpoints):    162885 (  172582643).
MG BCs: Computational effort saved:  99.9794%.
MG BCs: Charge after coarse-graining:           -9.0009799.
MG DL_MG: Calling solver with defect correction order = 8
MG DL_MG: Solver finished
MG Hartree energy from (\int phi*rho dr):              1438.365766
MG Hartree energy from (\int eps (grad phi)^2 dr):     1437.715579
MG Discrepancy due to finite box and discretization:     -0.650186 (  -0.04520%)
MG Correction to account for finite box:                  0.470112
MG Remaining discrepancy, due to discretization:         -0.180074 (  -0.01252%)
      ideal mu1:      -0.804415751320
             Q0:  -11548.293223873246
             G0:      -0.023925967020
   RMS gradient:       0.000023629292
MG BCs: +ve charge blocks (gridpoints):     31022 (   17288017).
MG BCs: -ve charge blocks (gridpoints):      8360 (    1099905).
MG BCs:     Elided blocks (gridpoints):    162884 (  172582703).
MG BCs: Computational effort saved:  99.9794%.
MG BCs: Charge after coarse-graining:           -9.0009798.
MG DL_MG: Calling solver with defect correction order = 8
MG DL_MG: Solver finished
MG Hartree energy from (\int phi*rho dr):              1437.901154
MG Hartree energy from (\int eps (grad phi)^2 dr):     1437.250951
MG Discrepancy due to finite box and discretization:     -0.650203 (  -0.04522%)
MG Correction to account for finite box:                  0.470118
MG Remaining discrepancy, due to discretization:         -0.180085 (  -0.01252%)
     Trial step:       0.474226193617
             Q1:  -11548.300134646939
 Quadratic coef:       0.004435546576
 Linear coef   :      -0.011346320268
           Qmin:  -11548.300479967926
Quadratic minimum step length (  0.606545572239) accepted
    Initial Ne1:    7228.00078958
      Final Ne1:    7228.00000000

=================== Penalty functional idempotency correction ==================
 RMS occupancy error at iteration   1:  0.000024 (step -0.4999 Ne1=   7228.0000)
            Final RMS occupancy error   :  0.000000 (Ne1=   7228.0000)
               Final occupancy bounds   : [ -0.0000,  1.0000]
================================================================================

    6        -1.154829322387E+04     2.3629E-05     2.1377E-05    -2.3892E-02
MG BCs: +ve charge blocks (gridpoints):     31022 (   17287955).
MG BCs: -ve charge blocks (gridpoints):      8360 (    1099941).
MG BCs:     Elided blocks (gridpoints):    162884 (  172582729).
MG BCs: Computational effort saved:  99.9794%.
MG BCs: Charge after coarse-graining:           -9.0009798.
MG DL_MG: Calling solver with defect correction order = 8
MG DL_MG: Solver finished
MG Hartree energy from (\int phi*rho dr):              1437.771364
MG Hartree energy from (\int eps (grad phi)^2 dr):     1437.121157
MG Discrepancy due to finite box and discretization:     -0.650207 (  -0.04522%)
MG Correction to account for finite box:                  0.470120
MG Remaining discrepancy, due to discretization:         -0.180087 (  -0.01253%)
      ideal mu1:      -0.804440317378
             Q0:  -11548.300485368469
             G0:      -0.008994484279
   RMS gradient:       0.000014503633
MG BCs: +ve charge blocks (gridpoints):     31022 (   17288267).
MG BCs: -ve charge blocks (gridpoints):      8361 (    1099743).
MG BCs:     Elided blocks (gridpoints):    162884 (  172582615).
MG BCs: Computational effort saved:  99.9794%.
MG BCs: Charge after coarse-graining:           -9.0009799.
MG DL_MG: Calling solver with defect correction order = 8
MG DL_MG: Solver finished
MG Hartree energy from (\int phi*rho dr):              1438.254912
MG Hartree energy from (\int eps (grad phi)^2 dr):     1437.604706
MG Discrepancy due to finite box and discretization:     -0.650207 (  -0.04521%)
MG Correction to account for finite box:                  0.470113
MG Remaining discrepancy, due to discretization:         -0.180093 (  -0.01252%)
     Trial step:       0.536320611181
             Q1:  -11548.302720330190
 Quadratic coef:       0.002588965584
 Linear coef   :      -0.004823927306
           Qmin:  -11548.302732431426
Quadratic minimum step length (  0.499653540499) accepted
    Initial Ne1:    7228.00004399
      Final Ne1:    7228.00000000

=================== Penalty functional idempotency correction ==================
 RMS occupancy error at iteration   1:  0.000001 (step -0.5000 Ne1=   7228.0000)
            Final RMS occupancy error   :  0.000000 (Ne1=   7228.0000)
               Final occupancy bounds   : [  0.0000,  1.0000]
================================================================================

    7        -1.154830048537E+04     1.4504E-05     1.3121E-05    -7.2615E-03
MG BCs: +ve charge blocks (gridpoints):     31022 (   17288259).
MG BCs: -ve charge blocks (gridpoints):      8360 (    1099754).
MG BCs:     Elided blocks (gridpoints):    162884 (  172582612).
MG BCs: Computational effort saved:  99.9794%.
MG BCs: Charge after coarse-graining:           -9.0009799.
MG DL_MG: Calling solver with defect correction order = 8
MG DL_MG: Solver finished
MG Hartree energy from (\int phi*rho dr):              1438.221825
MG Hartree energy from (\int eps (grad phi)^2 dr):     1437.571618
MG Discrepancy due to finite box and discretization:     -0.650207 (  -0.04521%)
MG Correction to account for finite box:                  0.470114
MG Remaining discrepancy, due to discretization:         -0.180093 (  -0.01252%)
      ideal mu1:      -0.804700560775
             Q0:  -11548.302732470213
             G0:      -0.004763094499
   RMS gradient:       0.000010554702
MG BCs: +ve charge blocks (gridpoints):     31023 (   17288349).
MG BCs: -ve charge blocks (gridpoints):      8360 (    1099715).
MG BCs:     Elided blocks (gridpoints):    162883 (  172582561).
MG BCs: Computational effort saved:  99.9794%.
MG BCs: Charge after coarse-graining:           -9.0009799.
MG DL_MG: Calling solver with defect correction order = 8
MG DL_MG: Solver finished
MG Hartree energy from (\int phi*rho dr):              1438.274360
MG Hartree energy from (\int eps (grad phi)^2 dr):     1437.624168
MG Discrepancy due to finite box and discretization:     -0.650192 (  -0.04521%)
MG Correction to account for finite box:                  0.470105
MG Remaining discrepancy, due to discretization:         -0.180087 (  -0.01252%)
     Trial step:       0.517662527347
             Q1:  -11548.304515123134
 Quadratic coef:       0.000683022614
 Linear coef   :      -0.002465675536
           Qmin:  -11548.304957709805
Quadratic minimum step length (  0.934367181905) accepted
    Initial Ne1:    7228.00004328
      Final Ne1:    7228.00000000

=================== Penalty functional idempotency correction ==================
 RMS occupancy error at iteration   1:  0.000009 (step -0.4998 Ne1=   7228.0000)
            Final RMS occupancy error   :  0.000000 (Ne1=   7228.0000)
               Final occupancy bounds   : [ -0.0000,  1.0000]
================================================================================

    8        -1.154830273247E+04     1.0555E-05     9.5486E-06    -2.2471E-03
MG BCs: +ve charge blocks (gridpoints):     31022 (   17288371).
MG BCs: -ve charge blocks (gridpoints):      8360 (    1099703).
MG BCs:     Elided blocks (gridpoints):    162884 (  172582551).
MG BCs: Computational effort saved:  99.9794%.
MG BCs: Charge after coarse-graining:           -9.0009800.
MG DL_MG: Calling solver with defect correction order = 8
MG DL_MG: Solver finished
MG Hartree energy from (\int phi*rho dr):              1438.316082
MG Hartree energy from (\int eps (grad phi)^2 dr):     1437.665902
MG Discrepancy due to finite box and discretization:     -0.650180 (  -0.04520%)
MG Correction to account for finite box:                  0.470098
MG Remaining discrepancy, due to discretization:         -0.180082 (  -0.01252%)
      ideal mu1:      -0.804794078853
             Q0:  -11548.304955918109
             G0:      -0.005751368167
   RMS gradient:       0.000011607656
MG BCs: +ve charge blocks (gridpoints):     31021 (   17288267).
MG BCs: -ve charge blocks (gridpoints):      8359 (    1099746).
MG BCs:     Elided blocks (gridpoints):    162885 (  172582612).
MG BCs: Computational effort saved:  99.9794%.
MG BCs: Charge after coarse-graining:           -9.0009800.
MG DL_MG: Calling solver with defect correction order = 8
MG DL_MG: Solver finished
MG Hartree energy from (\int phi*rho dr):              1438.054633
MG Hartree energy from (\int eps (grad phi)^2 dr):     1437.404472
MG Discrepancy due to finite box and discretization:     -0.650161 (  -0.04521%)
MG Correction to account for finite box:                  0.470091
MG Remaining discrepancy, due to discretization:         -0.180069 (  -0.01252%)
     Trial step:       0.695476007390
             Q1:  -11548.307338834042
 Quadratic coef:       0.001617022637
 Linear coef   :      -0.003999938570
           Qmin:  -11548.307429524259
Quadratic minimum step length (  0.860180074905) accepted
    Initial Ne1:    7228.00007383
      Final Ne1:    7228.00000000

=================== Penalty functional idempotency correction ==================
 RMS occupancy error at iteration   1:  0.000037 (step -0.4991 Ne1=   7228.0000)
            Final RMS occupancy error   :  0.000000 (Ne1=   7228.0000)
               Final occupancy bounds   : [ -0.0000,  1.0000]
================================================================================

    9        -1.154830495592E+04     1.1608E-05     1.0501E-05    -2.2234E-03
MG BCs: +ve charge blocks (gridpoints):     31021 (   17288228).
MG BCs: -ve charge blocks (gridpoints):      8359 (    1099777).
MG BCs:     Elided blocks (gridpoints):    162885 (  172582620).
MG BCs: Computational effort saved:  99.9794%.
MG BCs: Charge after coarse-graining:           -9.0009799.
MG DL_MG: Calling solver with defect correction order = 8
MG DL_MG: Solver finished
MG Hartree energy from (\int phi*rho dr):              1437.992057
MG Hartree energy from (\int eps (grad phi)^2 dr):     1437.341902
MG Discrepancy due to finite box and discretization:     -0.650156 (  -0.04521%)
MG Correction to account for finite box:                  0.470090
MG Remaining discrepancy, due to discretization:         -0.180066 (  -0.01252%)
      ideal mu1:      -0.804580882760
   10        -1.154830742682E+04     1.1425E-05     1.0336E-05    -2.4709E-03
Finished density kernel iterations (  10)

Writing density kernel to file "complex_17961.vacuum_dkn" ... done


>>> Density kernel optimised for the current NGWF basis:
     ~~~~~~~~~~~~~~~~~~~~~~~~~~~~~~~~~~~~~~~~~~~~~~~~~~~~~~~~~~~
     Total energy                =  -1.15483074268211E+04  Eh
     Estimated bandgap           =  -2.1374E-01  Eh
     RMS occupancy error         =   2.7628E-08
     [H,K] commutator            =   1.0336E-05
     Occupancy bounds            = [ -0.000:  1.000]
     ~~~~~~~~~~~~~~~~~~~~~~~~~~~~~~~~~~~~~~~~~~~~~~~~~~~~~~~~~~~




################################################################################
########################### NGWF CG iteration  001 #############################
################################################################################
****** Reciprocal space K.E. preconditioning with k_zero =  3.5000 a0^-1 *******

>>> Checking for convergence of NGWFs:   NOT CONVERGED
  ========================================================================
         NGWF RMS gradient =  1.6452E-03 >  2.0000E-06  | above tolerance
  ========================================================================

>>> Improving NGWFs using line search:
============ Calculation of NGWF S^-1 using Hotelling algorithm ================ 
         Iteration  |  Frobenius norm and Maximum abs value    (of I-S*S_n^-1)   
               1       0.23940215E+00     0.65419340E-02
               2       0.13356084E-02     0.57266383E-04
               3       0.70741106E-07     0.62789304E-08
               4       0.12957912E-12     0.75495166E-14
================================================================================
MG BCs: +ve charge blocks (gridpoints):     30612 (   17238335).
MG BCs: -ve charge blocks (gridpoints):      8364 (    1096606).
MG BCs:     Elided blocks (gridpoints):    163296 (  172635684).
MG BCs: Computational effort saved:  99.9796%.
MG BCs: Charge after coarse-graining:           -9.0009836.
MG DL_MG: Calling solver with defect correction order = 8
MG DL_MG: Solver finished
MG Hartree energy from (\int phi*rho dr):              1409.711872
MG Hartree energy from (\int eps (grad phi)^2 dr):     1409.063112
MG Discrepancy due to finite box and discretization:     -0.648760 (  -0.04602%)
MG Correction to account for finite box:                  0.470052
MG Remaining discrepancy, due to discretization:         -0.178707 (  -0.01268%)
============ Calculation of NGWF S^-1 using Hotelling algorithm ================ 
         Iteration  |  Frobenius norm and Maximum abs value    (of I-S*S_n^-1)   
               1       0.21740095E+01     0.49559286E-01
               2       0.97623626E-01     0.36279088E-02
               3       0.27907025E-03     0.25141179E-04
               4       0.47416480E-08     0.11817806E-08
               5       0.11463917E-12     0.59952043E-14
================================================================================
------------------------------- NGWF line search -------------------------------
RMS gradient                =       0.00164516619718
Trial step length           =               0.122474
Gradient along search dir.  =       -297.12807650893
Functional at step 0        =  -11548.30742682109121
Functional at step 1        =  -11581.84990882023703
Functional predicted        =  -11664.54842549172281
Selected quadratic step     =               0.782430
--------------------------- NGWF line search finished --------------------------
                                               
Writing NGWFs to file "complex_17961.vacuum_tightbox_ngwfs"....  done

>>> Optimising kernel for current NGWFs:
   Initial electron number for spin 1:    7274.05520748
     Final electron number for spin 1:    7228.00000000

=================== Penalty functional idempotency correction ==================
 RMS occupancy error at iteration   1:  0.005242 (step -0.4826 Ne1=   7228.0000)
 RMS occupancy error at iteration   2:  0.000097 (step -0.5003 Ne1=   7228.0000)
            Final RMS occupancy error   :  0.000000 (Ne1=   7228.0000)
               Final occupancy bounds   : [  0.0000,  1.0000]
================================================================================

................................................................................
<<<<<<<<<<<<<< LNV (Original version) density kernel optimisation >>>>>>>>>>>>>>
~~~~~~~~~~~~~~~~~~~~~~~~~~~~~~~~~~~~~~~~~~~~~~~~~~~~~~~~~~~~~~~~~~~~~~~~~~~~~~~~
   iter  |      energy (Eh)       | rms gradient |  commutator  |   dE (Eh)
MG BCs: +ve charge blocks (gridpoints):     25110 (   17000217).
MG BCs: -ve charge blocks (gridpoints):      8469 (    1067404).
MG BCs:     Elided blocks (gridpoints):    168804 (  172903004).
MG BCs: Computational effort saved:  99.9824%.
MG BCs: Charge after coarse-graining:           -9.0007326.
MG DL_MG: Calling solver with defect correction order = 8
MG DL_MG: Solver finished
MG Hartree energy from (\int phi*rho dr):              1279.395535
MG Hartree energy from (\int eps (grad phi)^2 dr):     1278.749500
MG Discrepancy due to finite box and discretization:     -0.646035 (  -0.05050%)
MG Correction to account for finite box:                  0.469892
MG Remaining discrepancy, due to discretization:         -0.176144 (  -0.01377%)
      ideal mu1:      -0.748419108326
             Q0:  -11663.909040327417
             G0:      -9.604144735069
   RMS gradient:       0.000473934158
MG BCs: +ve charge blocks (gridpoints):     25192 (   17013323).
MG BCs: -ve charge blocks (gridpoints):      8466 (    1063934).
MG BCs:     Elided blocks (gridpoints):    168722 (  172893368).
MG BCs: Computational effort saved:  99.9824%.
MG BCs: Charge after coarse-graining:           -9.0007286.
MG DL_MG: Calling solver with defect correction order = 8
MG DL_MG: Solver finished
MG Hartree energy from (\int phi*rho dr):              1293.718700
MG Hartree energy from (\int eps (grad phi)^2 dr):     1293.067577
MG Discrepancy due to finite box and discretization:     -0.651123 (  -0.05033%)
MG Correction to account for finite box:                  0.469541
MG Remaining discrepancy, due to discretization:         -0.181582 (  -0.01404%)
     Trial step:       0.773456271635
             Q1:  -11662.694483159576
 Quadratic coef:       8.642943146870
 Linear coef   :      -7.428385979029
           Qmin:  -11665.505166708088
Quadratic minimum step length (  0.332382825270) accepted
    Initial Ne1:    7227.99898712
      Final Ne1:    7228.00000000

=================== Penalty functional idempotency correction ==================
 RMS occupancy error at iteration   1:  0.000354 (step -0.4985 Ne1=   7228.0000)
 RMS occupancy error at iteration   2:  0.000000 (step -0.5000 Ne1=   7228.0000)
            Final RMS occupancy error   :  0.000000 (Ne1=   7228.0000)
               Final occupancy bounds   : [  0.0000,  1.0000]
================================================================================

    1        -1.166390904033E+04     4.7393E-04     4.2876E-04
MG BCs: +ve charge blocks (gridpoints):     25140 (   17006174).
MG BCs: -ve charge blocks (gridpoints):      8467 (    1065769).
MG BCs:     Elided blocks (gridpoints):    168774 (  172898682).
MG BCs: Computational effort saved:  99.9824%.
MG BCs: Charge after coarse-graining:           -9.0007307.
MG DL_MG: Calling solver with defect correction order = 8
MG DL_MG: Solver finished
MG Hartree energy from (\int phi*rho dr):              1284.458864
MG Hartree energy from (\int eps (grad phi)^2 dr):     1283.810747
MG Discrepancy due to finite box and discretization:     -0.648117 (  -0.05046%)
MG Correction to account for finite box:                  0.469721
MG Remaining discrepancy, due to discretization:         -0.178396 (  -0.01389%)
      ideal mu1:      -0.753207179181
             Q0:  -11665.483497909503
             G0:      -0.870022264608
   RMS gradient:       0.000143210390
MG BCs: +ve charge blocks (gridpoints):     25151 (   17005800).
MG BCs: -ve charge blocks (gridpoints):      8469 (    1066546).
MG BCs:     Elided blocks (gridpoints):    168763 (  172898279).
MG BCs: Computational effort saved:  99.9824%.
MG BCs: Charge after coarse-graining:           -9.0007306.
MG DL_MG: Calling solver with defect correction order = 8
MG DL_MG: Solver finished
MG Hartree energy from (\int phi*rho dr):              1285.040553
MG Hartree energy from (\int eps (grad phi)^2 dr):     1284.392171
MG Discrepancy due to finite box and discretization:     -0.648382 (  -0.05046%)
MG Correction to account for finite box:                  0.469718
MG Remaining discrepancy, due to discretization:         -0.178664 (  -0.01390%)
     Trial step:       0.507034102195
             Q1:  -11665.679857981042
 Quadratic coef:       0.244770886286
 Linear coef   :      -0.441130957825
           Qmin:  -11665.682251655204
Quadratic minimum step length (  0.456893469941) accepted
    Initial Ne1:    7227.99987286
      Final Ne1:    7228.00000000

=================== Penalty functional idempotency correction ==================
 RMS occupancy error at iteration   1:  0.000135 (step -0.4995 Ne1=   7228.0000)
            Final RMS occupancy error   :  0.000000 (Ne1=   7228.0000)
               Final occupancy bounds   : [ -0.0000,  1.0000]
================================================================================

    2        -1.166548349791E+04     1.4321E-04     1.2956E-04    -1.5745E+00
MG BCs: +ve charge blocks (gridpoints):     25149 (   17005804).
MG BCs: -ve charge blocks (gridpoints):      8468 (    1066469).
MG BCs:     Elided blocks (gridpoints):    168765 (  172898352).
MG BCs: Computational effort saved:  99.9824%.
MG BCs: Charge after coarse-graining:           -9.0007306.
MG DL_MG: Calling solver with defect correction order = 8
MG DL_MG: Solver finished
MG Hartree energy from (\int phi*rho dr):              1284.983581
MG Hartree energy from (\int eps (grad phi)^2 dr):     1284.335226
MG Discrepancy due to finite box and discretization:     -0.648355 (  -0.05046%)
MG Correction to account for finite box:                  0.469718
MG Remaining discrepancy, due to discretization:         -0.178636 (  -0.01390%)
      ideal mu1:      -0.753741430864
             Q0:  -11665.682636400103
             G0:      -0.171349718332
   RMS gradient:       0.000063240180
MG BCs: +ve charge blocks (gridpoints):     25150 (   17005291).
MG BCs: -ve charge blocks (gridpoints):      8470 (    1066798).
MG BCs:     Elided blocks (gridpoints):    168764 (  172898536).
MG BCs: Computational effort saved:  99.9824%.
MG BCs: Charge after coarse-graining:           -9.0007305.
MG DL_MG: Calling solver with defect correction order = 8
MG DL_MG: Solver finished
MG Hartree energy from (\int phi*rho dr):              1284.404061
MG Hartree energy from (\int eps (grad phi)^2 dr):     1283.755793
MG Discrepancy due to finite box and discretization:     -0.648268 (  -0.05047%)
MG Correction to account for finite box:                  0.469721
MG Remaining discrepancy, due to discretization:         -0.178547 (  -0.01390%)
     Trial step:       0.481311302932
             Q1:  -11665.732673921622
 Quadratic coef:       0.032435034667
 Linear coef   :      -0.082472556187
           Qmin:  -11665.735062138150
Quadratic minimum step length (  0.611915077044) accepted
    Initial Ne1:    7228.00052197
      Final Ne1:    7228.00000000

=================== Penalty functional idempotency correction ==================
 RMS occupancy error at iteration   1:  0.000068 (step -0.4998 Ne1=   7228.0000)
            Final RMS occupancy error   :  0.000000 (Ne1=   7228.0000)
               Final occupancy bounds   : [ -0.0000,  1.0000]
================================================================================

    3        -1.166568263640E+04     6.3240E-05     5.7212E-05    -1.9914E-01
MG BCs: +ve charge blocks (gridpoints):     25149 (   17005115).
MG BCs: -ve charge blocks (gridpoints):      8470 (    1066898).
MG BCs:     Elided blocks (gridpoints):    168765 (  172898612).
MG BCs: Computational effort saved:  99.9824%.
MG BCs: Charge after coarse-graining:           -9.0007305.
MG DL_MG: Calling solver with defect correction order = 8
MG DL_MG: Solver finished
MG Hartree energy from (\int phi*rho dr):              1284.246480
MG Hartree energy from (\int eps (grad phi)^2 dr):     1283.598235
MG Discrepancy due to finite box and discretization:     -0.648245 (  -0.05048%)
MG Correction to account for finite box:                  0.469722
MG Remaining discrepancy, due to discretization:         -0.178523 (  -0.01390%)
      ideal mu1:      -0.752791739981
             Q0:  -11665.735161730670
             G0:      -0.033264361856
   RMS gradient:       0.000027849136
MG BCs: +ve charge blocks (gridpoints):     25151 (   17004870).
MG BCs: -ve charge blocks (gridpoints):      8471 (    1066987).
MG BCs:     Elided blocks (gridpoints):    168763 (  172898768).
MG BCs: Computational effort saved:  99.9824%.
MG BCs: Charge after coarse-graining:           -9.0007306.
MG DL_MG: Calling solver with defect correction order = 8
MG DL_MG: Solver finished
MG Hartree energy from (\int phi*rho dr):              1284.264876
MG Hartree energy from (\int eps (grad phi)^2 dr):     1283.616716
MG Discrepancy due to finite box and discretization:     -0.648160 (  -0.05047%)
MG Correction to account for finite box:                  0.469725
MG Remaining discrepancy, due to discretization:         -0.178435 (  -0.01389%)
     Trial step:       0.542698482600
             Q1:  -11665.743969984702
 Quadratic coef:       0.009244264673
 Linear coef   :      -0.018052518704
           Qmin:  -11665.743975125870
Quadratic minimum step length (  0.529900151851) accepted
    Initial Ne1:    7228.00023355
      Final Ne1:    7228.00000000

=================== Penalty functional idempotency correction ==================
 RMS occupancy error at iteration   1:  0.000018 (step -0.4999 Ne1=   7228.0000)
            Final RMS occupancy error   :  0.000000 (Ne1=   7228.0000)
               Final occupancy bounds   : [ -0.0000,  1.0000]
================================================================================

    4        -1.166573516173E+04     2.7849E-05     2.5194E-05    -5.2525E-02
MG BCs: +ve charge blocks (gridpoints):     25151 (   17004866).
MG BCs: -ve charge blocks (gridpoints):      8471 (    1066994).
MG BCs:     Elided blocks (gridpoints):    168763 (  172898765).
MG BCs: Computational effort saved:  99.9824%.
MG BCs: Charge after coarse-graining:           -9.0007306.
MG DL_MG: Calling solver with defect correction order = 8
MG DL_MG: Solver finished
MG Hartree energy from (\int phi*rho dr):              1284.264425
MG Hartree energy from (\int eps (grad phi)^2 dr):     1283.616263
MG Discrepancy due to finite box and discretization:     -0.648162 (  -0.05047%)
MG Correction to account for finite box:                  0.469725
MG Remaining discrepancy, due to discretization:         -0.178437 (  -0.01389%)
      ideal mu1:      -0.752834148670
             Q0:  -11665.743979924941
             G0:      -0.009862378681
   RMS gradient:       0.000015184226
MG BCs: +ve charge blocks (gridpoints):     25151 (   17005264).
MG BCs: -ve charge blocks (gridpoints):      8470 (    1066839).
MG BCs:     Elided blocks (gridpoints):    168763 (  172898522).
MG BCs: Computational effort saved:  99.9824%.
MG BCs: Charge after coarse-graining:           -9.0007305.
MG DL_MG: Calling solver with defect correction order = 8
MG DL_MG: Solver finished
MG Hartree energy from (\int phi*rho dr):              1284.597270
MG Hartree energy from (\int eps (grad phi)^2 dr):     1283.949133
MG Discrepancy due to finite box and discretization:     -0.648137 (  -0.05045%)
MG Correction to account for finite box:                  0.469717
MG Remaining discrepancy, due to discretization:         -0.178420 (  -0.01389%)
     Trial step:       0.536261138196
             Q1:  -11665.746495259344
 Quadratic coef:       0.002773476013
 Linear coef   :      -0.005288810417
           Qmin:  -11665.746501265985
Quadratic minimum step length (  0.511304853603) accepted
    Initial Ne1:    7228.00007869
      Final Ne1:    7228.00000000

=================== Penalty functional idempotency correction ==================
 RMS occupancy error at iteration   1:  0.000007 (step -0.5000 Ne1=   7228.0000)
            Final RMS occupancy error   :  0.000000 (Ne1=   7228.0000)
               Final occupancy bounds   : [ -0.0000,  1.0000]
================================================================================

    5        -1.166574397992E+04     1.5184E-05     1.3737E-05    -8.8182E-03
MG BCs: +ve charge blocks (gridpoints):     25151 (   17005248).
MG BCs: -ve charge blocks (gridpoints):      8470 (    1066845).
MG BCs:     Elided blocks (gridpoints):    168763 (  172898532).
MG BCs: Computational effort saved:  99.9824%.
MG BCs: Charge after coarse-graining:           -9.0007305.
MG DL_MG: Calling solver with defect correction order = 8
MG DL_MG: Solver finished
MG Hartree energy from (\int phi*rho dr):              1284.581759
MG Hartree energy from (\int eps (grad phi)^2 dr):     1283.933621
MG Discrepancy due to finite box and discretization:     -0.648138 (  -0.05046%)
MG Correction to account for finite box:                  0.469717
MG Remaining discrepancy, due to discretization:         -0.178421 (  -0.01389%)
      ideal mu1:      -0.753097523341
             Q0:  -11665.746501879068
             G0:      -0.002277238065
   RMS gradient:       0.000007296447
MG BCs: +ve charge blocks (gridpoints):     25151 (   17005213).
MG BCs: -ve charge blocks (gridpoints):      8470 (    1066875).
MG BCs:     Elided blocks (gridpoints):    168763 (  172898537).
MG BCs: Computational effort saved:  99.9824%.
MG BCs: Charge after coarse-graining:           -9.0007305.
MG DL_MG: Calling solver with defect correction order = 8
MG DL_MG: Solver finished
MG Hartree energy from (\int phi*rho dr):              1284.539728
MG Hartree energy from (\int eps (grad phi)^2 dr):     1283.891596
MG Discrepancy due to finite box and discretization:     -0.648132 (  -0.05046%)
MG Correction to account for finite box:                  0.469715
MG Remaining discrepancy, due to discretization:         -0.178417 (  -0.01389%)
     Trial step:       0.523634340698
             Q1:  -11665.747181887506
 Quadratic coef:       0.000512431616
 Linear coef   :      -0.001192440053
           Qmin:  -11665.747195587866
Quadratic minimum step length (  0.609254524635) accepted
    Initial Ne1:    7228.00002426
      Final Ne1:    7228.00000000

=================== Penalty functional idempotency correction ==================
 RMS occupancy error at iteration   1:  0.000003 (step -0.5000 Ne1=   7228.0000)
            Final RMS occupancy error   :  0.000000 (Ne1=   7228.0000)
               Final occupancy bounds   : [  0.0000,  1.0000]
================================================================================

    6        -1.166574650188E+04     7.2964E-06     6.6009E-06    -2.5220E-03
MG BCs: +ve charge blocks (gridpoints):     25151 (   17005207).
MG BCs: -ve charge blocks (gridpoints):      8470 (    1066884).
MG BCs:     Elided blocks (gridpoints):    168763 (  172898534).
MG BCs: Computational effort saved:  99.9824%.
MG BCs: Charge after coarse-graining:           -9.0007305.
MG DL_MG: Calling solver with defect correction order = 8
MG DL_MG: Solver finished
MG Hartree energy from (\int phi*rho dr):              1284.532859
MG Hartree energy from (\int eps (grad phi)^2 dr):     1283.884728
MG Discrepancy due to finite box and discretization:     -0.648131 (  -0.05046%)
MG Correction to account for finite box:                  0.469714
MG Remaining discrepancy, due to discretization:         -0.178416 (  -0.01389%)
      ideal mu1:      -0.753030129695
             Q0:  -11665.747195654316
             G0:      -0.000784352045
   RMS gradient:       0.000004282962
MG BCs: +ve charge blocks (gridpoints):     25151 (   17005094).
MG BCs: -ve charge blocks (gridpoints):      8470 (    1066921).
MG BCs:     Elided blocks (gridpoints):    168763 (  172898610).
MG BCs: Computational effort saved:  99.9824%.
MG BCs: Charge after coarse-graining:           -9.0007305.
MG DL_MG: Calling solver with defect correction order = 8
MG DL_MG: Solver finished
MG Hartree energy from (\int phi*rho dr):              1284.478781
MG Hartree energy from (\int eps (grad phi)^2 dr):     1283.830649
MG Discrepancy due to finite box and discretization:     -0.648133 (  -0.05046%)
MG Correction to account for finite box:                  0.469715
MG Remaining discrepancy, due to discretization:         -0.178418 (  -0.01389%)
     Trial step:       0.564824389810
             Q1:  -11665.747381853405
 Quadratic coef:       0.000256822075
 Linear coef   :      -0.000443021165
           Qmin:  -11665.747386708525
Quadratic minimum step length (  0.487164429201) accepted
    Initial Ne1:    7227.99999935
      Final Ne1:    7228.00000000

=================== Penalty functional idempotency correction ==================
 RMS occupancy error at iteration   1:  0.000000 (step -0.5000 Ne1=   7228.0000)
            Final RMS occupancy error   :  0.000000 (Ne1=   7228.0000)
               Final occupancy bounds   : [  0.0000,  1.0000]
================================================================================

    7        -1.166574719565E+04     4.2830E-06     3.8747E-06    -6.9378E-04
MG BCs: +ve charge blocks (gridpoints):     25151 (   17005111).
MG BCs: -ve charge blocks (gridpoints):      8470 (    1066911).
MG BCs:     Elided blocks (gridpoints):    168763 (  172898603).
MG BCs: Computational effort saved:  99.9824%.
MG BCs: Charge after coarse-graining:           -9.0007305.
MG DL_MG: Calling solver with defect correction order = 8
MG DL_MG: Solver finished
MG Hartree energy from (\int phi*rho dr):              1284.486210
MG Hartree energy from (\int eps (grad phi)^2 dr):     1283.838078
MG Discrepancy due to finite box and discretization:     -0.648132 (  -0.05046%)
MG Correction to account for finite box:                  0.469715
MG Remaining discrepancy, due to discretization:         -0.178418 (  -0.01389%)
      ideal mu1:      -0.752989363605
             Q0:  -11665.747386708274
             G0:      -0.000419087822
   RMS gradient:       0.000003130713
MG BCs: +ve charge blocks (gridpoints):     25151 (   17005105).
MG BCs: -ve charge blocks (gridpoints):      8470 (    1066910).
MG BCs:     Elided blocks (gridpoints):    168763 (  172898610).
MG BCs: Computational effort saved:  99.9824%.
MG BCs: Charge after coarse-graining:           -9.0007305.
MG DL_MG: Calling solver with defect correction order = 8
MG DL_MG: Solver finished
MG Hartree energy from (\int phi*rho dr):              1284.467566
MG Hartree energy from (\int eps (grad phi)^2 dr):     1283.819433
MG Discrepancy due to finite box and discretization:     -0.648133 (  -0.05046%)
MG Correction to account for finite box:                  0.469715
MG Remaining discrepancy, due to discretization:         -0.178417 (  -0.01389%)
     Trial step:       0.524559197289
             Q1:  -11665.747549537453
 Quadratic coef:       0.000057007192
 Linear coef   :      -0.000219836372
           Qmin:  -11665.747598646580
Quadratic minimum step length (  1.011426694381) accepted
    Initial Ne1:    7227.99999928
      Final Ne1:    7228.00000000

=================== Penalty functional idempotency correction ==================
 RMS occupancy error at iteration   1:  0.000001 (step -0.5000 Ne1=   7228.0000)
            Final RMS occupancy error   :  0.000000 (Ne1=   7228.0000)
               Final occupancy bounds   : [  0.0000,  1.0000]
================================================================================

    8        -1.166574738671E+04     3.1307E-06     2.8323E-06    -1.9105E-04
MG BCs: +ve charge blocks (gridpoints):     25150 (   17005079).
MG BCs: -ve charge blocks (gridpoints):      8470 (    1066929).
MG BCs:     Elided blocks (gridpoints):    168764 (  172898617).
MG BCs: Computational effort saved:  99.9824%.
MG BCs: Charge after coarse-graining:           -9.0007305.
MG DL_MG: Calling solver with defect correction order = 8
MG DL_MG: Solver finished
[...]
 RMS occupancy error at iteration   1:  0.000000 (step -0.5000 Ne1=   7228.0000)
            Final RMS occupancy error   :  0.000000 (Ne1=   7228.0000)
               Final occupancy bounds   : [  0.0000,  1.0000]
================================================================================

    7        -1.170156316041E+04     6.2177E-09     5.6250E-09     1.1642E-10

Reusing previously generated solute cavity.
MG BCs: +ve charge blocks (gridpoints):     29383 (   19125759).
MG BCs: -ve charge blocks (gridpoints):      8473 (    1044376).
MG BCs:     Elided blocks (gridpoints):    164531 (  170800490).
MG BCs: Computational effort saved:  99.9802%.
MG BCs: Charge after coarse-graining:           -9.0009773.
MG DL_MG: Calling solver with defect correction order = 8
MG DL_MG: Solver finished
MG Hartree energy from (\int phi*rho dr):              1235.706071
MG Hartree energy from (\int eps (grad phi)^2 dr):     1235.522075
MG Discrepancy due to finite box and discretization:     -0.183997 (  -0.01489%)
MG Correction to account for finite box:                  0.006408
MG Remaining discrepancy, due to discretization:         -0.177588 (  -0.01437%)
      ideal mu1:      -0.512808159946
             Q0:  -11701.563160407008
             G0:      -0.000000002525
   RMS gradient:       0.000000005581

Reusing previously generated solute cavity.
MG BCs: +ve charge blocks (gridpoints):     29383 (   19125758).
MG BCs: -ve charge blocks (gridpoints):      8473 (    1044376).
MG BCs:     Elided blocks (gridpoints):    164531 (  170800491).
MG BCs: Computational effort saved:  99.9802%.
MG BCs: Charge after coarse-graining:           -9.0009773.
MG DL_MG: Calling solver with defect correction order = 8
MG DL_MG: Solver finished
MG Hartree energy from (\int phi*rho dr):              1235.706099
MG Hartree energy from (\int eps (grad phi)^2 dr):     1235.522102
MG Discrepancy due to finite box and discretization:     -0.183997 (  -0.01489%)
MG Correction to account for finite box:                  0.006408
MG Remaining discrepancy, due to discretization:         -0.177588 (  -0.01437%)
     Trial step:       0.148570101102
             Q1:  -11701.563160406542
 Quadratic coef:       0.000000000840
 Linear coef   :      -0.000000000375
           Qmin:  -11701.563160407050
Quadratic minimum step length (  0.033161365959) accepted
    Initial Ne1:    7228.00000000
      Final Ne1:    7228.00000000

=================== Penalty functional idempotency correction ==================
 RMS occupancy error at iteration   1:  0.000000 (step -0.5000 Ne1=   7228.0000)
            Final RMS occupancy error   :  0.000000 (Ne1=   7228.0000)
               Final occupancy bounds   : [  0.0000,  1.0000]
================================================================================

    8        -1.170156316041E+04     5.5809E-09     5.0489E-09     1.1642E-10

Reusing previously generated solute cavity.
MG BCs: +ve charge blocks (gridpoints):     29383 (   19125759).
MG BCs: -ve charge blocks (gridpoints):      8473 (    1044376).
MG BCs:     Elided blocks (gridpoints):    164531 (  170800490).
MG BCs: Computational effort saved:  99.9802%.
MG BCs: Charge after coarse-graining:           -9.0009773.
MG DL_MG: Calling solver with defect correction order = 8
MG DL_MG: Solver finished
MG Hartree energy from (\int phi*rho dr):              1235.706078
MG Hartree energy from (\int eps (grad phi)^2 dr):     1235.522081
MG Discrepancy due to finite box and discretization:     -0.183997 (  -0.01489%)
MG Correction to account for finite box:                  0.006408
MG Remaining discrepancy, due to discretization:         -0.177588 (  -0.01437%)
      ideal mu1:      -0.512808162585
             Q0:  -11701.563160406891
             G0:      -0.000000003036
   RMS gradient:       0.000000005102

Reusing previously generated solute cavity.
MG BCs: +ve charge blocks (gridpoints):     29383 (   19125758).
MG BCs: -ve charge blocks (gridpoints):      8473 (    1044376).
MG BCs:     Elided blocks (gridpoints):    164531 (  170800491).
MG BCs: Computational effort saved:  99.9802%.
MG BCs: Charge after coarse-graining:           -9.0009773.
MG DL_MG: Calling solver with defect correction order = 8
MG DL_MG: Solver finished
MG Hartree energy from (\int phi*rho dr):              1235.706095
MG Hartree energy from (\int eps (grad phi)^2 dr):     1235.522098
MG Discrepancy due to finite box and discretization:     -0.183997 (  -0.01489%)
MG Correction to account for finite box:                  0.006408
MG Remaining discrepancy, due to discretization:         -0.177588 (  -0.01437%)
     Trial step:       0.070191078445
             Q1:  -11701.563160406658
 Quadratic coef:       0.000000000446
 Linear coef   :      -0.000000000213
           Qmin:  -11701.563160406917
Quadratic minimum step length (  0.016783143981) accepted
    Initial Ne1:    7228.00000000
      Final Ne1:    7228.00000000

=================== Penalty functional idempotency correction ==================
 RMS occupancy error at iteration   1:  0.000000 (step -0.5000 Ne1=   7228.0000)
            Final RMS occupancy error   :  0.000000 (Ne1=   7228.0000)
               Final occupancy bounds   : [  0.0000,  1.0000]
================================================================================

    9        -1.170156316041E+04     5.1015E-09     4.6152E-09     1.1642E-10

Reusing previously generated solute cavity.
MG BCs: +ve charge blocks (gridpoints):     29383 (   19125758).
MG BCs: -ve charge blocks (gridpoints):      8473 (    1044376).
MG BCs:     Elided blocks (gridpoints):    164531 (  170800491).
MG BCs: Computational effort saved:  99.9802%.
MG BCs: Charge after coarse-graining:           -9.0009773.
MG DL_MG: Calling solver with defect correction order = 8
MG DL_MG: Solver finished
MG Hartree energy from (\int phi*rho dr):              1235.706082
MG Hartree energy from (\int eps (grad phi)^2 dr):     1235.522085
MG Discrepancy due to finite box and discretization:     -0.183997 (  -0.01489%)
MG Correction to account for finite box:                  0.006408
MG Remaining discrepancy, due to discretization:         -0.177588 (  -0.01437%)
      ideal mu1:      -0.512808164345
   10        -1.170156316041E+04     4.7938E-09     4.3368E-09     0.0000E+00
Finished density kernel iterations (  10)

Writing density kernel to file "complex_17961.dkn" ... done


>>> Density kernel optimised for the current NGWF basis:
     ~~~~~~~~~~~~~~~~~~~~~~~~~~~~~~~~~~~~~~~~~~~~~~~~~~~~~~~~~~~
     Total energy                =  -1.17015631604069E+04  Eh
     Estimated bandgap           =   1.1087E-01  Eh
     RMS occupancy error         =   5.1832E-16
     [H,K] commutator            =   4.3368E-09
     Occupancy bounds            = [  0.000:  1.000]
     ~~~~~~~~~~~~~~~~~~~~~~~~~~~~~~~~~~~~~~~~~~~~~~~~~~~~~~~~~~~




################################################################################
########################### NGWF CG iteration  005 #############################
################################################################################
****** Reciprocal space K.E. preconditioning with k_zero =  3.5000 a0^-1 *******

>>> Checking for convergence of NGWFs: 
           ........................................................
           |         *** NGWF optimisation converged ***          |
           | RMS NGWF gradient =    0.00000104517534              |
           | Criteria satisfied:                                  |
           | -> RMS NGWF gradient lower than set threshold.       |
           ========================================================

Reusing previously generated solute cavity.
MG BCs: +ve charge blocks (gridpoints):     29383 (   19125758).
MG BCs: -ve charge blocks (gridpoints):      8473 (    1044376).
MG BCs:     Elided blocks (gridpoints):    164531 (  170800491).
MG BCs: Computational effort saved:  99.9802%.
MG BCs: Charge after coarse-graining:           -9.0009773.
MG DL_MG: Calling solver with defect correction order = 8
MG DL_MG: Solver finished
MG Hartree energy from (\int phi*rho dr):              1235.706082
MG Hartree energy from (\int eps (grad phi)^2 dr):     1235.522085
MG Discrepancy due to finite box and discretization:     -0.183997 (  -0.01489%)
MG Correction to account for finite box:                  0.006408
MG Remaining discrepancy, due to discretization:         -0.177588 (  -0.01437%)

================================================================================
           ---------------- ENERGY COMPONENTS (Eh) ----------------
           | Kinetic                    :     8449.05022089080012 |
           | Pseudo. (local,OBC,corr'd) :    -5012.33087534205151 |
           | Pseudopotential (non-local):     1453.54748123941090 |
           | Hartree (molecular)        :     1235.70608160446318 |
           | Exchange-correlation       :    -3350.62397074923820 |
           | Ion-ion (open BC)          :   841706.64977713197004 |
           | Smeared ion non-self corr. :  -841658.20774134201929 |
           | Smeared ion self corr.     :   -14525.98710726666832 |
           | Solvent cavitation energy  :        2.25197341102597 |
           | Solute-solvent dis-rep en. :       -1.61899998452184 |
           | Total                      :   -11701.56316040675665 |
           --------------------------------------------------------
           ------ LOCAL ENERGY COMPONENTS FROM MATRIX TRACES ------
           | Pseudopotential (local)    :    -5012.33087534205788 |
           | Hartree                    :    -1990.87118442694782 |
           --------------------------------------------------------
           Integrated density           :     7227.99999999839019
           Integrated density tr(KS)    :     7228.00000000000000
================================================================================


                        <<<<< CALCULATION SUMMARY >>>>>                         
|ITER|    RMS GRADIENT   |     TOTAL ENERGY    |   step   |     Epredicted              
   0     0.00003617043593 -11701.52100216224790   0.504312 -11701.55721822802661        
   1     0.00001256901973 -11701.56197632453404   0.115069 -11701.56297414742403        
   2     0.00000543367059 -11701.56312223547138   0.019952 -11701.56315457062738        
   3     0.00000237396049 -11701.56315899861511   0.003871 -11701.56316019615042        
   4     0.00000104517534 -11701.56316040689126  <-- CG                                 

=================== Finished the calculation in solvent ========================
= Adjusting the following parameters: 
= read_denskern: F
= read_tightbox_ngwfs: F
= maxit_pen: 0 (restored to user-specified value)
= restart read filename prefix: ""
= restart write filename prefix: ""
================================================================================

================================================================================
IS: Calculation in solvent completed (NGWFs converged).      

Individual components of total energy in solvent:     hartree           kcal/mol
- Usual non-electrostatic DFT terms:    -12937.90221543785992    -8118656.038554
- Electrostatic fixed charge energy:      1235.70608160446318      775417.256541
- Apolar cavitation energy:                  2.25197341102597        1413.134620
- Apolar dispersion-repulsion energy:       -1.61899998452184       -1015.937807
 -------------------------------------------------------------------------------
- Total energy in solvent:              -11701.56316040689126    -7342841.585199

Components of total energy in solvent:                hartree           kcal/mol
- Usual non-electrostatic DFT terms:    -12937.90221543785992    -8118656.038554
- Electrostatic energy:                   1235.70608160446318      775417.256541
- Apolar energy terms:                       0.63297342650412         397.196813
 -------------------------------------------------------------------------------
- Total energy in solvent:              -11701.56316040689126    -7342841.585199

Calculation of free energy of solvation:              hartree           kcal/mol
- Total energy in solvent:         (+)  -11701.56316040689126    -7342841.585199
- Total energy in vacuum:          (-)  -11697.70023534225766    -7340417.563176
 -------------------------------------------------------------------------------
- Total free energy of solvation:           -3.86292506463360       -2424.022023

Components of polar term in f.e. of solvation:        hartree           kcal/mol
- Electrostatic:                            -4.87429155235805       -3058.664062
- Change in nonelectrostatic DFT terms:      0.37839306121896         237.445226
 -------------------------------------------------------------------------------
- Polar term in f.e. of solvation:          -4.49589849113909       -2821.218836

Components of free energy of solvation:               hartree           kcal/mol
- Polar term in f.e. of solvation: (+)      -4.49589849113909       -2821.218836
- Apolar (cavitation, dis., rep.): (+)       0.63297342650412         397.196813
 -------------------------------------------------------------------------------
- Total free energy of solvation:           -3.86292506463496       -2424.022023
================================================================================


------------------------------ TIMING INFORMATION ------------------------------
AVERAGE TIME:   84899.110s on     40 node(s)                                    
TOTAL TIME:     84899.111s on     40 node(s)                                    
================= AVERAGE TIMINGS FROM ALL NODES (CUMULATIVE) ==================
|| TAG                                    #calls    cpu time   %total  Gflops ||
|| work_imbalance                       :     1        0.00s   0.000%  ------ ||
|| parallel_prepare_fd_halos_request    :  2433        0.02s   0.000%  ------ ||
|| parallel_prepare_fd_halos_alloc      :  2433        0.05s   0.000%  ------ ||
|| sparse_set_to_garbage                :   267        0.06s   0.000%  ------ ||
|| parallel_prepare_fd_halos_satisfy    :  2433        0.07s   0.000%  ------ ||
|| ngwfs_initialise_from_radial         :     1        0.17s   0.000%  ------ ||
|| basis_extract_function_from_box      :  6702        0.26s   0.000%  ------ ||
|| restart_ngwfs_tightbox_input         :     1        1.05s   0.001%  ------ ||
|| pseudopotentials_nonlocal_mat        :    39        1.55s   0.002%  ------ ||
|| density_init_guess_real              :     1        3.12s   0.004%  ------ ||
|| parallel_prepare_fd_halos_comms_imbal:  2433        3.37s   0.004%  ------ ||
|| restart_kernel_read                  :     1        3.67s   0.004%  ------ ||
|| openbc_locps_radial                  :     1        4.46s   0.005%  ------ ||
|| restart_kernel_write                 :    21       14.09s   0.017%  ------ ||
|| parallel_prepare_fd_halos_clear      :  2433       17.17s   0.020%  ------ ||
|| sparse_init                          :     2       23.15s   0.027%  ------ ||
|| parallel_prepare_fd_halos_comms_wait :  2433       30.10s   0.035%  ------ ||
|| projectors_func_ovlp_box             :    39       31.26s   0.037%  ------ ||
|| projectors_init_fftbox_recip         :   259       35.11s   0.041%  ------ ||
|| function_ops_brappd_ketppd           :    39       36.21s   0.043%  ------ ||
|| palser_mano_kernel_optimise          :     1       42.21s   0.050%  ------ ||
|| parallel_prepare_fd_halos            :  2433       50.79s   0.060%  ------ ||
|| pseudo_make_structure_factor         :     2       52.85s   0.062%  ------ ||
|| ngwf_gradient_coeffs                 :    20       81.10s   0.096%  ------ ||
|| restart_ngwfs_tightbox_output        :    18       88.79s   0.105%  ------ ||
|| sparse_embed_hotelling_invert_embed  :    39      115.44s   0.136%  ------ ||
|| finite_difference_derivative         :  2433      130.74s   0.154%  ------ ||
|| basis_copy_function_to_box           : 208.3k     145.26s   0.171%  ------ ||
|| openbc_locps_on_grid                 :     2      178.70s   0.210%  ------ ||
|| integrals_kinetic                    :    39      237.51s   0.280%  ------ ||
|| projectors_gradient_batch            :   220      274.44s   0.323%  ------ ||
|| sparse_trace                         :  6097      319.59s   0.376%  ------ ||
|| fourier_apply_box_pair               : 58832      405.22s   0.477% 596.838 ||
|| kernel_purify                        :   620      441.11s   0.520%  ------ ||
|| basis_dot_function_with_box          : 24.14M     473.31s   0.558%  ------ ||
|| kernel_fix                           :   200      685.69s   0.808%  ------ ||
|| lnv_gradient_norm                    :   200      714.91s   0.842%  ------ ||
|| hamiltonian_energy_components        :     4      754.89s   0.889%  ------ ||
|| integrals_locpot_mat_els_batch       :  2299     1202.98s   1.417%  ------ ||
|| basis_add_function_to_box            : 64.80M    1212.62s   1.428%  ------ ||
|| ke_density_batch_grad_apply          :  4444     1345.05s   1.584%  ------ ||
|| ke_density_batch_row_sums            :  4444     1587.36s   1.870%  ------ ||
|| density_batch_row_sums               :  4444     1588.35s   1.871%  ------ ||
|| fourier_apply_cell_backward          : 10915     1808.88s   2.131%  81.033 ||
|| fourier_apply_cell_forward           : 10913     2081.65s   2.452%  70.402 ||
|| density_fftbox_deposit_to_cell       : 66256     2183.52s   2.572%  ------ ||
|| ke_density_fftbox_deposit_to_cell    : 66256     2311.95s   2.723%  ------ ||
|| cell_grid_deposit_box_real           : 135.0k    2577.23s   3.036%  ------ ||
|| sparse_product                       :  7977     2621.87s   3.088%  ------ ||
|| cell_grid_extract_box_real           : 164.8k    2808.35s   3.308%  ------ ||
|| multigrid_prepare_bound_cond         :   405     3011.44s   3.547%  ------ ||
|| ngwf_gradient_build_batch            :   220     3176.76s   3.742%  ------ ||
|| ngwf_gradient_batch                  :   220     3560.88s   4.194%  ------ ||
|| ngwf_gradient_lnv                    :    20     3788.78s   4.463%  ------ ||
|| potential_apply_to_ngwf_batch        :  2299     4319.64s   5.088%  ------ ||
|| density_fftbox_interpolate_multiply  : 66256     4799.33s   5.653%  ------ ||
|| xc_energy_potential                  :   405     5222.86s   6.152%  ------ ||
|| integrals_locpot_dbl_grid            :   209     5550.34s   6.538%  ------ ||
|| density_batch_interp_deposit         :  4444     7849.25s   9.245%  ------ ||
|| dl_mg_solver_calls                   :   405     8336.68s   9.820%  ------ ||
|| nlxc_vdw_energy                      :   808     8695.95s  10.243%  ------ ||
|| density_on_dbl_grid                  :   404    10063.27s  11.853%  ------ ||
|| multigrid_calculate_hartree          :   405    11542.53s  13.596%  ------ ||
|| potential_apply_to_fftbox_batch      :  6600    11709.76s  13.793%  ------ ||
|| integrals_div_locpot_grad_functions  :   200    17563.11s  20.687%  ------ ||
|| ke_density_fftbox_interpolate_multipl: 66256    19416.72s  22.870%  ------ ||
|| ke_density_batch_interp_deposit      :  4444    22630.18s  26.655%  ------ ||
|| fourier_apply_box                    : 1.502M   25216.08s  29.701% 810.517 ||
|| ke_density_on_dbl_grid               :   404    26236.99s  30.904%  ------ ||
|| hamiltonian_lhxc_calculate           :   400    53178.60s  62.637%  ------ ||
|| lnv_denskernel_optimise_cg           :    20    76356.24s  89.938%  ------ ||
|| ngwf_cg_optimise                     :     2    84130.49s  99.095%  ------ ||
|| total_time                           :     1    84899.11s 100.000%  ------ ||
================================================================================
Overhead of generating timer report: 
- 0 ms averaging over threads,
- 7 ms ensuring consistency across MPI ranks,
- 2 ms printing in order.

Job completed: 19-03-2020 09:42 (-0000)

