 +---------------------------------------------------------------+
 |                                                               |
 |        ####### #     # ####### ####### ####### ######         |
 |        #     # ##    # #          #    #       #     #        |
 |        #     # # #   # #          #    #       #     #        |
 |        #     # #  #  # #####      #    #####   ######         |
 |        #     # #   # # #          #    #       #              |
 |        #     # #    ## #          #    #       #              |
 |        ####### #     # #######    #    ####### #              |
 |                                                               |
 |        Linear-Scaling Ab Initio Total Energy Program          |
 |                                                               |
 |          Release for academic collaborators of ODG            |
 |                                             Version 5.3.2.6.  |
 |                                                               |
 +---------------------------------------------------------------+
 |                                                               |
 |  Authors:                                                     |
 |  Jacek Dziedzic, Peter D. Haynes, Nicholas D. M. Hine,        |
 |  Arash. A. Mostofi, Mike C. Payne and Chris-Kriton Skylaris   |
 |                                                               |
 |  Contributors:                                                |
 |  J. Aarons, L. Andrinopoulos, P. W. Avraam, R. A. Bell,       |
 |  A. Bhandari, G. A. Bramley, R. J. Charlton, S. J. Clark,     |
 |  R. J. Clements, G. C. Constantinescu, F. Corsetti,           |
 |  N. Corsini, O. Dieguez, S. M. M. Dubois, K. K. B. Duff,      |
 |  J. M. Escartin, A. Greco, H. Helal, Q. O. Hill, L. P. Lee,   |
 |  J.-H. Li, E. B. Linscott, G. Moynihan, D. D. O`Regan,        |
 |  O. K. Okan, M. J. S. Phipps, C. J. Pickard,                  |
 |  J. C. A. Prentice, M. I. J. Probert, L. E. Ratcliff,         |
 |  M. Robinson, A. Ruiz Serrano, J. S. Spencer, E. W. Tait,     |
 |  G. Teobaldi, D. Turban, V. Vitale, K. A. Wilkinson,          |
 |  C. Weber, J. C. Womack, N. Yeung and T. J. Zuehlsdorff       |
 |                                                               |
 |                                   Copyright (c) 2004-2019     |
 |                                                               |
 |  Please cite:                                                 |
 |  "Introducing ONETEP: Linear-scaling density functional       |
 |   simulations on parallel computers".                         |
 |   C.-K. Skylaris, P. D. Haynes, A. A. Mostofi, M. C. Payne.   |
 |   J. Chem. Phys. 122 084119 (2005).                           |
 |                                                               |
 |          in all publications arising from your use of ONETEP. |
 |                                                               |
 +---------------------------------------------------------------+
 |                                                               |
 |   ONETEP is based on developments described in the following  |
 |   publications:                                               |
 |                                                               |
 |  "Nonorthogonal generalized Wannier function pseudopotential  |
 |   plane-wave method".                                         |
 |   C.-K. Skylaris, A. A. Mostofi, P. D. Haynes, O. Dieguez,    |
 |   M. C. Payne.                                                |
 |   Phys. Rev. B 66 035119 (2002).                              |
 |                                                               |
 |  "Preconditioned iterative minimization for linear-scaling    |
 |   electronic structure calculations".                         |
 |   A. A. Mostofi, P. D. Haynes, C.-K. Skylaris, M. C. Payne.   |
 |   J. Chem. Phys. 119(17), pp.8842-8848 (2003).                |
 |                                                               |
 |  "Total-energy calculations on a real space grid with         |
 |   localized functions and a plane-wave basis".                |
 |   A. A. Mostofi, C.-K. Skylaris, P. D. Haynes, M. C. Payne.   |
 |   Comput. Phys. Commun. 147, pp.788-802 (2002).               |
 |                                                               |
 |  "Accurate kinetic energy evaluation in electronic structure  |
 |   calculations with localized functions on real space grids"  |
 |   C.-K. Skylaris, A. A. Mostofi, P. D. Haynes, C. J. Pickard, |
 |   M. C. Payne.                                                |
 |   Comput. Phys. Commun. 140, pp.315-322 (2001).               |
 |                                                               |
 |  "Accurate ionic forces and geometry optimization in linear-  |
 |   scaling density-functional theory with local orbitals"      |
 |   N. D. M. Hine, M. Robinson, P. D. Haynes, C.-K. Skylaris,   |
 |   M. C. Payne, and A. A. Mostofi.                             |
 |   Phys. Rev. B 83 195102 (2011).                              |
 |                                                               |
 +---------------------------------------------------------------+

Job started: 11-01-2020 13:55 (-0000)
 
Reading parameters from file "complex_24801.dat" ...... done

If your calculation crashes here, before "Checking processes and threads..."
is displayed, then your stack size is insufficient.
If so, use "ulimit -s unlimited" at runtime.
You can disable this check with "check_stack_size F".

Checking processes and threads...
   Determining the default number of threads...
      No default threads set at compilation time: defaulting to 1.
      OpenMP library call suggests 4 threads.
      Hybrid MPI-OpenMP compilation detected.
      Number of MPI processes > 1.
      OMP_NUM_THREADS environment variable present and
      its value matches the one obtained from the OpenMP library call.
      Using this value as default.
      Default threads: 4
      Default applies to threads_max and threads_num_fftboxes.
      Settings in the input file override this default.
   ... done

   Running with 40 MPI processes.
   There are 10 MPI processes running on the same node as the root process.
   Each MPI process is using: 
               1 threads for simulation cell FFTs.
               1 threads for parallel FFT box operations.
               4 threads for loops over batched FFT box operations.
               4 threads in other parallel regions.
... done

Basic input checks...... done

Reading geometry and species blocks from file "complex_24801.dat" ...
  <species_atomic_set> block not found: NGWF initialisation set to SOLVE
IS: Dielectric excluded regions:
    - NONE.
    
  Number of PPD points along a3 set to 1.  This is 
  the default value, it may have been provided also in the input file.
... done
 Writing xyz coordinates to file "complex_24801.xyz" ... done


--------------------------------------------------------------------------------
---------------------------------- INPUT FILE ----------------------------------
--------------------------------------------------------------------------------

cutoff_energy       : 800 eV                                                    
xc_functional B97M-V                                                            
task SINGLEPOINT                                                                
write_xyz true                                                                  
output_detail VERBOSE                                                           
ngwf_threshold_orig : 0.000002                                                  
kernel_cutoff       : 1000                                                      
k_zero              : 3.5                                                       
elec_cg_max 0                                                                   
occ_mix 1.0                                                                     
dispersion 0                                                                    
maxit_ngwf_cg 40                                                                
minit_lnv 10                                                                    
maxit_lnv 10                                                                    
write_denskern T                                                                
write_tightbox_ngwfs T                                                          
charge 9                                                                        
is_implicit_solvent T                                                           
is_auto_solvation T                                                             
is_include_apolar T                                                             
is_smeared_ion_rep T                                                            
is_solvent_surf_tension 4.7624E-5 Ha/bohr**2                                    
is_apolar_scaling_factor 0.281075                                               
is_solvation_beta 1.3                                                           
is_density_threshold 0.00035                                                    
is_bulk_permittivity 78.54                                                      
is_dielectric_model fix_initial                                                 
is_smeared_ion_width 0.8                                                        
mg_defco_fd_order 8                                                             
is_bc_coarseness 10                                                             
is_bc_surface_coarseness 1                                                      
fine_grid_scale 2.0                                                             
%block species                                                                  
N   N   7 4 8.0                                                                 
H   H   1 1 8.0                                                                 
C   C   6 4 8.0                                                                 
S   S  16 9 8.0                                                                 
O   O   8 4 8.0                                                                 
%endblock species                                                               
%block species_pot                                                              
N   N_00.recpot                                                                 
H   H_04.recpot                                                                 
C   C_01.recpot                                                                 
S   S_00.recpot                                                                 
O   O_02.recpot                                                                 
%endblock species_pot                                                           
%block lattice_cart                                                             
135.996   0.000   0.000                                                         
0.000 142.663   0.000                                                           
0.000   0.000   160.158                                                         
%endblock lattice_cart                                                          
%block positions_abs                                                            
     Hash =   000004544152568181479197
%endblock positions_abs                                                         

--------------------------------------------------------------------------------
-------------------------------- END INPUT FILE --------------------------------
--------------------------------------------------------------------------------


 
 ESDF WARNING(1): "kernelcutoff" (esdf_physical) has no units. Assume "bohr".
 ESDF WARNING(2): "kzero" (esdf_physical) has no units. Assume "1/bohr".
 ESDF WARNING(3
 ): "issmearedionwidth" (esdf_physical) has no units. Assume "bohr".
<<<<<<<<<<<<<<<<<<<<<<<<<<<<<<<<< Full system >>>>>>>>>>>>>>>>>>>>>>>>>>>>>>>>>>
<<<<<<<<<<<<<<<<<<<<<<<<< Pseudopotential information >>>>>>>>>>>>>>>>>>>>>>>>>>
File: N_00.recpot [ 2001 points up to Gmax=  52.9 (1/bohr)]
  Atomic number:  7;  ionic charge:  5.000000
    Shell 1: l = 0; rc = 1.48 bohr
File: H_04.recpot [ 2001 points up to Gmax=  52.9 (1/bohr)]
  Atomic number:  1;  ionic charge:  1.000000
    Local potential
File: C_01.recpot [ 2001 points up to Gmax=  52.9 (1/bohr)]
  Atomic number:  6;  ionic charge:  4.000000
    Shell 1: l = 0; rc = 1.48 bohr
File: S_00.recpot [ 2001 points up to Gmax=  52.9 (1/bohr)]
  Atomic number: 16;  ionic charge:  6.000000
    Shell 1: l = 0; rc = 1.90 bohr
    Shell 2: l = 2; rc = 1.84 bohr
File: O_02.recpot [ 2001 points up to Gmax=  52.9 (1/bohr)]
  Atomic number:  8;  ionic charge:  6.000000
    Shell 1: l = 0; rc = 1.31 bohr
<<<<<<<<<<<<<<<<<<<<<<<<<<<<<<<<<<<<<<<<>>>>>>>>>>>>>>>>>>>>>>>>>>>>>>>>>>>>>>>>

-------------------------- Atom counting information ---------------------------
Symbol    Natoms    Nngwfs    Nprojs
  N        236       944       236
  H       1317      1317         0
  C        816      3264       816
  S          6        54        36
  O        240       960       240
.......   ......    ......    ......
Totals:   2615      6539      1328
--------------------------------------------------------------------------------

=============================== PSINC grid sizes ===============================
                      Simulation cell:  270 x 286 x 315
                              FFT-box:   99 x 105 x  99
                                  PPD:    5 x  11 x   1
Grid space d1=  0.503688888889a0 (KE cutoff=  29.94189Eh = 814.76038eV)
Grid space d2=  0.498821678322a0 (KE cutoff=  30.52906Eh = 830.73786eV)
Grid space d3=  0.508438095238a0 (KE cutoff=  29.38514Eh = 799.61048eV)
================================================================================

********************* Fourier parallelisation information **********************
       Coarse grid (whole simulation cell) dimensions:    270   286   315
          Real-space ('12') slabs/node (min max mean):      7     8     7
         Recip-space ('23') slabs/node (min max mean):      3     4     3
********************************************************************************

********************* Fourier parallelisation information **********************
       Double grid (whole simulation cell) dimensions:    540   572   630
          Real-space ('12') slabs/node (min max mean):     15    16    15
         Recip-space ('23') slabs/node (min max mean):      6     7     6
********************************************************************************
ONETEP fine grid is 540 x 572 x 630 gridpoints, 135.9960 x 142.6630 x 160.1580 bohr.
FD multigrid is     537 x 569 x 625 gridpoints, 135.2405 x 141.9148 x 158.8869 bohr.


Calculating local pseudopotential in open BC on a radial grid ...
Discrepancy between calculated realspace psloc and -Z/x on [5a0,253.965a0]:
max |rel. diff| # avg |rel. diff| #  avg rel. diff #  f # pseudopotential file
 0.000259282084    0.000004141996   0.000000074978   54  'N_00.recpot'
 0.000405386992    0.000016970607  -0.000000075982   54  'H_04.recpot'
 0.000371694516    0.000017434762   0.000000149329   54  'C_01.recpot'
 0.000461642895    0.000020341726   0.000000491514   54  'S_00.recpot'
 0.000682525123    0.000027368244   0.000000159803   54  'O_02.recpot'
... done
 WARNING: meta-GGA functionality under development.
          Using this functional is experimental.
          Minimum tau threshold, xc_min_tau =   1.00000000E-12
 WARNING: Using alternative XC functional PBE for 
          radial densities (xc_radial).

Atom SCF Calculation for N  : Z (AE atom) =   7 : Z (PS atom) =   5
Config String:
Orbitals (num,occ):  2     2.00 3.00
Orbitals   (num,l):  2        0    1
Real-space Grid (nr,dr,rmax): 1203    0.0066555740    8.0000000000
Spherical Bessel Basis (nsws,lmax,cutoff):   47    1  176.3951722778
Confining potential (l,width,scale):  0    3.0000000000  100.0000000000
Confining potential (l,width,scale):  1    3.0000000000  100.0000000000
  1         -4.7312375307   -3.4155304497    7.0523828109   -1.9351020946
  2         -9.7309464766   -2.0532547791    8.2966052865   -2.2494486027
  3         -9.6627394379   -2.1124926340    8.2327997121   -2.2369778124
  4         -9.6814993499   -2.1215521045    8.2229805960   -2.2365178421
  5         -9.6843326483   -2.1250939529    8.2191374534   -2.2362718126
  6         -9.6859628709   -2.1267894855    8.2172963573   -2.2362066344
  7         -9.6867347035   -2.1276425665    8.2163697352   -2.2361903369
  8         -9.6870802100   -2.1280764625    8.2158983890   -2.2361891460
  9         -9.6872290423   -2.1282977424    8.2156580222   -2.2361920435
 10         -9.6872901988   -2.1284107021    8.2155353368   -2.2361953393
 11         -9.6873135296   -2.1284684031    8.2154726809   -2.2361979819
 12         -9.6873212476   -2.1284978948    8.2154406648   -2.2361998431
 13         -9.6873229586   -2.1285129774    8.2154242957   -2.2362010676
 14         -9.6873226456   -2.1285206957    8.2154159216   -2.2362018403
 15         -9.6873218534   -2.1285246479    8.2154116349   -2.2362023142
 16         -9.6873212599   -2.1285262679    8.2154098784   -2.2362025420
 17         -9.6873207834   -2.1285272564    8.2154088068   -2.2362026955
 18         -9.6873204210   -2.1285278597    8.2154081529   -2.2362027982
 19         -9.6873201550   -2.1285282280    8.2154077538   -2.2362028667
 20         -9.6873199645   -2.1285284529    8.2154075102   -2.2362029121
 21         -9.6873198305   -2.1285285903    8.2154073614   -2.2362029421
 22         -9.6873197377   -2.1285286742    8.2154072705   -2.2362029618
Atom SCF converged after  22 iterations to a total energy of     -9.68731974

Atom SCF Calculation for H  : Z (AE atom) =   1 : Z (PS atom) =   1
Config String:
Orbitals (num,occ):  1     1.00
Orbitals   (num,l):  1        0
Real-space Grid (nr,dr,rmax): 1203    0.0066555740    8.0000000000
Spherical Bessel Basis (nsws,lmax,cutoff):   47    0  176.3951722778
Confining potential (l,width,scale):  0    3.0000000000  100.0000000000
  1         -0.3194257691   -0.2393854593    0.2820953124   -0.2424203209
  2         -0.3951823392   -0.2377116493    0.2886404059   -0.2475147891
  3         -0.4317044583   -0.2352244387    0.2921333887   -0.2514046172
  4         -0.4470703708   -0.2341892222    0.2934391879   -0.2531009782
  5         -0.4532132900   -0.2338556667    0.2938388426   -0.2537313520
  6         -0.4556579251   -0.2337612552    0.2939448584   -0.2539550462
  7         -0.4566418315   -0.2337377355    0.2939680120   -0.2540342273
  8         -0.4570437922   -0.2337331116    0.2939708287   -0.2540627372
  9         -0.4572102946   -0.2337328328    0.2939698291   -0.2540732650
 10         -0.4572800424   -0.2337332404    0.2939687193   -0.2540772588
 11         -0.4573095100   -0.2337335791    0.2939680317   -0.2540788122
 12         -0.4573220379   -0.2337337762    0.2939676699   -0.2540794294
 13         -0.4573273880   -0.2337338775    0.2939674931   -0.2540796787
 14         -0.4573296803   -0.2337339266    0.2939674099   -0.2540797808
 15         -0.4573306647   -0.2337339495    0.2939673718   -0.2540798230
 16         -0.4573310882   -0.2337339601    0.2939673545   -0.2540798406
 17         -0.4573312706   -0.2337339649    0.2939673467   -0.2540798479
 18         -0.4573313493   -0.2337339670    0.2939673433   -0.2540798510
Atom SCF converged after  18 iterations to a total energy of     -0.45733135

Atom SCF Calculation for C  : Z (AE atom) =   6 : Z (PS atom) =   4
Config String:
Orbitals (num,occ):  2     2.00 2.00
Orbitals   (num,l):  2        0    1
Real-space Grid (nr,dr,rmax): 1203    0.0066555740    8.0000000000
Spherical Bessel Basis (nsws,lmax,cutoff):   47    1  176.3951722778
Confining potential (l,width,scale):  0    3.0000000000  100.0000000000
Confining potential (l,width,scale):  1    3.0000000000  100.0000000000
  1         -5.2976922011   -1.3069684169    4.5135249990   -1.4493313817
  2         -5.3721716256   -1.3429755895    4.4750154450   -1.4361613026
  3         -5.3809959565   -1.3617365618    4.4541655428   -1.4305930207
  4         -5.3918938866   -1.3667928461    4.4484735100   -1.4294652294
  5         -5.3956096428   -1.3688539142    4.4461376126   -1.4290734646
  6         -5.3968271862   -1.3696852393    4.4451910874   -1.4289366866
  7         -5.3972028401   -1.3700178062    4.4448112275   -1.4288900460
  8         -5.3973067903   -1.3701500158    4.4446598370   -1.4288749220
  9         -5.3973286940   -1.3702023868    4.4445997329   -1.4288704293
 10         -5.3973289850   -1.3702230869    4.4445759233   -1.4288693188
 11         -5.3973254264   -1.3702312560    4.4445665049   -1.4288691775
 12         -5.3973224003   -1.3702344755    4.4445627836   -1.4288692549
 13         -5.3973208708   -1.3702354890    4.4445616088   -1.4288693270
 14         -5.3973198783   -1.3702360102    4.4445610034   -1.4288693814
 15         -5.3973192535   -1.3702362780    4.4445606917   -1.4288694190
 16         -5.3973188684   -1.3702364155    4.4445605313   -1.4288694437
 17         -5.3973186349   -1.3702364860    4.4445604489   -1.4288694595
 18         -5.3973184951   -1.3702365221    4.4445604065   -1.4288694693
 19         -5.3973184122   -1.3702365405    4.4445603848   -1.4288694753
Atom SCF converged after  19 iterations to a total energy of     -5.39731841

Atom SCF Calculation for S  : Z (AE atom) =  16 : Z (PS atom) =   6
Config String:
Orbitals (num,occ):  3     2.00 4.00 0.00
Orbitals   (num,l):  3        0    1    2
Real-space Grid (nr,dr,rmax): 1203    0.0066555740    8.0000000000
Spherical Bessel Basis (nsws,lmax,cutoff):   47    2  176.3951722778
Confining potential (l,width,scale):  0    3.0000000000  100.0000000000
Confining potential (l,width,scale):  1    3.0000000000  100.0000000000
Confining potential (l,width,scale):  2    3.0000000000  100.0000000000
  1        -12.4735062396   -1.0328741412   10.1554312477   -2.4512393157
  2         -9.9458301913   -2.4607392455    8.3041325857   -2.0306994528
  3        -10.1450417646   -2.2931184565    8.4831893826   -2.0812538287
  4        -10.1528335592   -2.2733105793    8.5050388867   -2.0896035179
  5        -10.1571940363   -2.2633716629    8.5160794258   -2.0939370707
  6        -10.1594380571   -2.2584938667    8.5215163935   -2.0961289008
  7        -10.1605856507   -2.2561081821    8.5241804044   -2.0972291378
  8        -10.1611799191   -2.2549395235    8.5254868240   -2.0977806248
  9        -10.1614918752   -2.2543658586    8.5261285885   -2.0980571586
 10        -10.1616572884   -2.2540839121    8.5264441898   -2.0981959233
 11        -10.1617455602   -2.2539453058    8.5265994231   -2.0982656006
 12        -10.1617928447   -2.2538772062    8.5266757320   -2.0983006047
 13        -10.1618182292   -2.2538437891    8.5267131983   -2.0983181961
 14        -10.1618318741   -2.2538274201    8.5267315620   -2.0983270391
 15        -10.1618392144   -2.2538194197    8.5267405433   -2.0983314852
 16        -10.1618431651   -2.2538155200    8.5267449245   -2.0983337210
 17        -10.1618452923   -2.2538136252    8.5267470551   -2.0983348455
 18        -10.1618464380   -2.2538127080    8.5267480875   -2.0983354110
 19        -10.1618470552   -2.2538122659    8.5267485856   -2.0983356955
 20        -10.1618473878   -2.2538120540    8.5267488248   -2.0983358386
 21        -10.1618475670   -2.2538119530    8.5267489389   -2.0983359106
 22        -10.1618476637   -2.2538119053    8.5267489929   -2.0983359468
Atom SCF converged after  22 iterations to a total energy of    -10.16184766

Atom SCF Calculation for O  : Z (AE atom) =   8 : Z (PS atom) =   6
Config String:
Orbitals (num,occ):  2     2.00 4.00
Orbitals   (num,l):  2        0    1
Real-space Grid (nr,dr,rmax): 1203    0.0066555740    8.0000000000
Spherical Bessel Basis (nsws,lmax,cutoff):   47    1  176.3951722778
Confining potential (l,width,scale):  0    3.0000000000  100.0000000000
Confining potential (l,width,scale):  1    3.0000000000  100.0000000000
  1         -1.8735052164   -7.5539365035   10.1554312477   -2.4512393157
  2        -16.0318313751   -3.1285771268   13.6395848164   -3.2358799643
  3        -15.9524020423   -3.0762819706   13.6967272503   -3.2536856837
  4        -15.8521515939   -3.0781493909   13.6951909330   -3.2561700440
  5        -15.8357139793   -3.0748501933   13.6988803334   -3.2580493133
  6        -15.8246052853   -3.0740779781   13.6997881576   -3.2588327446
  7        -15.8189019501   -3.0737449687   13.7001869911   -3.2592378801
  8        -15.8159785510   -3.0736026016   13.7003615168   -3.2594475790
  9        -15.8144776168   -3.0735437994   13.7004360379   -3.2595560735
 10        -15.8137058024   -3.0735207882   13.7004667348   -3.2596122456
 11        -15.8133083127   -3.0735125946   13.7004786868   -3.2596413656
 12        -15.8131032938   -3.0735102195   13.7004828997   -3.2596564858
 13        -15.8129973902   -3.0735099286   13.7004840891   -3.2596643505
 14        -15.8129426040   -3.0735102506   13.7004842061   -3.2596684489
 15        -15.8129142203   -3.0735106556   13.7004840157   -3.2596705887
 16        -15.8128994940   -3.0735109855   13.7004837906   -3.2596717080
 17        -15.8128918425   -3.0735112169   13.7004836103   -3.2596722946
 18        -15.8128878614   -3.0735113674   13.7004834848   -3.2596726026
 19        -15.8128857871   -3.0735114608   13.7004834035   -3.2596727646
 20        -15.8128847048   -3.0735115170   13.7004833533   -3.2596728500
 21        -15.8128841394   -3.0735115501   13.7004833231   -3.2596728951
 22        -15.8128838436   -3.0735115693   13.7004833054   -3.2596729190
 23        -15.8128836887   -3.0735115802   13.7004832951   -3.2596729316
 24        -15.8128836074   -3.0735115864   13.7004832893   -3.2596729383
Atom SCF converged after  24 iterations to a total energy of    -15.81288361

========================== Calculation in vacuum ==============================
= Adjusting the following parameters: 
= is_implicit_solvent: F
= is_include_apolar: F
= write_denskern: T
= write_tightbox_ngwfs: T
= restart read filename prefix: ""
= restart write filename prefix: "vacuum_"
===============================================================================

Determining parallel strategy ...
... using space-filling curve
... NGWF load balancing: max    164;  min    163;  average    163
... Projector load balancing: max     36;  min     32;  average     33
... done
Calculating direct Ion-Ion energy ...
Ion-Ion Energy        :    837125.83410108520184
Basis initialisation ...... NGWF spheres initialised
... Projector spheres initialised
... NGWF tight boxes initialised
... Tight-boxes gathered
... NGWF basis size (local,global):    1271177  51058305
... Nonlocal pseudopotential projector initialisation
... done

========================== Sparse matrix information ===========================
                        Overlap matrix filling:   6.75%
                        Density kernel filling: 100.00%
              NGWF-Proj overlap matrix filling:   1.76%
                    Hamiltonian matrix filling:   7.61%
                  NGWF diagonal matrix filling:   0.05%
                             KS matrix filling: 100.00% 
                           KSKS matrix filling: 100.00% 
================================================================================

Sparse matrix initialisation ... done

Generating smeared ion density ... done
Smeared ion self correction:     -14525.987107
Smeared ion non-self correction: -837077.536578
NGWF initialisation ...... done
============ Calculation of NGWF S^-1 using Hotelling algorithm ================ 
         Iteration  |  Frobenius norm and Maximum abs value    (of I-S*S_n^-1)   
               1       0.78636611E+02     0.98228419E+00
               2       0.76746157E+02     0.96500253E+00
               3       0.73696871E+02     0.93167490E+00
               4       0.69383101E+02     0.86963645E+00
               5       0.64031106E+02     0.76389910E+00
               6       0.58036887E+02     0.70448260E+00
               7       0.52035510E+02     0.66856961E+00
               8       0.46485987E+02     0.64192457E+00
               9       0.40356748E+02     0.60144378E+00
              10       0.31984886E+02     0.53054619E+00
              11       0.21340419E+02     0.41674089E+00
              12       0.10776551E+02     0.26811630E+00
              13       0.34801395E+01     0.12495896E+00
              14       0.53176255E+00     0.31516524E-01
              15       0.24882182E-01     0.25922154E-02
              16       0.14182850E-03     0.22306154E-04
              17       0.89263377E-08     0.17984318E-08
              18       0.87498846E-13     0.48849813E-14
================================================================================
Calculating local pseudopotential in open BC on the fine real space grid ...
... done

MG BCs: +ve charge blocks (gridpoints):     20517 (   16122270).
MG BCs: -ve charge blocks (gridpoints):      8064 (    1089124).
MG BCs:     Elided blocks (gridpoints):    173397 (  173759231).
MG BCs: Computational effort saved:  99.9850%.
MG BCs: Charge after coarse-graining:           -9.0002247.
MG DL_MG: Calling solver with defect correction order = 8
MG DL_MG: Solver finished
MG Hartree energy from (\int phi*rho dr):              1470.879602
MG Hartree energy from (\int eps (grad phi)^2 dr):     1470.261752
MG Discrepancy due to finite box and discretization:     -0.617851 (  -0.04201%)
MG Correction to account for finite box:                  0.466614
MG Remaining discrepancy, due to discretization:         -0.151237 (  -0.01028%)
 WARNING: xc_energy_potential using alternative initial XC functional PBE.
Up spin density kernel initialisation ... 
======= Optimisation of K by Palser-Manolopoulos canonical purification ======== 
         Iteration  |  Band structure energy |    c_n   
               1       -2597.58069866064852    0.5266896
               2       -2774.14125921766026    0.5169330
               3       -2954.97496850235348    0.5154038
               4       -3105.74241505815689    0.5290184
               5       -3198.23760749970279    0.5647553
               6       -3236.88812963686541    0.6093968
               7       -3250.04555752128999    0.6220361
               8       -3255.73215890726897    0.6220911
               9       -3258.47441062325288    0.6360335
              10       -3259.62233828209173    0.6585298
              11       -3260.07958556939639    0.6749018
              12       -3260.27839321193369    0.6701330
              13       -3260.37938161290595    0.6251036
              14       -3260.44088425250175    0.5418842
              15       -3260.47706418063080    0.4292241
              16       -3260.48577202447541    0.3579554
              17       -3260.48704508291894    0.3597395
              18       -3260.48776137613640    0.4085165
              19       -3260.48836894043598    0.4607238
              20       -3260.48878542229249    0.4921854
              21       -3260.48893500587837    0.4996837
              22       -3260.48895039396348    0.4999996
              23       -3260.48895054793456    0.4999996
Termination criterion satisfied: band energy change below threshold.
Final occupancy bounds: [    0.00000000000003:    0.99999999999999]
Closest occupancy to 0.5:     0.99999999999943
================================================================================
... done

Writing density kernel to file "complex_24801.vacuum_dkn" ... done

>>> Optimising kernel for current NGWFs:
   Initial electron number for spin 1:    7228.00000000
     Final electron number for spin 1:    7228.00000000

=================== Penalty functional idempotency correction ==================
 RMS occupancy error at iteration   1:  0.000000 (step -0.5000 Ne1=   7228.0000)
            Final RMS occupancy error   :  0.000000 (Ne1=   7228.0000)
               Final occupancy bounds   : [  0.0000,  1.0000]
================================================================================

................................................................................
<<<<<<<<<<<<<< LNV (Original version) density kernel optimisation >>>>>>>>>>>>>>
~~~~~~~~~~~~~~~~~~~~~~~~~~~~~~~~~~~~~~~~~~~~~~~~~~~~~~~~~~~~~~~~~~~~~~~~~~~~~~~~
   iter  |      energy (Eh)       | rms gradient |  commutator  |   dE (Eh)
MG BCs: +ve charge blocks (gridpoints):     31101 (   17256427).
MG BCs: -ve charge blocks (gridpoints):      8383 (    1122939).
MG BCs:     Elided blocks (gridpoints):    162807 (  172591259).
MG BCs: Computational effort saved:  99.9793%.
MG BCs: Charge after coarse-graining:           -9.0009617.
MG DL_MG: Calling solver with defect correction order = 8
MG DL_MG: Solver finished
MG Hartree energy from (\int phi*rho dr):              1426.463933
MG Hartree energy from (\int eps (grad phi)^2 dr):     1425.790460
MG Discrepancy due to finite box and discretization:     -0.673473 (  -0.04721%)
MG Correction to account for finite box:                  0.478916
MG Remaining discrepancy, due to discretization:         -0.194557 (  -0.01364%)
      ideal mu1:      -0.740425439595
             Q0:  -11523.493564041099
             G0:    -127.121550312157
   RMS gradient:       0.001724242132
MG BCs: +ve charge blocks (gridpoints):     31048 (   17333242).
MG BCs: -ve charge blocks (gridpoints):      8275 (    1099921).
MG BCs:     Elided blocks (gridpoints):    162859 (  172537462).
MG BCs: Computational effort saved:  99.9794%.
MG BCs: Charge after coarse-graining:           -9.0009832.
MG DL_MG: Calling solver with defect correction order = 8
MG DL_MG: Solver finished
MG Hartree energy from (\int phi*rho dr):              1448.018385
MG Hartree energy from (\int eps (grad phi)^2 dr):     1447.360754
MG Discrepancy due to finite box and discretization:     -0.657631 (  -0.04542%)
MG Correction to account for finite box:                  0.478730
MG Remaining discrepancy, due to discretization:         -0.178902 (  -0.01235%)
     Trial step:       0.500000000000
             Q1:  -11535.957779967226
 Quadratic coef:      51.096559229951
 Linear coef   :     -63.560775156079
           Qmin:  -11543.259925021788
Quadratic minimum step length (  0.310983636247) accepted
    Initial Ne1:    7228.00000000
      Final Ne1:    7228.00000000

=================== Penalty functional idempotency correction ==================
 RMS occupancy error at iteration   1:  0.003233 (step -0.4890 Ne1=   7228.0000)
 RMS occupancy error at iteration   2:  0.000026 (step -0.5001 Ne1=   7228.0000)
            Final RMS occupancy error   :  0.000000 (Ne1=   7228.0000)
               Final occupancy bounds   : [  0.0000,  1.0000]
================================================================================

    1        -1.152349356404E+04     1.7242E-03     1.5599E-03
MG BCs: +ve charge blocks (gridpoints):     31053 (   17305499).
MG BCs: -ve charge blocks (gridpoints):      8318 (    1108872).
MG BCs:     Elided blocks (gridpoints):    162853 (  172556254).
MG BCs: Computational effort saved:  99.9794%.
MG BCs: Charge after coarse-graining:           -9.0009753.
MG DL_MG: Calling solver with defect correction order = 8
MG DL_MG: Solver finished
MG Hartree energy from (\int phi*rho dr):              1433.297393
MG Hartree energy from (\int eps (grad phi)^2 dr):     1432.634605
MG Discrepancy due to finite box and discretization:     -0.662788 (  -0.04624%)
MG Correction to account for finite box:                  0.478696
MG Remaining discrepancy, due to discretization:         -0.184092 (  -0.01284%)
      ideal mu1:      -0.782425388760
             Q0:  -11543.646587801981
             G0:     -11.475584570744
   RMS gradient:       0.000514283226
MG BCs: +ve charge blocks (gridpoints):     31052 (   17322395).
MG BCs: -ve charge blocks (gridpoints):      8289 (    1102000).
MG BCs:     Elided blocks (gridpoints):    162854 (  172546230).
MG BCs: Computational effort saved:  99.9794%.
MG BCs: Charge after coarse-graining:           -9.0009798.
MG DL_MG: Calling solver with defect correction order = 8
MG DL_MG: Solver finished
MG Hartree energy from (\int phi*rho dr):              1438.667769
MG Hartree energy from (\int eps (grad phi)^2 dr):     1438.008798
MG Discrepancy due to finite box and discretization:     -0.658971 (  -0.04580%)
MG Correction to account for finite box:                  0.477954
MG Remaining discrepancy, due to discretization:         -0.181017 (  -0.01258%)
     Trial step:       0.394324508652
             Q1:  -11546.269373783492
 Quadratic coef:       1.902318265837
 Linear coef   :      -4.525104247348
           Qmin:  -11546.337589725410
Quadratic minimum step length (  0.468996051023) accepted
    Initial Ne1:    7227.99987253
      Final Ne1:    7228.00000000

=================== Penalty functional idempotency correction ==================
 RMS occupancy error at iteration   1:  0.001550 (step -0.4942 Ne1=   7228.0000)
 RMS occupancy error at iteration   2:  0.000009 (step -0.5002 Ne1=   7228.0000)
            Final RMS occupancy error   :  0.000000 (Ne1=   7228.0000)
               Final occupancy bounds   : [  0.0000,  1.0000]
================================================================================

    2        -1.154364658780E+04     5.1428E-04     4.6526E-04    -2.0153E+01
MG BCs: +ve charge blocks (gridpoints):     31052 (   17325505).
MG BCs: -ve charge blocks (gridpoints):      8280 (    1100793).
MG BCs:     Elided blocks (gridpoints):    162854 (  172544327).
MG BCs: Computational effort saved:  99.9794%.
MG BCs: Charge after coarse-graining:           -9.0009806.
MG DL_MG: Calling solver with defect correction order = 8
MG DL_MG: Solver finished
MG Hartree energy from (\int phi*rho dr):              1439.714307
MG Hartree energy from (\int eps (grad phi)^2 dr):     1439.056015
MG Discrepancy due to finite box and discretization:     -0.658292 (  -0.04572%)
MG Correction to account for finite box:                  0.477822
MG Remaining discrepancy, due to discretization:         -0.180471 (  -0.01254%)
      ideal mu1:      -0.804175118473
             Q0:  -11546.373145280289
             G0:      -1.920990193929
   RMS gradient:       0.000210459924
MG BCs: +ve charge blocks (gridpoints):     31043 (   17326273).
MG BCs: -ve charge blocks (gridpoints):      8283 (    1100765).
MG BCs:     Elided blocks (gridpoints):    162863 (  172543587).
MG BCs: Computational effort saved:  99.9794%.
MG BCs: Charge after coarse-graining:           -9.0009810.
MG DL_MG: Calling solver with defect correction order = 8
MG DL_MG: Solver finished
MG Hartree energy from (\int phi*rho dr):              1439.080417
MG Hartree energy from (\int eps (grad phi)^2 dr):     1438.422744
MG Discrepancy due to finite box and discretization:     -0.657673 (  -0.04570%)
MG Correction to account for finite box:                  0.477430
MG Remaining discrepancy, due to discretization:         -0.180243 (  -0.01252%)
     Trial step:       0.430042599494
             Q1:  -11546.872343432275
 Quadratic coef:       0.326909464613
 Linear coef   :      -0.826107616599
           Qmin:  -11546.895043441766
Quadratic minimum step length (  0.543363691419) accepted
    Initial Ne1:    7227.99993282
      Final Ne1:    7228.00000000

=================== Penalty functional idempotency correction ==================
 RMS occupancy error at iteration   1:  0.000626 (step -0.4972 Ne1=   7228.0000)
 RMS occupancy error at iteration   2:  0.000003 (step -0.5000 Ne1=   7228.0000)
            Final RMS occupancy error   :  0.000000 (Ne1=   7228.0000)
               Final occupancy bounds   : [  0.0000,  1.0000]
================================================================================

    3        -1.154637314528E+04     2.1046E-04     1.9040E-04    -2.7266E+00
MG BCs: +ve charge blocks (gridpoints):     31042 (   17326368).
MG BCs: -ve charge blocks (gridpoints):      8281 (    1100846).
MG BCs:     Elided blocks (gridpoints):    162865 (  172543411).
MG BCs: Computational effort saved:  99.9794%.
MG BCs: Charge after coarse-graining:           -9.0009811.
MG DL_MG: Calling solver with defect correction order = 8
MG DL_MG: Solver finished
MG Hartree energy from (\int phi*rho dr):              1438.918980
MG Hartree energy from (\int eps (grad phi)^2 dr):     1438.261457
MG Discrepancy due to finite box and discretization:     -0.657523 (  -0.04570%)
MG Correction to account for finite box:                  0.477329
MG Remaining discrepancy, due to discretization:         -0.180194 (  -0.01252%)
      ideal mu1:      -0.807336511438
             Q0:  -11546.900140083744
             G0:      -0.463826356169
   RMS gradient:       0.000103607533
MG BCs: +ve charge blocks (gridpoints):     31043 (   17327156).
MG BCs: -ve charge blocks (gridpoints):      8284 (    1100677).
MG BCs:     Elided blocks (gridpoints):    162864 (  172542792).
MG BCs: Computational effort saved:  99.9794%.
MG BCs: Charge after coarse-graining:           -9.0009810.
MG DL_MG: Calling solver with defect correction order = 8
MG DL_MG: Solver finished
MG Hartree energy from (\int phi*rho dr):              1440.052729
MG Hartree energy from (\int eps (grad phi)^2 dr):     1439.395210
MG Discrepancy due to finite box and discretization:     -0.657519 (  -0.04566%)
MG Correction to account for finite box:                  0.477187
MG Remaining discrepancy, due to discretization:         -0.180332 (  -0.01252%)
     Trial step:       0.483393767366
             Q1:  -11547.023890737328
 Quadratic coef:       0.100460116128
 Linear coef   :      -0.224210769712
           Qmin:  -11547.025240649005
Quadratic minimum step length (  0.539428445998) accepted
    Initial Ne1:    7227.99998370
      Final Ne1:    7228.00000000

=================== Penalty functional idempotency correction ==================
 RMS occupancy error at iteration   1:  0.000279 (step -0.4964 Ne1=   7228.0000)
 RMS occupancy error at iteration   2:  0.000002 (step -0.5000 Ne1=   7228.0000)
            Final RMS occupancy error   :  0.000000 (Ne1=   7228.0000)
               Final occupancy bounds   : [  0.0000,  1.0000]
================================================================================

    4        -1.154690014008E+04     1.0361E-04     9.3731E-05    -5.2699E-01
MG BCs: +ve charge blocks (gridpoints):     31043 (   17327243).
MG BCs: -ve charge blocks (gridpoints):      8284 (    1100679).
MG BCs:     Elided blocks (gridpoints):    162864 (  172542703).
MG BCs: Computational effort saved:  99.9794%.
MG BCs: Charge after coarse-graining:           -9.0009810.
MG DL_MG: Calling solver with defect correction order = 8
MG DL_MG: Solver finished
MG Hartree energy from (\int phi*rho dr):              1440.184634
MG Hartree energy from (\int eps (grad phi)^2 dr):     1439.527114
MG Discrepancy due to finite box and discretization:     -0.657520 (  -0.04566%)
MG Correction to account for finite box:                  0.477170
MG Remaining discrepancy, due to discretization:         -0.180350 (  -0.01252%)
      ideal mu1:      -0.807264137313
             Q0:  -11547.025851113372
             G0:      -0.184861968951
   RMS gradient:       0.000065598838
MG BCs: +ve charge blocks (gridpoints):     31046 (   17326925).
MG BCs: -ve charge blocks (gridpoints):      8282 (    1100844).
MG BCs:     Elided blocks (gridpoints):    162861 (  172542856).
MG BCs: Computational effort saved:  99.9794%.
MG BCs: Charge after coarse-graining:           -9.0009807.
MG DL_MG: Calling solver with defect correction order = 8
MG DL_MG: Solver finished
MG Hartree energy from (\int phi*rho dr):              1439.825363
MG Hartree energy from (\int eps (grad phi)^2 dr):     1439.167747
MG Discrepancy due to finite box and discretization:     -0.657616 (  -0.04567%)
MG Correction to account for finite box:                  0.477117
MG Remaining discrepancy, due to discretization:         -0.180499 (  -0.01254%)
     Trial step:       0.510643073717
             Q1:  -11547.085055480362
 Quadratic coef:       0.035194117048
 Linear coef   :      -0.094398484039
           Qmin:  -11547.089150568907
Quadratic minimum step length (  0.684829398866) accepted
    Initial Ne1:    7227.99999144
      Final Ne1:    7228.00000000

=================== Penalty functional idempotency correction ==================
 RMS occupancy error at iteration   1:  0.000429 (step -0.4799 Ne1=   7228.0000)
 RMS occupancy error at iteration   2:  0.000007 (step -0.5000 Ne1=   7228.0000)
            Final RMS occupancy error   :  0.000000 (Ne1=   7228.0000)
               Final occupancy bounds   : [  0.0000,  1.0000]
================================================================================

    5        -1.154702585111E+04     6.5599E-05     5.9346E-05    -1.2571E-01
MG BCs: +ve charge blocks (gridpoints):     31046 (   17326834).
MG BCs: -ve charge blocks (gridpoints):      8282 (    1100924).
MG BCs:     Elided blocks (gridpoints):    162861 (  172542867).
MG BCs: Computational effort saved:  99.9794%.
MG BCs: Charge after coarse-graining:           -9.0009806.
MG DL_MG: Calling solver with defect correction order = 8
MG DL_MG: Solver finished
MG Hartree energy from (\int phi*rho dr):              1439.702026
MG Hartree energy from (\int eps (grad phi)^2 dr):     1439.044377
MG Discrepancy due to finite box and discretization:     -0.657649 (  -0.04568%)
MG Correction to account for finite box:                  0.477098
MG Remaining discrepancy, due to discretization:         -0.180551 (  -0.01254%)
      ideal mu1:      -0.806460052742
             Q0:  -11547.088746923720
             G0:      -0.166848543676
   RMS gradient:       0.000062760167
MG BCs: +ve charge blocks (gridpoints):     31049 (   17326325).
MG BCs: -ve charge blocks (gridpoints):      8283 (    1101299).
MG BCs:     Elided blocks (gridpoints):    162858 (  172543001).
MG BCs: Computational effort saved:  99.9794%.
MG BCs: Charge after coarse-graining:           -9.0009804.
MG DL_MG: Calling solver with defect correction order = 8
MG DL_MG: Solver finished
MG Hartree energy from (\int phi*rho dr):              1438.572910
MG Hartree energy from (\int eps (grad phi)^2 dr):     1437.915276
MG Discrepancy due to finite box and discretization:     -0.657634 (  -0.04571%)
MG Correction to account for finite box:                  0.477057
MG Remaining discrepancy, due to discretization:         -0.180576 (  -0.01255%)
     Trial step:       0.591357243305
             Q1:  -11547.166946122772
 Quadratic coef:       0.020467895785
 Linear coef   :      -0.098667094838
           Qmin:  -11547.207655038481
Quadratic minimum step length (  1.425341955523) accepted
    Initial Ne1:    7227.99994452
      Final Ne1:    7228.00000000

=================== Penalty functional idempotency correction ==================
 RMS occupancy error at iteration   1:  0.004765 (step -0.3196 Ne1=   7228.0000)
 RMS occupancy error at iteration   2:  0.000284 (step -0.4961 Ne1=   7228.0000)
 RMS occupancy error at iteration   3:  0.000006 (step -0.5004 Ne1=   7228.0000)
            Final RMS occupancy error   :  0.000000 (Ne1=   7228.0000)
               Final occupancy bounds   : [  0.0000,  1.0000]
================================================================================

    6        -1.154708874692E+04     6.2760E-05     5.6778E-05    -6.2896E-02
MG BCs: +ve charge blocks (gridpoints):     31053 (   17325680).
MG BCs: -ve charge blocks (gridpoints):      8287 (    1101777).
MG BCs:     Elided blocks (gridpoints):    162853 (  172543168).
MG BCs: Computational effort saved:  99.9794%.
MG BCs: Charge after coarse-graining:           -9.0009801.
MG DL_MG: Calling solver with defect correction order = 8
MG DL_MG: Solver finished
MG Hartree energy from (\int phi*rho dr):              1437.010019
MG Hartree energy from (\int eps (grad phi)^2 dr):     1436.352385
MG Discrepancy due to finite box and discretization:     -0.657634 (  -0.04576%)
MG Correction to account for finite box:                  0.477020
MG Remaining discrepancy, due to discretization:         -0.180614 (  -0.01257%)
      ideal mu1:      -0.806485784053
             Q0:  -11547.168810876086
             G0:      -0.432620129579
   RMS gradient:       0.000100587039
MG BCs: +ve charge blocks (gridpoints):     31043 (   17329234).
MG BCs: -ve charge blocks (gridpoints):      8281 (    1099559).
MG BCs:     Elided blocks (gridpoints):    162864 (  172541832).
MG BCs: Computational effort saved:  99.9794%.
MG BCs: Charge after coarse-graining:           -9.0009815.
MG DL_MG: Calling solver with defect correction order = 8
MG DL_MG: Solver finished
MG Hartree energy from (\int phi*rho dr):              1442.446409
MG Hartree energy from (\int eps (grad phi)^2 dr):     1441.788935
MG Discrepancy due to finite box and discretization:     -0.657475 (  -0.04558%)
MG Correction to account for finite box:                  0.476955
MG Remaining discrepancy, due to discretization:         -0.180520 (  -0.01251%)
     Trial step:       0.918088388765
             Q1:  -11547.258049881551
 Quadratic coef:       0.307944512248
 Linear coef   :      -0.397183517713
           Qmin:  -11547.296881632723
Quadratic minimum step length (  0.592070261553) accepted
    Initial Ne1:    7227.99998281
      Final Ne1:    7228.00000000

=================== Penalty functional idempotency correction ==================
 RMS occupancy error at iteration   1:  0.000197 (step -0.4866 Ne1=   7228.0000)
 RMS occupancy error at iteration   2:  0.000002 (step -0.5000 Ne1=   7228.0000)
            Final RMS occupancy error   :  0.000000 (Ne1=   7228.0000)
               Final occupancy bounds   : [  0.0000,  1.0000]
================================================================================

    7        -1.154716881088E+04     1.0059E-04     9.0999E-05    -8.0064E-02
MG BCs: +ve charge blocks (gridpoints):     31046 (   17328020).
MG BCs: -ve charge blocks (gridpoints):      8282 (    1100348).
MG BCs:     Elided blocks (gridpoints):    162861 (  172542257).
MG BCs: Computational effort saved:  99.9794%.
MG BCs: Charge after coarse-graining:           -9.0009810.
MG DL_MG: Calling solver with defect correction order = 8
MG DL_MG: Solver finished
MG Hartree energy from (\int phi*rho dr):              1440.506449
MG Hartree energy from (\int eps (grad phi)^2 dr):     1439.848925
MG Discrepancy due to finite box and discretization:     -0.657524 (  -0.04565%)
MG Correction to account for finite box:                  0.476973
MG Remaining discrepancy, due to discretization:         -0.180551 (  -0.01253%)
      ideal mu1:      -0.808337127937
             Q0:  -11547.297359899501
             G0:      -0.263598681835
   RMS gradient:       0.000078391603
MG BCs: +ve charge blocks (gridpoints):     31042 (   17327937).
MG BCs: -ve charge blocks (gridpoints):      8282 (    1100308).
MG BCs:     Elided blocks (gridpoints):    162865 (  172542380).
MG BCs: Computational effort saved:  99.9794%.
MG BCs: Charge after coarse-graining:           -9.0009812.
MG DL_MG: Calling solver with defect correction order = 8
MG DL_MG: Solver finished
MG Hartree energy from (\int phi*rho dr):              1440.139537
MG Hartree energy from (\int eps (grad phi)^2 dr):     1439.482043
MG Discrepancy due to finite box and discretization:     -0.657494 (  -0.04565%)
MG Correction to account for finite box:                  0.477176
MG Remaining discrepancy, due to discretization:         -0.180318 (  -0.01252%)
     Trial step:       0.737273919561
             Q1:  -11547.405089803971
 Quadratic coef:       0.086614528876
 Linear coef   :      -0.194344433347
           Qmin:  -11547.406376710142
Quadratic minimum step length (  0.827142304978) accepted
    Initial Ne1:    7227.99998494
      Final Ne1:    7228.00000000

=================== Penalty functional idempotency correction ==================
 RMS occupancy error at iteration   1:  0.001356 (step -0.4186 Ne1=   7228.0000)
 RMS occupancy error at iteration   2:  0.000052 (step -0.4973 Ne1=   7228.0000)
 RMS occupancy error at iteration   3:  0.000000 (step -0.5000 Ne1=   7228.0000)
            Final RMS occupancy error   :  0.000000 (Ne1=   7228.0000)
               Final occupancy bounds   : [  0.0000,  1.0000]
================================================================================

    8        -1.154729735990E+04     7.8392E-05     7.0919E-05    -1.2855E-01
MG BCs: +ve charge blocks (gridpoints):     31042 (   17327900).
MG BCs: -ve charge blocks (gridpoints):      8282 (    1100330).
MG BCs:     Elided blocks (gridpoints):    162865 (  172542395).
MG BCs: Computational effort saved:  99.9794%.
MG BCs: Charge after coarse-graining:           -9.0009812.
MG DL_MG: Calling solver with defect correction order = 8
MG DL_MG: Solver finished
MG Hartree energy from (\int phi*rho dr):              1440.098664
MG Hartree energy from (\int eps (grad phi)^2 dr):     1439.441176
MG Discrepancy due to finite box and discretization:     -0.657488 (  -0.04566%)
MG Correction to account for finite box:                  0.477197
MG Remaining discrepancy, due to discretization:         -0.180291 (  -0.01252%)
      ideal mu1:      -0.807599961379
             Q0:  -11547.405751582119
             G0:      -0.233511470744
   RMS gradient:       0.000073939023
MG BCs: +ve charge blocks (gridpoints):     31048 (   17326567).
MG BCs: -ve charge blocks (gridpoints):      8284 (    1101001).
MG BCs:     Elided blocks (gridpoints):    162859 (  172543057).
MG BCs: Computational effort saved:  99.9794%.
MG BCs: Charge after coarse-graining:           -9.0009809.
MG DL_MG: Calling solver with defect correction order = 8
MG DL_MG: Solver finished
MG Hartree energy from (\int phi*rho dr):              1438.221520
MG Hartree energy from (\int eps (grad phi)^2 dr):     1437.563788
MG Discrepancy due to finite box and discretization:     -0.657732 (  -0.04573%)
MG Correction to account for finite box:                  0.477580
MG Remaining discrepancy, due to discretization:         -0.180153 (  -0.01253%)
     Trial step:       0.780916416287
             Q1:  -11547.467906720936
 Quadratic coef:       0.120197802078
 Linear coef   :      -0.182352940895
           Qmin:  -11547.474913818196
Quadratic minimum step length (  0.592366926189) accepted
    Initial Ne1:    7227.99999040
      Final Ne1:    7228.00000000

=================== Penalty functional idempotency correction ==================
 RMS occupancy error at iteration   1:  0.002292 (step -0.3793 Ne1=   7228.0000)
 RMS occupancy error at iteration   2:  0.000124 (step -0.4933 Ne1=   7228.0000)
 RMS occupancy error at iteration   3:  0.000001 (step -0.5000 Ne1=   7228.0000)
            Final RMS occupancy error   :  0.000000 (Ne1=   7228.0000)
               Final occupancy bounds   : [  0.0000,  1.0000]
================================================================================

    9        -1.154740575158E+04     7.3939E-05     6.6891E-05    -1.0839E-01
MG BCs: +ve charge blocks (gridpoints):     31047 (   17326890).
MG BCs: -ve charge blocks (gridpoints):      8284 (    1100838).
MG BCs:     Elided blocks (gridpoints):    162860 (  172542897).
MG BCs: Computational effort saved:  99.9794%.
MG BCs: Charge after coarse-graining:           -9.0009809.
MG DL_MG: Calling solver with defect correction order = 8
MG DL_MG: Solver finished
MG Hartree energy from (\int phi*rho dr):              1438.668245
MG Hartree energy from (\int eps (grad phi)^2 dr):     1438.010583
MG Discrepancy due to finite box and discretization:     -0.657662 (  -0.04571%)
MG Correction to account for finite box:                  0.477482
MG Remaining discrepancy, due to discretization:         -0.180180 (  -0.01252%)
      ideal mu1:      -0.806567205295
   10        -1.154747859343E+04     5.3350E-05     4.8264E-05    -7.2842E-02
Finished density kernel iterations (  10)

Writing density kernel to file "complex_24801.vacuum_dkn" ... done


>>> Density kernel optimised for the current NGWF basis:
     ~~~~~~~~~~~~~~~~~~~~~~~~~~~~~~~~~~~~~~~~~~~~~~~~~~~~~~~~~~~
     Total energy                =  -1.15474785934327E+04  Eh
     Estimated bandgap           =  -3.3015E-01  Eh
     RMS occupancy error         =   1.6086E-10
     [H,K] commutator            =   4.8264E-05
     Occupancy bounds            = [  0.000:  1.000]
     ~~~~~~~~~~~~~~~~~~~~~~~~~~~~~~~~~~~~~~~~~~~~~~~~~~~~~~~~~~~




################################################################################
########################### NGWF CG iteration  001 #############################
################################################################################
****** Reciprocal space K.E. preconditioning with k_zero =  3.5000 a0^-1 *******

>>> Checking for convergence of NGWFs:   NOT CONVERGED
  ========================================================================
         NGWF RMS gradient =  1.6458E-03 >  2.0000E-06  | above tolerance
  ========================================================================

>>> Improving NGWFs using line search:
============ Calculation of NGWF S^-1 using Hotelling algorithm ================ 
         Iteration  |  Frobenius norm and Maximum abs value    (of I-S*S_n^-1)   
               1       0.23937547E+00     0.65319886E-02
               2       0.13241773E-02     0.57913812E-04
               3       0.67840496E-07     0.47857991E-08
               4       0.13145010E-12     0.67723605E-14
================================================================================
MG BCs: +ve charge blocks (gridpoints):     30632 (   17274265).
MG BCs: -ve charge blocks (gridpoints):      8294 (    1097559).
MG BCs:     Elided blocks (gridpoints):    163277 (  172598801).
MG BCs: Computational effort saved:  99.9796%.
MG BCs: Charge after coarse-graining:           -9.0009855.
MG DL_MG: Calling solver with defect correction order = 8
MG DL_MG: Solver finished
MG Hartree energy from (\int phi*rho dr):              1410.419693
MG Hartree energy from (\int eps (grad phi)^2 dr):     1409.763622
MG Discrepancy due to finite box and discretization:     -0.656071 (  -0.04652%)
MG Correction to account for finite box:                  0.477387
MG Remaining discrepancy, due to discretization:         -0.178683 (  -0.01267%)
============ Calculation of NGWF S^-1 using Hotelling algorithm ================ 
         Iteration  |  Frobenius norm and Maximum abs value    (of I-S*S_n^-1)   
               1       0.21722350E+01     0.49132370E-01
               2       0.96958893E-01     0.31771224E-02
               3       0.26819299E-03     0.15518430E-04
               4       0.36077785E-08     0.45464354E-09
               5       0.11466322E-12     0.51070259E-14
================================================================================
------------------------------- NGWF line search -------------------------------
RMS gradient                =       0.00164584912767
Trial step length           =               0.122474
Gradient along search dir.  =       -297.37481138621
Functional at step 0        =  -11547.47859343269374
Functional at step 1        =  -11581.04892719187774
Functional predicted        =  -11663.81604155909008
Selected quadratic step     =               0.782430
--------------------------- NGWF line search finished --------------------------
                                               
Writing NGWFs to file "complex_24801.vacuum_tightbox_ngwfs"....  done

>>> Optimising kernel for current NGWFs:
   Initial electron number for spin 1:    7274.41265589
     Final electron number for spin 1:    7228.00000000

=================== Penalty functional idempotency correction ==================
 RMS occupancy error at iteration   1:  0.005298 (step -0.4824 Ne1=   7228.0000)
 RMS occupancy error at iteration   2:  0.000097 (step -0.5003 Ne1=   7228.0000)
            Final RMS occupancy error   :  0.000000 (Ne1=   7228.0000)
               Final occupancy bounds   : [  0.0000,  1.0000]
================================================================================

................................................................................
<<<<<<<<<<<<<< LNV (Original version) density kernel optimisation >>>>>>>>>>>>>>
~~~~~~~~~~~~~~~~~~~~~~~~~~~~~~~~~~~~~~~~~~~~~~~~~~~~~~~~~~~~~~~~~~~~~~~~~~~~~~~~
   iter  |      energy (Eh)       | rms gradient |  commutator  |   dE (Eh)
MG BCs: +ve charge blocks (gridpoints):     25095 (   17029476).
MG BCs: -ve charge blocks (gridpoints):      8421 (    1067408).
MG BCs:     Elided blocks (gridpoints):    168819 (  172873741).
MG BCs: Computational effort saved:  99.9824%.
MG BCs: Charge after coarse-graining:           -9.0007260.
MG DL_MG: Calling solver with defect correction order = 8
MG DL_MG: Solver finished
MG Hartree energy from (\int phi*rho dr):              1280.203024
MG Hartree energy from (\int eps (grad phi)^2 dr):     1279.550503
MG Discrepancy due to finite box and discretization:     -0.652521 (  -0.05097%)
MG Correction to account for finite box:                  0.476974
MG Remaining discrepancy, due to discretization:         -0.175547 (  -0.01371%)
      ideal mu1:      -0.749834620028
             Q0:  -11663.186172765796
             G0:      -9.655815743653
   RMS gradient:       0.000475207348
MG BCs: +ve charge blocks (gridpoints):     25153 (   17041376).
MG BCs: -ve charge blocks (gridpoints):      8415 (    1064346).
MG BCs:     Elided blocks (gridpoints):    168761 (  172864903).
MG BCs: Computational effort saved:  99.9824%.
MG BCs: Charge after coarse-graining:           -9.0007226.
MG DL_MG: Calling solver with defect correction order = 8
MG DL_MG: Solver finished
MG Hartree energy from (\int phi*rho dr):              1292.853643
MG Hartree energy from (\int eps (grad phi)^2 dr):     1292.197397
MG Discrepancy due to finite box and discretization:     -0.656246 (  -0.05076%)
MG Correction to account for finite box:                  0.475822
MG Remaining discrepancy, due to discretization:         -0.180424 (  -0.01396%)
     Trial step:       0.680138998386
             Q1:  -11663.081381309079
 Quadratic coef:       6.672088305208
 Linear coef   :      -6.567296848490
           Qmin:  -11664.802210575972
Quadratic minimum step length (  0.334728386100) accepted
    Initial Ne1:    7227.99902877
      Final Ne1:    7228.00000000

=================== Penalty functional idempotency correction ==================
 RMS occupancy error at iteration   1:  0.000361 (step -0.4985 Ne1=   7228.0000)
 RMS occupancy error at iteration   2:  0.000000 (step -0.5000 Ne1=   7228.0000)
            Final RMS occupancy error   :  0.000000 (Ne1=   7228.0000)
               Final occupancy bounds   : [  0.0000,  1.0000]
================================================================================

    1        -1.166318617277E+04     4.7521E-04     4.2991E-04
MG BCs: +ve charge blocks (gridpoints):     25115 (   17035260).
MG BCs: -ve charge blocks (gridpoints):      8411 (    1066003).
MG BCs:     Elided blocks (gridpoints):    168799 (  172869362).
MG BCs: Computational effort saved:  99.9824%.
MG BCs: Charge after coarse-graining:           -9.0007244.
MG DL_MG: Calling solver with defect correction order = 8
MG DL_MG: Solver finished
MG Hartree energy from (\int phi*rho dr):              1285.582469
MG Hartree energy from (\int eps (grad phi)^2 dr):     1284.928214
MG Discrepancy due to finite box and discretization:     -0.654254 (  -0.05089%)
MG Correction to account for finite box:                  0.476372
MG Remaining discrepancy, due to discretization:         -0.177883 (  -0.01384%)
      ideal mu1:      -0.755499948043
             Q0:  -11664.784922839026
             G0:      -0.893751218369
   RMS gradient:       0.000144906732
MG BCs: +ve charge blocks (gridpoints):     25117 (   17034410).
MG BCs: -ve charge blocks (gridpoints):      8416 (    1066898).
MG BCs:     Elided blocks (gridpoints):    168797 (  172869317).
MG BCs: Computational effort saved:  99.9824%.
MG BCs: Charge after coarse-graining:           -9.0007243.
MG DL_MG: Calling solver with defect correction order = 8
MG DL_MG: Solver finished
MG Hartree energy from (\int phi*rho dr):              1286.011306
MG Hartree energy from (\int eps (grad phi)^2 dr):     1285.356880
MG Discrepancy due to finite box and discretization:     -0.654426 (  -0.05089%)
MG Correction to account for finite box:                  0.476240
MG Remaining discrepancy, due to discretization:         -0.178186 (  -0.01386%)
     Trial step:       0.477139213703
             Q1:  -11664.987575582345
 Quadratic coef:       0.223791010259
 Linear coef   :      -0.426443753579
           Qmin:  -11664.988074738152
Quadratic minimum step length (  0.454605028673) accepted
    Initial Ne1:    7227.99987733
      Final Ne1:    7228.00000000

=================== Penalty functional idempotency correction ==================
 RMS occupancy error at iteration   1:  0.000142 (step -0.4993 Ne1=   7228.0000)
            Final RMS occupancy error   :  0.000000 (Ne1=   7228.0000)
               Final occupancy bounds   : [ -0.0000,  1.0000]
================================================================================

    2        -1.166478492284E+04     1.4491E-04     1.3109E-04    -1.5988E+00
MG BCs: +ve charge blocks (gridpoints):     25117 (   17034444).
MG BCs: -ve charge blocks (gridpoints):      8415 (    1066863).
MG BCs:     Elided blocks (gridpoints):    168797 (  172869318).
MG BCs: Computational effort saved:  99.9824%.
MG BCs: Charge after coarse-graining:           -9.0007243.
MG DL_MG: Calling solver with defect correction order = 8
MG DL_MG: Solver finished
MG Hartree energy from (\int phi*rho dr):              1285.991348
MG Hartree energy from (\int eps (grad phi)^2 dr):     1285.336931
MG Discrepancy due to finite box and discretization:     -0.654418 (  -0.05089%)
MG Correction to account for finite box:                  0.476246
MG Remaining discrepancy, due to discretization:         -0.178171 (  -0.01385%)
      ideal mu1:      -0.755884817818
             Q0:  -11664.988463714370
             G0:      -0.179909974237
   RMS gradient:       0.000064801662
MG BCs: +ve charge blocks (gridpoints):     25119 (   17033682).
MG BCs: -ve charge blocks (gridpoints):      8418 (    1067291).
MG BCs:     Elided blocks (gridpoints):    168795 (  172869652).
MG BCs: Computational effort saved:  99.9824%.
MG BCs: Charge after coarse-graining:           -9.0007243.
MG DL_MG: Calling solver with defect correction order = 8
MG DL_MG: Solver finished
MG Hartree energy from (\int phi*rho dr):              1285.315878
MG Hartree energy from (\int eps (grad phi)^2 dr):     1284.661605
MG Discrepancy due to finite box and discretization:     -0.654272 (  -0.05090%)
MG Correction to account for finite box:                  0.476159
MG Remaining discrepancy, due to discretization:         -0.178113 (  -0.01386%)
     Trial step:       0.465735854242
             Q1:  -11665.042543434422
 Quadratic coef:       0.029710805486
 Linear coef   :      -0.083790525538
           Qmin:  -11665.047540303302
Quadratic minimum step length (  0.656735005178) accepted
    Initial Ne1:    7228.00129341
      Final Ne1:    7228.00000000

=================== Penalty functional idempotency correction ==================
 RMS occupancy error at iteration   1:  0.000121 (step -0.4963 Ne1=   7228.0000)
 RMS occupancy error at iteration   2:  0.000001 (step -0.5000 Ne1=   7228.0000)
            Final RMS occupancy error   :  0.000000 (Ne1=   7228.0000)
               Final occupancy bounds   : [  0.0000,  1.0000]
================================================================================

    3        -1.166498846371E+04     6.4802E-05     5.8624E-05    -2.0354E-01
MG BCs: +ve charge blocks (gridpoints):     25117 (   17033307).
MG BCs: -ve charge blocks (gridpoints):      8420 (    1067467).
MG BCs:     Elided blocks (gridpoints):    168797 (  172869851).
MG BCs: Computational effort saved:  99.9824%.
MG BCs: Charge after coarse-graining:           -9.0007244.
MG DL_MG: Calling solver with defect correction order = 8
MG DL_MG: Solver finished
MG Hartree energy from (\int phi*rho dr):              1285.038376
MG Hartree energy from (\int eps (grad phi)^2 dr):     1284.384163
MG Discrepancy due to finite box and discretization:     -0.654212 (  -0.05091%)
MG Correction to account for finite box:                  0.476123
MG Remaining discrepancy, due to discretization:         -0.178090 (  -0.01386%)
      ideal mu1:      -0.754834211833
             Q0:  -11665.047639667639
             G0:      -0.054359361984
   RMS gradient:       0.000035605778
MG BCs: +ve charge blocks (gridpoints):     25117 (   17033187).
MG BCs: -ve charge blocks (gridpoints):      8420 (    1067500).
MG BCs:     Elided blocks (gridpoints):    168797 (  172869938).
MG BCs: Computational effort saved:  99.9824%.
MG BCs: Charge after coarse-graining:           -9.0007244.
MG DL_MG: Calling solver with defect correction order = 8
MG DL_MG: Solver finished
MG Hartree energy from (\int phi*rho dr):              1285.084343
MG Hartree energy from (\int eps (grad phi)^2 dr):     1284.430276
MG Discrepancy due to finite box and discretization:     -0.654067 (  -0.05090%)
MG Correction to account for finite box:                  0.476068
MG Remaining discrepancy, due to discretization:         -0.177999 (  -0.01385%)
     Trial step:       0.553050665534
             Q1:  -11665.067398667801
 Quadratic coef:       0.010304481160
 Linear coef   :      -0.030063481323
           Qmin:  -11665.069567334234
Quadratic minimum step length (  0.806766885949) accepted
    Initial Ne1:    7228.00047962
      Final Ne1:    7228.00000000

=================== Penalty functional idempotency correction ==================
 RMS occupancy error at iteration   1:  0.000193 (step -0.4891 Ne1=   7228.0000)
 RMS occupancy error at iteration   2:  0.000001 (step -0.5000 Ne1=   7228.0000)
            Final RMS occupancy error   :  0.000000 (Ne1=   7228.0000)
               Final occupancy bounds   : [  0.0000,  1.0000]
================================================================================

    4        -1.166504763967E+04     3.5606E-05     3.2212E-05    -5.9176E-02
MG BCs: +ve charge blocks (gridpoints):     25118 (   17033098).
MG BCs: -ve charge blocks (gridpoints):      8421 (    1067511).
MG BCs:     Elided blocks (gridpoints):    168796 (  172870016).
MG BCs: Computational effort saved:  99.9824%.
MG BCs: Charge after coarse-graining:           -9.0007244.
MG DL_MG: Calling solver with defect correction order = 8
MG DL_MG: Solver finished
MG Hartree energy from (\int phi*rho dr):              1285.106103
MG Hartree energy from (\int eps (grad phi)^2 dr):     1284.452106
MG Discrepancy due to finite box and discretization:     -0.653997 (  -0.05089%)
MG Correction to account for finite box:                  0.476040
MG Remaining discrepancy, due to discretization:         -0.177958 (  -0.01385%)
      ideal mu1:      -0.755128350704
             Q0:  -11665.069527238375
             G0:      -0.051141748013
   RMS gradient:       0.000034599734
MG BCs: +ve charge blocks (gridpoints):     25121 (   17034196).
MG BCs: -ve charge blocks (gridpoints):      8420 (    1067116).
MG BCs:     Elided blocks (gridpoints):    168793 (  172869313).
MG BCs: Computational effort saved:  99.9824%.
MG BCs: Charge after coarse-graining:           -9.0007242.
MG DL_MG: Calling solver with defect correction order = 8
MG DL_MG: Solver finished
MG Hartree energy from (\int phi*rho dr):              1285.791911
MG Hartree energy from (\int eps (grad phi)^2 dr):     1285.138128
MG Discrepancy due to finite box and discretization:     -0.653783 (  -0.05085%)
MG Correction to account for finite box:                  0.475866
MG Remaining discrepancy, due to discretization:         -0.177916 (  -0.01384%)
     Trial step:       0.667969283129
             Q1:  -11665.090953445178
 Quadratic coef:       0.012734909955
 Linear coef   :      -0.034161116758
           Qmin:  -11665.092436350067
Quadratic minimum step length (  0.895906478840) accepted
    Initial Ne1:    7228.00050272
      Final Ne1:    7228.00000000

=================== Penalty functional idempotency correction ==================
 RMS occupancy error at iteration   1:  0.000728 (step -0.4587 Ne1=   7228.0000)
 RMS occupancy error at iteration   2:  0.000010 (step -0.4998 Ne1=   7228.0000)
            Final RMS occupancy error   :  0.000000 (Ne1=   7228.0000)
               Final occupancy bounds   : [  0.0000,  1.0000]
================================================================================

    5        -1.166506952724E+04     3.4600E-05     3.1302E-05    -2.1888E-02
MG BCs: +ve charge blocks (gridpoints):     25122 (   17034555).
MG BCs: -ve charge blocks (gridpoints):      8420 (    1066973).
MG BCs:     Elided blocks (gridpoints):    168792 (  172869097).
MG BCs: Computational effort saved:  99.9824%.
MG BCs: Charge after coarse-graining:           -9.0007241.
MG DL_MG: Calling solver with defect correction order = 8
MG DL_MG: Solver finished
MG Hartree energy from (\int phi*rho dr):              1286.027488
MG Hartree energy from (\int eps (grad phi)^2 dr):     1285.373780
MG Discrepancy due to finite box and discretization:     -0.653708 (  -0.05083%)
MG Correction to account for finite box:                  0.475805
MG Remaining discrepancy, due to discretization:         -0.177902 (  -0.01383%)
      ideal mu1:      -0.756108841531
             Q0:  -11665.092271911097
             G0:      -0.056601829502
   RMS gradient:       0.000036273429
MG BCs: +ve charge blocks (gridpoints):     25121 (   17034469).
MG BCs: -ve charge blocks (gridpoints):      8421 (    1067138).
MG BCs:     Elided blocks (gridpoints):    168793 (  172869018).
MG BCs: Computational effort saved:  99.9824%.
MG BCs: Charge after coarse-graining:           -9.0007241.
MG DL_MG: Calling solver with defect correction order = 8
MG DL_MG: Solver finished
MG Hartree energy from (\int phi*rho dr):              1285.764170
MG Hartree energy from (\int eps (grad phi)^2 dr):     1285.110827
MG Discrepancy due to finite box and discretization:     -0.653343 (  -0.05081%)
MG Correction to account for finite box:                  0.475440
MG Remaining discrepancy, due to discretization:         -0.177903 (  -0.01384%)
     Trial step:       0.773587750951
             Q1:  -11665.120343697490
 Quadratic coef:       0.015714695590
 Linear coef   :      -0.043786481984
           Qmin:  -11665.122772915611
Quadratic minimum step length (  1.077739174979) accepted
    Initial Ne1:    7228.00070676
      Final Ne1:    7228.00000000

=================== Penalty functional idempotency correction ==================
 RMS occupancy error at iteration   1:  0.002643 (step -0.3775 Ne1=   7228.0000)
 RMS occupancy error at iteration   2:  0.000097 (step -0.4971 Ne1=   7228.0000)
 RMS occupancy error at iteration   3:  0.000001 (step -0.5000 Ne1=   7228.0000)
            Final RMS occupancy error   :  0.000000 (Ne1=   7228.0000)
               Final occupancy bounds   : [  0.0000,  1.0000]
================================================================================

    6        -1.166509227191E+04     3.6273E-05     3.2816E-05    -2.2745E-02
MG BCs: +ve charge blocks (gridpoints):     25120 (   17034419).
MG BCs: -ve charge blocks (gridpoints):      8420 (    1067227).
MG BCs:     Elided blocks (gridpoints):    168794 (  172868979).
MG BCs: Computational effort saved:  99.9824%.
MG BCs: Charge after coarse-graining:           -9.0007241.
MG DL_MG: Calling solver with defect correction order = 8
MG DL_MG: Solver finished
MG Hartree energy from (\int phi*rho dr):              1285.665565
MG Hartree energy from (\int eps (grad phi)^2 dr):     1285.012327
MG Discrepancy due to finite box and discretization:     -0.653239 (  -0.05081%)
MG Correction to account for finite box:                  0.475335
MG Remaining discrepancy, due to discretization:         -0.177903 (  -0.01384%)
      ideal mu1:      -0.756084317999
             Q0:  -11665.123256369261
             G0:      -0.066069101279
   RMS gradient:       0.000039308626
MG BCs: +ve charge blocks (gridpoints):     25120 (   17032934).
MG BCs: -ve charge blocks (gridpoints):      8422 (    1067567).
MG BCs:     Elided blocks (gridpoints):    168794 (  172870124).
MG BCs: Computational effort saved:  99.9824%.
MG BCs: Charge after coarse-graining:           -9.0007244.
MG DL_MG: Calling solver with defect correction order = 8
MG DL_MG: Solver finished
MG Hartree energy from (\int phi*rho dr):              1285.014638
MG Hartree energy from (\int eps (grad phi)^2 dr):     1284.361358
MG Discrepancy due to finite box and discretization:     -0.653280 (  -0.05084%)
MG Correction to account for finite box:                  0.475343
MG Remaining discrepancy, due to discretization:         -0.177937 (  -0.01385%)
     Trial step:       0.913085880125
             Q1:  -11665.140602394356
 Quadratic coef:       0.042980738395
 Linear coef   :      -0.060326763491
           Qmin:  -11665.144424679353
Quadratic minimum step length (  0.640793038856) accepted
    Initial Ne1:    7227.99999986
      Final Ne1:    7228.00000000

=================== Penalty functional idempotency correction ==================
 RMS occupancy error at iteration   1:  0.000037 (step -0.4979 Ne1=   7228.0000)
            Final RMS occupancy error   :  0.000000 (Ne1=   7228.0000)
               Final occupancy bounds   : [ -0.0000,  1.0000]
================================================================================

    7        -1.166512325637E+04     3.9309E-05     3.5562E-05    -3.0984E-02
MG BCs: +ve charge blocks (gridpoints):     25119 (   17033368).
MG BCs: -ve charge blocks (gridpoints):      8422 (    1067469).
MG BCs:     Elided blocks (gridpoints):    168795 (  172869788).
MG BCs: Computational effort saved:  99.9824%.
MG BCs: Charge after coarse-graining:           -9.0007243.
MG DL_MG: Calling solver with defect correction order = 8
MG DL_MG: Solver finished
MG Hartree energy from (\int phi*rho dr):              1285.207366
MG Hartree energy from (\int eps (grad phi)^2 dr):     1284.554097
MG Discrepancy due to finite box and discretization:     -0.653269 (  -0.05083%)
MG Correction to account for finite box:                  0.475342
MG Remaining discrepancy, due to discretization:         -0.177927 (  -0.01384%)
      ideal mu1:      -0.755458092956
             Q0:  -11665.144442034070
             G0:      -0.051104506826
   RMS gradient:       0.000034563434
MG BCs: +ve charge blocks (gridpoints):     25119 (   17033440).
MG BCs: -ve charge blocks (gridpoints):      8419 (    1067398).
MG BCs:     Elided blocks (gridpoints):    168795 (  172869787).
MG BCs: Computational effort saved:  99.9824%.
MG BCs: Charge after coarse-graining:           -9.0007243.
MG DL_MG: Calling solver with defect correction order = 8
MG DL_MG: Solver finished
MG Hartree energy from (\int phi*rho dr):              1285.097643
MG Hartree energy from (\int eps (grad phi)^2 dr):     1284.444470
MG Discrepancy due to finite box and discretization:     -0.653172 (  -0.05083%)
MG Correction to account for finite box:                  0.475189
MG Remaining discrepancy, due to discretization:         -0.177983 (  -0.01385%)
     Trial step:       0.764917692214
             Q1:  -11665.168207908981
[...]
 RMS occupancy error at iteration   1:  0.000000 (step -0.5000 Ne1=   7228.0000)
            Final RMS occupancy error   :  0.000000 (Ne1=   7228.0000)
               Final occupancy bounds   : [  0.0000,  1.0000]
================================================================================

    7        -1.170150377492E+04     3.0980E-09     2.8027E-09     1.1642E-10

Reusing previously generated solute cavity.
MG BCs: +ve charge blocks (gridpoints):     29249 (   19147635).
MG BCs: -ve charge blocks (gridpoints):      8430 (    1044649).
MG BCs:     Elided blocks (gridpoints):    164665 (  170778341).
MG BCs: Computational effort saved:  99.9803%.
MG BCs: Charge after coarse-graining:           -9.0009722.
MG DL_MG: Calling solver with defect correction order = 8
MG DL_MG: Solver finished
MG Hartree energy from (\int phi*rho dr):              1236.497424
MG Hartree energy from (\int eps (grad phi)^2 dr):     1236.313314
MG Discrepancy due to finite box and discretization:     -0.184110 (  -0.01489%)
MG Correction to account for finite box:                  0.006437
MG Remaining discrepancy, due to discretization:         -0.177673 (  -0.01437%)
      ideal mu1:      -0.514534228690
             Q0:  -11701.503774917801
             G0:      -0.000000000638
   RMS gradient:       0.000000002800

Reusing previously generated solute cavity.
MG BCs: +ve charge blocks (gridpoints):     29249 (   19147634).
MG BCs: -ve charge blocks (gridpoints):      8430 (    1044649).
MG BCs:     Elided blocks (gridpoints):    164665 (  170778342).
MG BCs: Computational effort saved:  99.9803%.
MG BCs: Charge after coarse-graining:           -9.0009722.
MG DL_MG: Calling solver with defect correction order = 8
MG DL_MG: Solver finished
MG Hartree energy from (\int phi*rho dr):              1236.497427
MG Hartree energy from (\int eps (grad phi)^2 dr):     1236.313316
MG Discrepancy due to finite box and discretization:     -0.184110 (  -0.01489%)
MG Correction to account for finite box:                  0.006437
MG Remaining discrepancy, due to discretization:         -0.177673 (  -0.01437%)
     Trial step:       0.126889861243
             Q1:  -11701.503774917684
 Quadratic coef:       0.000000000196
 Linear coef   :      -0.000000000081
           Qmin:  -11701.503774917810
Quadratic minimum step length (  0.026135582045) accepted
    Initial Ne1:    7228.00000000
      Final Ne1:    7228.00000000

=================== Penalty functional idempotency correction ==================
 RMS occupancy error at iteration   1:  0.000000 (step -0.5000 Ne1=   7228.0000)
            Final RMS occupancy error   :  0.000000 (Ne1=   7228.0000)
               Final occupancy bounds   : [  0.0000,  1.0000]
================================================================================

    8        -1.170150377492E+04     2.8003E-09     2.5334E-09     0.0000E+00

Reusing previously generated solute cavity.
MG BCs: +ve charge blocks (gridpoints):     29249 (   19147634).
MG BCs: -ve charge blocks (gridpoints):      8430 (    1044649).
MG BCs:     Elided blocks (gridpoints):    164665 (  170778342).
MG BCs: Computational effort saved:  99.9803%.
MG BCs: Charge after coarse-graining:           -9.0009722.
MG DL_MG: Calling solver with defect correction order = 8
MG DL_MG: Solver finished
MG Hartree energy from (\int phi*rho dr):              1236.497425
MG Hartree energy from (\int eps (grad phi)^2 dr):     1236.313314
MG Discrepancy due to finite box and discretization:     -0.184110 (  -0.01489%)
MG Correction to account for finite box:                  0.006437
MG Remaining discrepancy, due to discretization:         -0.177673 (  -0.01437%)
      ideal mu1:      -0.514534228325
             Q0:  -11701.503774917801
             G0:      -0.000000000795
   RMS gradient:       0.000000002596

Reusing previously generated solute cavity.
MG BCs: +ve charge blocks (gridpoints):     29249 (   19147634).
MG BCs: -ve charge blocks (gridpoints):      8430 (    1044649).
MG BCs:     Elided blocks (gridpoints):    164665 (  170778342).
MG BCs: Computational effort saved:  99.9803%.
MG BCs: Charge after coarse-graining:           -9.0009722.
MG DL_MG: Calling solver with defect correction order = 8
MG DL_MG: Solver finished
MG Hartree energy from (\int phi*rho dr):              1236.497426
MG Hartree energy from (\int eps (grad phi)^2 dr):     1236.313316
MG Discrepancy due to finite box and discretization:     -0.184110 (  -0.01489%)
MG Correction to account for finite box:                  0.006437
MG Remaining discrepancy, due to discretization:         -0.177673 (  -0.01437%)
     Trial step:       0.057587675584
             Q1:  -11701.503774917684
 Quadratic coef:       0.000000000162
 Linear coef   :      -0.000000000046
           Qmin:  -11701.503774917805
Quadratic minimum step length (  0.008140119639) accepted
    Initial Ne1:    7228.00000000
      Final Ne1:    7228.00000000

=================== Penalty functional idempotency correction ==================
 RMS occupancy error at iteration   1:  0.000000 (step -0.5000 Ne1=   7228.0000)
            Final RMS occupancy error   :  0.000000 (Ne1=   7228.0000)
               Final occupancy bounds   : [ -0.0000,  1.0000]
================================================================================

    9        -1.170150377492E+04     2.5959E-09     2.3484E-09     0.0000E+00

Reusing previously generated solute cavity.
MG BCs: +ve charge blocks (gridpoints):     29249 (   19147634).
MG BCs: -ve charge blocks (gridpoints):      8430 (    1044649).
MG BCs:     Elided blocks (gridpoints):    164665 (  170778342).
MG BCs: Computational effort saved:  99.9803%.
MG BCs: Charge after coarse-graining:           -9.0009722.
MG DL_MG: Calling solver with defect correction order = 8
MG DL_MG: Solver finished
MG Hartree energy from (\int phi*rho dr):              1236.497425
MG Hartree energy from (\int eps (grad phi)^2 dr):     1236.313314
MG Discrepancy due to finite box and discretization:     -0.184110 (  -0.01489%)
MG Correction to account for finite box:                  0.006437
MG Remaining discrepancy, due to discretization:         -0.177673 (  -0.01437%)
      ideal mu1:      -0.514534228170
   10        -1.170150377492E+04     2.5135E-09     2.2739E-09     1.1642E-10
Finished density kernel iterations (  10)

Writing density kernel to file "complex_24801.dkn" ... done


>>> Density kernel optimised for the current NGWF basis:
     ~~~~~~~~~~~~~~~~~~~~~~~~~~~~~~~~~~~~~~~~~~~~~~~~~~~~~~~~~~~
     Total energy                =  -1.17015037749177E+04  Eh
     Estimated bandgap           =   1.1953E-01  Eh
     RMS occupancy error         =   2.4605E-16
     [H,K] commutator            =   2.2739E-09
     Occupancy bounds            = [  0.000:  1.000]
     ~~~~~~~~~~~~~~~~~~~~~~~~~~~~~~~~~~~~~~~~~~~~~~~~~~~~~~~~~~~




################################################################################
########################### NGWF CG iteration  005 #############################
################################################################################
****** Reciprocal space K.E. preconditioning with k_zero =  3.5000 a0^-1 *******

>>> Checking for convergence of NGWFs: 
           ........................................................
           |         *** NGWF optimisation converged ***          |
           | RMS NGWF gradient =    0.00000102935507              |
           | Criteria satisfied:                                  |
           | -> RMS NGWF gradient lower than set threshold.       |
           ========================================================

Reusing previously generated solute cavity.
MG BCs: +ve charge blocks (gridpoints):     29249 (   19147634).
MG BCs: -ve charge blocks (gridpoints):      8430 (    1044649).
MG BCs:     Elided blocks (gridpoints):    164665 (  170778342).
MG BCs: Computational effort saved:  99.9803%.
MG BCs: Charge after coarse-graining:           -9.0009722.
MG DL_MG: Calling solver with defect correction order = 8
MG DL_MG: Solver finished
MG Hartree energy from (\int phi*rho dr):              1236.497425
MG Hartree energy from (\int eps (grad phi)^2 dr):     1236.313314
MG Discrepancy due to finite box and discretization:     -0.184110 (  -0.01489%)
MG Correction to account for finite box:                  0.006437
MG Remaining discrepancy, due to discretization:         -0.177673 (  -0.01437%)

================================================================================
           ---------------- ENERGY COMPONENTS (Eh) ----------------
           | Kinetic                    :     8446.49568122817618 |
           | Pseudo. (local,OBC,corr'd) :    -5010.69589824989362 |
           | Pseudopotential (non-local):     1453.10645129616205 |
           | Hartree (molecular)        :     1236.49742484653348 |
           | Exchange-correlation       :    -3349.85643345094422 |
           | Ion-ion (open BC)          :   837125.83410108520184 |
           | Smeared ion non-self corr. :  -837077.53657780331559 |
           | Smeared ion self corr.     :   -14525.98710726666832 |
           | Solvent cavitation energy  :        2.27193239165438 |
           | Solute-solvent dis-rep en. :       -1.63334899467013 |
           | Total                      :   -11701.50377491772815 |
           --------------------------------------------------------
           ------ LOCAL ENERGY COMPONENTS FROM MATRIX TRACES ------
           | Pseudopotential (local)    :    -5010.69589824987270 |
           | Hartree                    :    -1996.97400352194677 |
           --------------------------------------------------------
           Integrated density           :     7227.99999999839292
           Integrated density tr(KS)    :     7228.00000000000000
================================================================================


                        <<<<< CALCULATION SUMMARY >>>>>                         
|ITER|    RMS GRADIENT   |     TOTAL ENERGY    |   step   |     Epredicted              
   0     0.00003712953917 -11701.45823988632765   0.517436 -11701.49739509891151        
   1     0.00001251266311 -11701.50261360965669   0.113774 -11701.50359138266504        
   2     0.00000540558424 -11701.50373755372129   0.019707 -11701.50376916177993        
   3     0.00000236233052 -11701.50377354398370   0.003822 -11701.50377471468528        
   4     0.00000102935507 -11701.50377491768450  <-- CG                                 

=================== Finished the calculation in solvent ========================
= Adjusting the following parameters: 
= read_denskern: F
= read_tightbox_ngwfs: F
= maxit_pen: 0 (restored to user-specified value)
= restart read filename prefix: ""
= restart write filename prefix: ""
================================================================================

================================================================================
IS: Calculation in solvent completed (NGWFs converged).      

Individual components of total energy in solvent:     hartree           kcal/mol
- Usual non-electrostatic DFT terms:    -12938.63978316120119    -8119118.869278
- Electrostatic fixed charge energy:      1236.49742484653348      775913.831912
- Apolar cavitation energy:                  2.27193239165438        1425.659069
- Apolar dispersion-repulsion energy:       -1.63334899467013       -1024.941946
 -------------------------------------------------------------------------------
- Total energy in solvent:              -11701.50377491768450    -7342804.320243

Components of total energy in solvent:                hartree           kcal/mol
- Usual non-electrostatic DFT terms:    -12938.63978316120119    -8119118.869278
- Electrostatic energy:                   1236.49742484653348      775913.831912
- Apolar energy terms:                       0.63858339698426         400.717123
 -------------------------------------------------------------------------------
- Total energy in solvent:              -11701.50377491768450    -7342804.320243

Calculation of free energy of solvation:              hartree           kcal/mol
- Total energy in solvent:         (+)  -11701.50377491768450    -7342804.320243
- Total energy in vacuum:          (-)  -11697.67629833996762    -7340402.542481
 -------------------------------------------------------------------------------
- Total free energy of solvation:           -3.82747657771688       -2401.777762

Components of polar term in f.e. of solvation:        hartree           kcal/mol
- Electrostatic:                            -4.82229208136687       -3026.033902
- Change in nonelectrostatic DFT terms:      0.35623210666745         223.539017
 -------------------------------------------------------------------------------
- Polar term in f.e. of solvation:          -4.46605997469942       -2802.494885

Components of free energy of solvation:               hartree           kcal/mol
- Polar term in f.e. of solvation: (+)      -4.46605997469942       -2802.494885
- Apolar (cavitation, dis., rep.): (+)       0.63858339698426         400.717123
 -------------------------------------------------------------------------------
- Total free energy of solvation:           -3.82747657771516       -2401.777762
================================================================================


------------------------------ TIMING INFORMATION ------------------------------
AVERAGE TIME:   71505.922s on     40 node(s)                                    
TOTAL TIME:     71505.924s on     40 node(s)                                    
================= AVERAGE TIMINGS FROM ALL NODES (CUMULATIVE) ==================
|| TAG                                    #calls    cpu time   %total  Gflops ||
|| work_imbalance                       :     1        0.00s   0.000%  ------ ||
|| parallel_prepare_fd_halos_request    :  2067        0.02s   0.000%  ------ ||
|| parallel_prepare_fd_halos_alloc      :  2067        0.04s   0.000%  ------ ||
|| sparse_set_to_garbage                :   218        0.05s   0.000%  ------ ||
|| parallel_prepare_fd_halos_satisfy    :  2067        0.06s   0.000%  ------ ||
|| ngwfs_initialise_from_radial         :     1        0.17s   0.000%  ------ ||
|| basis_extract_function_from_box      :  5721        0.22s   0.000%  ------ ||
|| restart_ngwfs_tightbox_input         :     1        0.93s   0.001%  ------ ||
|| pseudopotentials_nonlocal_mat        :    32        1.17s   0.002%  ------ ||
|| parallel_prepare_fd_halos_comms_imbal:  2067        3.09s   0.004%  ------ ||
|| density_init_guess_real              :     1        3.82s   0.005%  ------ ||
|| openbc_locps_radial                  :     1        4.40s   0.006%  ------ ||
|| restart_kernel_read                  :     1        4.50s   0.006%  ------ ||
|| parallel_prepare_fd_halos_clear      :  2067       14.64s   0.020%  ------ ||
|| restart_kernel_write                 :    18       15.27s   0.021%  ------ ||
|| sparse_init                          :     2       22.65s   0.032%  ------ ||
|| projectors_func_ovlp_box             :    32       25.29s   0.035%  ------ ||
|| parallel_prepare_fd_halos_comms_wait :  2067       25.58s   0.036%  ------ ||
|| function_ops_brappd_ketppd           :    32       29.17s   0.041%  ------ ||
|| projectors_init_fftbox_recip         :   219       29.46s   0.041%  ------ ||
|| palser_mano_kernel_optimise          :     1       41.22s   0.058%  ------ ||
|| parallel_prepare_fd_halos            :  2067       43.44s   0.061%  ------ ||
|| pseudo_make_structure_factor         :     2       53.28s   0.075%  ------ ||
|| ngwf_gradient_coeffs                 :    17       68.77s   0.096%  ------ ||
|| restart_ngwfs_tightbox_output        :    15       71.49s   0.100%  ------ ||
|| sparse_embed_hotelling_invert_embed  :    32      101.15s   0.141%  ------ ||
|| finite_difference_derivative         :  2067      110.24s   0.154%  ------ ||
|| basis_copy_function_to_box           : 176.9k     124.47s   0.174%  ------ ||
|| openbc_locps_on_grid                 :     2      182.19s   0.255%  ------ ||
|| integrals_kinetic                    :    32      194.52s   0.272%  ------ ||
|| projectors_gradient_batch            :   187      229.65s   0.321%  ------ ||
|| sparse_trace                         :  5593      286.21s   0.400%  ------ ||
|| fourier_apply_box_pair               : 49912      345.28s   0.483% 594.252 ||
|| kernel_purify                        :   526      377.39s   0.528%  ------ ||
|| basis_dot_function_with_box          : 20.34M     396.25s   0.554%  ------ ||
|| lnv_gradient_norm                    :   170      612.31s   0.856%  ------ ||
|| kernel_fix                           :   170      677.05s   0.947%  ------ ||
|| hamiltonian_energy_components        :     4      741.93s   1.038%  ------ ||
|| integrals_locpot_mat_els_batch       :  1969     1000.56s   1.399%  ------ ||
|| basis_add_function_to_box            : 54.40M    1007.77s   1.409%  ------ ||
|| ke_density_batch_grad_apply          :  3773     1142.09s   1.597%  ------ ||
|| ke_density_batch_row_sums            :  3773     1327.33s   1.856%  ------ ||
|| density_batch_row_sums               :  3773     1331.97s   1.863%  ------ ||
|| fourier_apply_cell_backward          :  9268     1497.33s   2.094%  83.122 ||
|| fourier_apply_cell_forward           :  9266     1737.54s   2.430%  71.615 ||
|| density_fftbox_deposit_to_cell       : 56252     1738.10s   2.431%  ------ ||
|| ke_density_fftbox_deposit_to_cell    : 56252     1810.82s   2.532%  ------ ||
|| cell_grid_deposit_box_real           : 114.6k    2053.79s   2.872%  ------ ||
|| cell_grid_extract_box_real           : 140.2k    2330.02s   3.258%  ------ ||
|| sparse_product                       :  7051     2331.33s   3.260%  ------ ||
|| multigrid_prepare_bound_cond         :   344     2534.02s   3.544%  ------ ||
|| ngwf_gradient_build_batch            :   187     2690.51s   3.763%  ------ ||
|| ngwf_gradient_batch                  :   187     3011.70s   4.212%  ------ ||
|| ngwf_gradient_lnv                    :    17     3205.85s   4.483%  ------ ||
|| potential_apply_to_ngwf_batch        :  1969     3678.36s   5.144%  ------ ||
|| density_fftbox_interpolate_multiply  : 56252     4132.98s   5.780%  ------ ||
|| xc_energy_potential                  :   344     4365.69s   6.105%  ------ ||
|| integrals_locpot_dbl_grid            :   179     4704.32s   6.579%  ------ ||
|| density_batch_interp_deposit         :  3773     6569.93s   9.188%  ------ ||
|| dl_mg_solver_calls                   :   344     6792.73s   9.500%  ------ ||
|| nlxc_vdw_energy                      :   686     7262.74s  10.157%  ------ ||
|| density_on_dbl_grid                  :   343     8406.68s  11.757%  ------ ||
|| multigrid_calculate_hartree          :   344     9490.07s  13.272%  ------ ||
|| potential_apply_to_fftbox_batch      :  5610     9891.63s  13.833%  ------ ||
|| integrals_div_locpot_grad_functions  :   170    14816.59s  20.721%  ------ ||
|| ke_density_fftbox_interpolate_multipl: 56252    16556.25s  23.154%  ------ ||
|| ke_density_batch_interp_deposit      :  3773    19093.55s  26.702%  ------ ||
|| fourier_apply_box                    : 1.276M   21525.04s  30.102% 806.898 ||
|| ke_density_on_dbl_grid               :   343    22111.11s  30.922%  ------ ||
|| hamiltonian_lhxc_calculate           :   339    44393.64s  62.084%  ------ ||
|| lnv_denskernel_optimise_cg           :    17    64230.06s  89.825%  ------ ||
|| ngwf_cg_optimise                     :     2    70728.41s  98.913%  ------ ||
|| total_time                           :     1    71505.92s 100.000%  ------ ||
================================================================================
Overhead of generating timer report: 
- 0 ms averaging over threads,
- 7 ms ensuring consistency across MPI ranks,
- 2 ms printing in order.

Job completed: 12-01-2020 09:47 (-0000)

