 +---------------------------------------------------------------+
 |                                                               |
 |        ####### #     # ####### ####### ####### ######         |
 |        #     # ##    # #          #    #       #     #        |
 |        #     # # #   # #          #    #       #     #        |
 |        #     # #  #  # #####      #    #####   ######         |
 |        #     # #   # # #          #    #       #              |
 |        #     # #    ## #          #    #       #              |
 |        ####### #     # #######    #    ####### #              |
 |                                                               |
 |        Linear-Scaling Ab Initio Total Energy Program          |
 |                                                               |
 |          Release for academic collaborators of ODG            |
 |                                             Version 5.3.2.6.  |
 |                                                               |
 +---------------------------------------------------------------+
 |                                                               |
 |  Authors:                                                     |
 |  Jacek Dziedzic, Peter D. Haynes, Nicholas D. M. Hine,        |
 |  Arash. A. Mostofi, Mike C. Payne and Chris-Kriton Skylaris   |
 |                                                               |
 |  Contributors:                                                |
 |  J. Aarons, L. Andrinopoulos, P. W. Avraam, R. A. Bell,       |
 |  A. Bhandari, G. A. Bramley, R. J. Charlton, S. J. Clark,     |
 |  R. J. Clements, G. C. Constantinescu, F. Corsetti,           |
 |  N. Corsini, O. Dieguez, S. M. M. Dubois, K. K. B. Duff,      |
 |  J. M. Escartin, A. Greco, H. Helal, Q. O. Hill, L. P. Lee,   |
 |  J.-H. Li, E. B. Linscott, G. Moynihan, D. D. O`Regan,        |
 |  O. K. Okan, M. J. S. Phipps, C. J. Pickard,                  |
 |  J. C. A. Prentice, M. I. J. Probert, L. E. Ratcliff,         |
 |  M. Robinson, A. Ruiz Serrano, J. S. Spencer, E. W. Tait,     |
 |  G. Teobaldi, D. Turban, V. Vitale, K. A. Wilkinson,          |
 |  C. Weber, J. C. Womack, N. Yeung and T. J. Zuehlsdorff       |
 |                                                               |
 |                                   Copyright (c) 2004-2019     |
 |                                                               |
 |  Please cite:                                                 |
 |  "Introducing ONETEP: Linear-scaling density functional       |
 |   simulations on parallel computers".                         |
 |   C.-K. Skylaris, P. D. Haynes, A. A. Mostofi, M. C. Payne.   |
 |   J. Chem. Phys. 122 084119 (2005).                           |
 |                                                               |
 |          in all publications arising from your use of ONETEP. |
 |                                                               |
 +---------------------------------------------------------------+
 |                                                               |
 |   ONETEP is based on developments described in the following  |
 |   publications:                                               |
 |                                                               |
 |  "Nonorthogonal generalized Wannier function pseudopotential  |
 |   plane-wave method".                                         |
 |   C.-K. Skylaris, A. A. Mostofi, P. D. Haynes, O. Dieguez,    |
 |   M. C. Payne.                                                |
 |   Phys. Rev. B 66 035119 (2002).                              |
 |                                                               |
 |  "Preconditioned iterative minimization for linear-scaling    |
 |   electronic structure calculations".                         |
 |   A. A. Mostofi, P. D. Haynes, C.-K. Skylaris, M. C. Payne.   |
 |   J. Chem. Phys. 119(17), pp.8842-8848 (2003).                |
 |                                                               |
 |  "Total-energy calculations on a real space grid with         |
 |   localized functions and a plane-wave basis".                |
 |   A. A. Mostofi, C.-K. Skylaris, P. D. Haynes, M. C. Payne.   |
 |   Comput. Phys. Commun. 147, pp.788-802 (2002).               |
 |                                                               |
 |  "Accurate kinetic energy evaluation in electronic structure  |
 |   calculations with localized functions on real space grids"  |
 |   C.-K. Skylaris, A. A. Mostofi, P. D. Haynes, C. J. Pickard, |
 |   M. C. Payne.                                                |
 |   Comput. Phys. Commun. 140, pp.315-322 (2001).               |
 |                                                               |
 |  "Accurate ionic forces and geometry optimization in linear-  |
 |   scaling density-functional theory with local orbitals"      |
 |   N. D. M. Hine, M. Robinson, P. D. Haynes, C.-K. Skylaris,   |
 |   M. C. Payne, and A. A. Mostofi.                             |
 |   Phys. Rev. B 83 195102 (2011).                              |
 |                                                               |
 +---------------------------------------------------------------+

Job started: 31-01-2020 06:38 (-0000)
 
Reading parameters from file "host_8081.dat" ...... done

If your calculation crashes here, before "Checking processes and threads..."
is displayed, then your stack size is insufficient.
If so, use "ulimit -s unlimited" at runtime.
You can disable this check with "check_stack_size F".

Checking processes and threads...
   Determining the default number of threads...
      No default threads set at compilation time: defaulting to 1.
      OpenMP library call suggests 4 threads.
      Hybrid MPI-OpenMP compilation detected.
      Number of MPI processes > 1.
      OMP_NUM_THREADS environment variable present and
      its value matches the one obtained from the OpenMP library call.
      Using this value as default.
      Default threads: 4
      Default applies to threads_max and threads_num_fftboxes.
      Settings in the input file override this default.
   ... done

   Running with 40 MPI processes.
   There are 10 MPI processes running on the same node as the root process.
   Each MPI process is using: 
               1 threads for simulation cell FFTs.
               1 threads for parallel FFT box operations.
               4 threads for loops over batched FFT box operations.
               4 threads in other parallel regions.
... done

Basic input checks...... done

Reading geometry and species blocks from file "host_8081.dat" ...
  <species_atomic_set> block not found: NGWF initialisation set to SOLVE
IS: Dielectric excluded regions:
    - NONE.
    
  Number of PPD points along a3 set to 1.  This is 
  the default value, it may have been provided also in the input file.
... done
 Writing xyz coordinates to file "host_8081.xyz" ... done


--------------------------------------------------------------------------------
---------------------------------- INPUT FILE ----------------------------------
--------------------------------------------------------------------------------

cutoff_energy       : 800 eV                                                    
xc_functional B97M-V                                                            
task SINGLEPOINT                                                                
write_xyz true                                                                  
output_detail VERBOSE                                                           
ngwf_threshold_orig : 0.000002                                                  
kernel_cutoff       : 1000                                                      
k_zero              : 3.5                                                       
elec_cg_max 0                                                                   
occ_mix 1.0                                                                     
dispersion 0                                                                    
maxit_ngwf_cg 40                                                                
minit_lnv 10                                                                    
maxit_lnv 10                                                                    
write_denskern T                                                                
write_tightbox_ngwfs T                                                          
charge 9                                                                        
is_implicit_solvent T                                                           
is_auto_solvation T                                                             
is_include_apolar T                                                             
is_smeared_ion_rep T                                                            
is_solvent_surf_tension 4.7624E-5 Ha/bohr**2                                    
is_apolar_scaling_factor 0.281075                                               
is_solvation_beta 1.3                                                           
is_density_threshold 0.00035                                                    
is_bulk_permittivity 78.54                                                      
is_dielectric_model fix_initial                                                 
is_smeared_ion_width 0.8                                                        
mg_defco_fd_order 8                                                             
is_bc_coarseness 10                                                             
is_bc_surface_coarseness 1                                                      
fine_grid_scale 2.0                                                             
%block species                                                                  
N   N   7 4 8.0                                                                 
H   H   1 1 8.0                                                                 
C   C   6 4 8.0                                                                 
S   S  16 9 8.0                                                                 
O   O   8 4 8.0                                                                 
%endblock species                                                               
%block species_pot                                                              
N   N_00.recpot                                                                 
H   H_04.recpot                                                                 
C   C_01.recpot                                                                 
S   S_00.recpot                                                                 
O   O_02.recpot                                                                 
%endblock species_pot                                                           
%block lattice_cart                                                             
135.996   0.000   0.000                                                         
0.000 142.663   0.000                                                           
0.000   0.000   160.158                                                         
%endblock lattice_cart                                                          
%block positions_abs                                                            
     Hash =  -000005614248177384714988
%endblock positions_abs                                                         

--------------------------------------------------------------------------------
-------------------------------- END INPUT FILE --------------------------------
--------------------------------------------------------------------------------


 
 ESDF WARNING(1): "kernelcutoff" (esdf_physical) has no units. Assume "bohr".
 ESDF WARNING(2): "kzero" (esdf_physical) has no units. Assume "1/bohr".
 ESDF WARNING(3
 ): "issmearedionwidth" (esdf_physical) has no units. Assume "bohr".
<<<<<<<<<<<<<<<<<<<<<<<<<<<<<<<<< Full system >>>>>>>>>>>>>>>>>>>>>>>>>>>>>>>>>>
<<<<<<<<<<<<<<<<<<<<<<<<< Pseudopotential information >>>>>>>>>>>>>>>>>>>>>>>>>>
File: N_00.recpot [ 2001 points up to Gmax=  52.9 (1/bohr)]
  Atomic number:  7;  ionic charge:  5.000000
    Shell 1: l = 0; rc = 1.48 bohr
File: H_04.recpot [ 2001 points up to Gmax=  52.9 (1/bohr)]
  Atomic number:  1;  ionic charge:  1.000000
    Local potential
File: C_01.recpot [ 2001 points up to Gmax=  52.9 (1/bohr)]
  Atomic number:  6;  ionic charge:  4.000000
    Shell 1: l = 0; rc = 1.48 bohr
File: S_00.recpot [ 2001 points up to Gmax=  52.9 (1/bohr)]
  Atomic number: 16;  ionic charge:  6.000000
    Shell 1: l = 0; rc = 1.90 bohr
    Shell 2: l = 2; rc = 1.84 bohr
File: O_02.recpot [ 2001 points up to Gmax=  52.9 (1/bohr)]
  Atomic number:  8;  ionic charge:  6.000000
    Shell 1: l = 0; rc = 1.31 bohr
<<<<<<<<<<<<<<<<<<<<<<<<<<<<<<<<<<<<<<<<>>>>>>>>>>>>>>>>>>>>>>>>>>>>>>>>>>>>>>>>

-------------------------- Atom counting information ---------------------------
Symbol    Natoms    Nngwfs    Nprojs
  N        236       944       236
  H       1311      1311         0
  C        810      3240       810
  S          6        54        36
  O        239       956       239
.......   ......    ......    ......
Totals:   2602      6505      1321
--------------------------------------------------------------------------------

=============================== PSINC grid sizes ===============================
                      Simulation cell:  270 x 286 x 315
                              FFT-box:   99 x 105 x  99
                                  PPD:    5 x  11 x   1
Grid space d1=  0.503688888889a0 (KE cutoff=  29.94189Eh = 814.76038eV)
Grid space d2=  0.498821678322a0 (KE cutoff=  30.52906Eh = 830.73786eV)
Grid space d3=  0.508438095238a0 (KE cutoff=  29.38514Eh = 799.61048eV)
================================================================================

********************* Fourier parallelisation information **********************
       Coarse grid (whole simulation cell) dimensions:    270   286   315
          Real-space ('12') slabs/node (min max mean):      7     8     7
         Recip-space ('23') slabs/node (min max mean):      3     4     3
********************************************************************************

********************* Fourier parallelisation information **********************
       Double grid (whole simulation cell) dimensions:    540   572   630
          Real-space ('12') slabs/node (min max mean):     15    16    15
         Recip-space ('23') slabs/node (min max mean):      6     7     6
********************************************************************************
ONETEP fine grid is 540 x 572 x 630 gridpoints, 135.9960 x 142.6630 x 160.1580 bohr.
FD multigrid is     537 x 569 x 625 gridpoints, 135.2405 x 141.9148 x 158.8869 bohr.


Calculating local pseudopotential in open BC on a radial grid ...
Discrepancy between calculated realspace psloc and -Z/x on [5a0,253.965a0]:
max |rel. diff| # avg |rel. diff| #  avg rel. diff #  f # pseudopotential file
 0.000259282084    0.000004141996   0.000000074978   54  'N_00.recpot'
 0.000405386992    0.000016970607  -0.000000075982   54  'H_04.recpot'
 0.000371694516    0.000017434762   0.000000149329   54  'C_01.recpot'
 0.000461642895    0.000020341726   0.000000491514   54  'S_00.recpot'
 0.000682525123    0.000027368244   0.000000159803   54  'O_02.recpot'
... done
 WARNING: meta-GGA functionality under development.
          Using this functional is experimental.
          Minimum tau threshold, xc_min_tau =   1.00000000E-12
 WARNING: Using alternative XC functional PBE for 
          radial densities (xc_radial).

Atom SCF Calculation for N  : Z (AE atom) =   7 : Z (PS atom) =   5
Config String:
Orbitals (num,occ):  2     2.00 3.00
Orbitals   (num,l):  2        0    1
Real-space Grid (nr,dr,rmax): 1203    0.0066555740    8.0000000000
Spherical Bessel Basis (nsws,lmax,cutoff):   47    1  176.3951722778
Confining potential (l,width,scale):  0    3.0000000000  100.0000000000
Confining potential (l,width,scale):  1    3.0000000000  100.0000000000
  1         -4.7312375307   -3.4155304497    7.0523828109   -1.9351020946
  2         -9.7309464766   -2.0532547791    8.2966052865   -2.2494486027
  3         -9.6627394379   -2.1124926340    8.2327997121   -2.2369778124
  4         -9.6814993499   -2.1215521045    8.2229805960   -2.2365178421
  5         -9.6843326483   -2.1250939529    8.2191374534   -2.2362718126
  6         -9.6859628709   -2.1267894855    8.2172963573   -2.2362066344
  7         -9.6867347035   -2.1276425665    8.2163697352   -2.2361903369
  8         -9.6870802100   -2.1280764625    8.2158983890   -2.2361891460
  9         -9.6872290423   -2.1282977424    8.2156580222   -2.2361920435
 10         -9.6872901988   -2.1284107021    8.2155353368   -2.2361953393
 11         -9.6873135296   -2.1284684031    8.2154726809   -2.2361979819
 12         -9.6873212476   -2.1284978948    8.2154406648   -2.2361998431
 13         -9.6873229586   -2.1285129774    8.2154242957   -2.2362010676
 14         -9.6873226456   -2.1285206957    8.2154159216   -2.2362018403
 15         -9.6873218534   -2.1285246479    8.2154116349   -2.2362023142
 16         -9.6873212599   -2.1285262679    8.2154098784   -2.2362025420
 17         -9.6873207834   -2.1285272564    8.2154088068   -2.2362026955
 18         -9.6873204210   -2.1285278597    8.2154081529   -2.2362027982
 19         -9.6873201550   -2.1285282280    8.2154077538   -2.2362028667
 20         -9.6873199645   -2.1285284529    8.2154075102   -2.2362029121
 21         -9.6873198305   -2.1285285903    8.2154073614   -2.2362029421
 22         -9.6873197377   -2.1285286742    8.2154072705   -2.2362029618
Atom SCF converged after  22 iterations to a total energy of     -9.68731974

Atom SCF Calculation for H  : Z (AE atom) =   1 : Z (PS atom) =   1
Config String:
Orbitals (num,occ):  1     1.00
Orbitals   (num,l):  1        0
Real-space Grid (nr,dr,rmax): 1203    0.0066555740    8.0000000000
Spherical Bessel Basis (nsws,lmax,cutoff):   47    0  176.3951722778
Confining potential (l,width,scale):  0    3.0000000000  100.0000000000
  1         -0.3194257691   -0.2393854593    0.2820953124   -0.2424203209
  2         -0.3951823392   -0.2377116493    0.2886404059   -0.2475147891
  3         -0.4317044583   -0.2352244387    0.2921333887   -0.2514046172
  4         -0.4470703708   -0.2341892222    0.2934391879   -0.2531009782
  5         -0.4532132900   -0.2338556667    0.2938388426   -0.2537313520
  6         -0.4556579251   -0.2337612552    0.2939448584   -0.2539550462
  7         -0.4566418315   -0.2337377355    0.2939680120   -0.2540342273
  8         -0.4570437922   -0.2337331116    0.2939708287   -0.2540627372
  9         -0.4572102946   -0.2337328328    0.2939698291   -0.2540732650
 10         -0.4572800424   -0.2337332404    0.2939687193   -0.2540772588
 11         -0.4573095100   -0.2337335791    0.2939680317   -0.2540788122
 12         -0.4573220379   -0.2337337762    0.2939676699   -0.2540794294
 13         -0.4573273880   -0.2337338775    0.2939674931   -0.2540796787
 14         -0.4573296803   -0.2337339266    0.2939674099   -0.2540797808
 15         -0.4573306647   -0.2337339495    0.2939673718   -0.2540798230
 16         -0.4573310882   -0.2337339601    0.2939673545   -0.2540798406
 17         -0.4573312706   -0.2337339649    0.2939673467   -0.2540798479
 18         -0.4573313493   -0.2337339670    0.2939673433   -0.2540798510
Atom SCF converged after  18 iterations to a total energy of     -0.45733135

Atom SCF Calculation for C  : Z (AE atom) =   6 : Z (PS atom) =   4
Config String:
Orbitals (num,occ):  2     2.00 2.00
Orbitals   (num,l):  2        0    1
Real-space Grid (nr,dr,rmax): 1203    0.0066555740    8.0000000000
Spherical Bessel Basis (nsws,lmax,cutoff):   47    1  176.3951722778
Confining potential (l,width,scale):  0    3.0000000000  100.0000000000
Confining potential (l,width,scale):  1    3.0000000000  100.0000000000
  1         -5.2976922011   -1.3069684169    4.5135249990   -1.4493313817
  2         -5.3721716256   -1.3429755895    4.4750154450   -1.4361613026
  3         -5.3809959565   -1.3617365618    4.4541655428   -1.4305930207
  4         -5.3918938866   -1.3667928461    4.4484735100   -1.4294652294
  5         -5.3956096428   -1.3688539142    4.4461376126   -1.4290734646
  6         -5.3968271862   -1.3696852393    4.4451910874   -1.4289366866
  7         -5.3972028401   -1.3700178062    4.4448112275   -1.4288900460
  8         -5.3973067903   -1.3701500158    4.4446598370   -1.4288749220
  9         -5.3973286940   -1.3702023868    4.4445997329   -1.4288704293
 10         -5.3973289850   -1.3702230869    4.4445759233   -1.4288693188
 11         -5.3973254264   -1.3702312560    4.4445665049   -1.4288691775
 12         -5.3973224003   -1.3702344755    4.4445627836   -1.4288692549
 13         -5.3973208708   -1.3702354890    4.4445616088   -1.4288693270
 14         -5.3973198783   -1.3702360102    4.4445610034   -1.4288693814
 15         -5.3973192535   -1.3702362780    4.4445606917   -1.4288694190
 16         -5.3973188684   -1.3702364155    4.4445605313   -1.4288694437
 17         -5.3973186349   -1.3702364860    4.4445604489   -1.4288694595
 18         -5.3973184951   -1.3702365221    4.4445604065   -1.4288694693
 19         -5.3973184122   -1.3702365405    4.4445603848   -1.4288694753
Atom SCF converged after  19 iterations to a total energy of     -5.39731841

Atom SCF Calculation for S  : Z (AE atom) =  16 : Z (PS atom) =   6
Config String:
Orbitals (num,occ):  3     2.00 4.00 0.00
Orbitals   (num,l):  3        0    1    2
Real-space Grid (nr,dr,rmax): 1203    0.0066555740    8.0000000000
Spherical Bessel Basis (nsws,lmax,cutoff):   47    2  176.3951722778
Confining potential (l,width,scale):  0    3.0000000000  100.0000000000
Confining potential (l,width,scale):  1    3.0000000000  100.0000000000
Confining potential (l,width,scale):  2    3.0000000000  100.0000000000
  1        -12.4735062396   -1.0328741412   10.1554312477   -2.4512393157
  2         -9.9458301913   -2.4607392455    8.3041325857   -2.0306994528
  3        -10.1450417646   -2.2931184565    8.4831893826   -2.0812538287
  4        -10.1528335592   -2.2733105793    8.5050388867   -2.0896035179
  5        -10.1571940363   -2.2633716629    8.5160794258   -2.0939370707
  6        -10.1594380571   -2.2584938667    8.5215163935   -2.0961289008
  7        -10.1605856507   -2.2561081821    8.5241804044   -2.0972291378
  8        -10.1611799191   -2.2549395235    8.5254868240   -2.0977806248
  9        -10.1614918752   -2.2543658586    8.5261285885   -2.0980571586
 10        -10.1616572884   -2.2540839121    8.5264441898   -2.0981959233
 11        -10.1617455602   -2.2539453058    8.5265994231   -2.0982656006
 12        -10.1617928447   -2.2538772062    8.5266757320   -2.0983006047
 13        -10.1618182292   -2.2538437891    8.5267131983   -2.0983181961
 14        -10.1618318741   -2.2538274201    8.5267315620   -2.0983270391
 15        -10.1618392144   -2.2538194197    8.5267405433   -2.0983314852
 16        -10.1618431651   -2.2538155200    8.5267449245   -2.0983337210
 17        -10.1618452923   -2.2538136252    8.5267470551   -2.0983348455
 18        -10.1618464380   -2.2538127080    8.5267480875   -2.0983354110
 19        -10.1618470552   -2.2538122659    8.5267485856   -2.0983356955
 20        -10.1618473878   -2.2538120540    8.5267488248   -2.0983358386
 21        -10.1618475670   -2.2538119530    8.5267489389   -2.0983359106
 22        -10.1618476637   -2.2538119053    8.5267489929   -2.0983359468
Atom SCF converged after  22 iterations to a total energy of    -10.16184766

Atom SCF Calculation for O  : Z (AE atom) =   8 : Z (PS atom) =   6
Config String:
Orbitals (num,occ):  2     2.00 4.00
Orbitals   (num,l):  2        0    1
Real-space Grid (nr,dr,rmax): 1203    0.0066555740    8.0000000000
Spherical Bessel Basis (nsws,lmax,cutoff):   47    1  176.3951722778
Confining potential (l,width,scale):  0    3.0000000000  100.0000000000
Confining potential (l,width,scale):  1    3.0000000000  100.0000000000
  1         -1.8735052164   -7.5539365035   10.1554312477   -2.4512393157
  2        -16.0318313751   -3.1285771268   13.6395848164   -3.2358799643
  3        -15.9524020423   -3.0762819706   13.6967272503   -3.2536856837
  4        -15.8521515939   -3.0781493909   13.6951909330   -3.2561700440
  5        -15.8357139793   -3.0748501933   13.6988803334   -3.2580493133
  6        -15.8246052853   -3.0740779781   13.6997881576   -3.2588327446
  7        -15.8189019501   -3.0737449687   13.7001869911   -3.2592378801
  8        -15.8159785510   -3.0736026016   13.7003615168   -3.2594475790
  9        -15.8144776168   -3.0735437994   13.7004360379   -3.2595560735
 10        -15.8137058024   -3.0735207882   13.7004667348   -3.2596122456
 11        -15.8133083127   -3.0735125946   13.7004786868   -3.2596413656
 12        -15.8131032938   -3.0735102195   13.7004828997   -3.2596564858
 13        -15.8129973902   -3.0735099286   13.7004840891   -3.2596643505
 14        -15.8129426040   -3.0735102506   13.7004842061   -3.2596684489
 15        -15.8129142203   -3.0735106556   13.7004840157   -3.2596705887
 16        -15.8128994940   -3.0735109855   13.7004837906   -3.2596717080
 17        -15.8128918425   -3.0735112169   13.7004836103   -3.2596722946
 18        -15.8128878614   -3.0735113674   13.7004834848   -3.2596726026
 19        -15.8128857871   -3.0735114608   13.7004834035   -3.2596727646
 20        -15.8128847048   -3.0735115170   13.7004833533   -3.2596728500
 21        -15.8128841394   -3.0735115501   13.7004833231   -3.2596728951
 22        -15.8128838436   -3.0735115693   13.7004833054   -3.2596729190
 23        -15.8128836887   -3.0735115802   13.7004832951   -3.2596729316
 24        -15.8128836074   -3.0735115864   13.7004832893   -3.2596729383
Atom SCF converged after  24 iterations to a total energy of    -15.81288361

========================== Calculation in vacuum ==============================
= Adjusting the following parameters: 
= is_implicit_solvent: F
= is_include_apolar: F
= write_denskern: T
= write_tightbox_ngwfs: T
= restart read filename prefix: ""
= restart write filename prefix: "vacuum_"
===============================================================================

Determining parallel strategy ...
... using space-filling curve
... NGWF load balancing: max    163;  min    162;  average    163
... Projector load balancing: max     36;  min     32;  average     33
... done
Calculating direct Ion-Ion energy ...
Ion-Ion Energy        :    822720.42876925494056
Basis initialisation ...... NGWF spheres initialised
... Projector spheres initialised
... NGWF tight boxes initialised
... Tight-boxes gathered
... NGWF basis size (local,global):    1275329  50812531
... Nonlocal pseudopotential projector initialisation
... done

========================== Sparse matrix information ===========================
                        Overlap matrix filling:   6.71%
                        Density kernel filling: 100.00%
              NGWF-Proj overlap matrix filling:   1.79%
                    Hamiltonian matrix filling:   7.61%
                  NGWF diagonal matrix filling:   0.05%
                             KS matrix filling: 100.00% 
                           KSKS matrix filling: 100.00% 
================================================================================

Sparse matrix initialisation ... done

Generating smeared ion density ... done
Smeared ion self correction:     -14457.169564
Smeared ion non-self correction: -822672.468925
NGWF initialisation ...... done
============ Calculation of NGWF S^-1 using Hotelling algorithm ================ 
         Iteration  |  Frobenius norm and Maximum abs value    (of I-S*S_n^-1)   
               1       0.78407240E+02     0.98199802E+00
               2       0.76505137E+02     0.96446348E+00
               3       0.73444387E+02     0.93071266E+00
               4       0.69125354E+02     0.86798865E+00
               5       0.63775219E+02     0.76222579E+00
               6       0.57789435E+02     0.70164482E+00
               7       0.51806794E+02     0.66771288E+00
               8       0.46273555E+02     0.64135535E+00
               9       0.40133978E+02     0.60057053E+00
              10       0.31740522E+02     0.52946056E+00
              11       0.21103047E+02     0.41480587E+00
              12       0.10602645E+02     0.26937344E+00
              13       0.34069460E+01     0.11968358E+00
              14       0.52377658E+00     0.30711546E-01
              15       0.24850583E-01     0.25421533E-02
              16       0.12951362E-03     0.18827810E-04
              17       0.56951767E-08     0.10646327E-08
              18       0.89100536E-13     0.51070259E-14
================================================================================
Calculating local pseudopotential in open BC on the fine real space grid ...
... done

MG BCs: +ve charge blocks (gridpoints):     20588 (   16140558).
MG BCs: -ve charge blocks (gridpoints):      8068 (    1084443).
MG BCs:     Elided blocks (gridpoints):    173326 (  173745624).
MG BCs: Computational effort saved:  99.9850%.
MG BCs: Charge after coarse-graining:           -9.0002308.
MG DL_MG: Calling solver with defect correction order = 8
MG DL_MG: Solver finished
MG Hartree energy from (\int phi*rho dr):              1462.466037
MG Hartree energy from (\int eps (grad phi)^2 dr):     1461.848173
MG Discrepancy due to finite box and discretization:     -0.617863 (  -0.04225%)
MG Correction to account for finite box:                  0.467209
MG Remaining discrepancy, due to discretization:         -0.150654 (  -0.01030%)
 WARNING: xc_energy_potential using alternative initial XC functional PBE.
Up spin density kernel initialisation ... 
======= Optimisation of K by Palser-Manolopoulos canonical purification ======== 
         Iteration  |  Band structure energy |    c_n   
               1       -2576.82757847739958    0.5268502
               2       -2752.44604306807787    0.5169852
               3       -2932.38643536353993    0.5153339
               4       -3082.59542713445217    0.5288959
               5       -3174.88984886942899    0.5648054
               6       -3213.45124192573530    0.6098692
               7       -3226.56224160766669    0.6232144
               8       -3232.22273993135150    0.6247120
               9       -3234.94552207059769    0.6413348
              10       -3236.08270755787544    0.6686980
              11       -3236.53582266184048    0.6939944
              12       -3236.73259664964689    0.7027190
              13       -3236.83346565955162    0.6856358
              14       -3236.89491638122581    0.6466994
              15       -3236.93452673554020    0.5969243
              16       -3236.95723928072857    0.5430748
              17       -3236.96701196260028    0.4914448
              18       -3236.96944293292836    0.4822664
              19       -3236.96983955977339    0.4967120
              20       -3236.97014027738896    0.4999307
              21       -3236.97034041811548    0.5000000
              22       -3236.97040035439431    0.5000000
              23       -3236.97040425015439    0.5000001
              24       -3236.97040426501599    0.5000001
Termination criterion satisfied: band energy change below threshold.
Final occupancy bounds: [    0.00000000000001:    0.99999999999999]
Closest occupancy to 0.5:     1.00000000000000
================================================================================
... done

Writing density kernel to file "host_8081.vacuum_dkn" ... done

>>> Optimising kernel for current NGWFs:
   Initial electron number for spin 1:    7192.00000000
     Final electron number for spin 1:    7192.00000000

=================== Penalty functional idempotency correction ==================
 RMS occupancy error at iteration   1:  0.000000 (step -0.5000 Ne1=   7192.0000)
            Final RMS occupancy error   :  0.000000 (Ne1=   7192.0000)
               Final occupancy bounds   : [ -0.0000,  1.0000]
================================================================================

................................................................................
<<<<<<<<<<<<<< LNV (Original version) density kernel optimisation >>>>>>>>>>>>>>
~~~~~~~~~~~~~~~~~~~~~~~~~~~~~~~~~~~~~~~~~~~~~~~~~~~~~~~~~~~~~~~~~~~~~~~~~~~~~~~~
   iter  |      energy (Eh)       | rms gradient |  commutator  |   dE (Eh)
MG BCs: +ve charge blocks (gridpoints):     31383 (   17323946).
MG BCs: -ve charge blocks (gridpoints):      8423 (    1117392).
MG BCs:     Elided blocks (gridpoints):    162524 (  172529287).
MG BCs: Computational effort saved:  99.9792%.
MG BCs: Charge after coarse-graining:           -9.0009924.
MG DL_MG: Calling solver with defect correction order = 8
MG DL_MG: Solver finished
MG Hartree energy from (\int phi*rho dr):              1416.509028
MG Hartree energy from (\int eps (grad phi)^2 dr):     1415.847127
MG Discrepancy due to finite box and discretization:     -0.661901 (  -0.04673%)
MG Correction to account for finite box:                  0.468632
MG Remaining discrepancy, due to discretization:         -0.193269 (  -0.01364%)
      ideal mu1:      -0.755177986040
             Q0:  -11472.357952762512
             G0:    -124.875522193487
   RMS gradient:       0.001717874202
MG BCs: +ve charge blocks (gridpoints):     31352 (   17401256).
MG BCs: -ve charge blocks (gridpoints):      8300 (    1094410).
MG BCs:     Elided blocks (gridpoints):    162556 (  172474959).
MG BCs: Computational effort saved:  99.9792%.
MG BCs: Charge after coarse-graining:           -9.0010148.
MG DL_MG: Calling solver with defect correction order = 8
MG DL_MG: Solver finished
MG Hartree energy from (\int phi*rho dr):              1438.303455
MG Hartree energy from (\int eps (grad phi)^2 dr):     1437.656255
MG Discrepancy due to finite box and discretization:     -0.647200 (  -0.04500%)
MG Correction to account for finite box:                  0.469227
MG Remaining discrepancy, due to discretization:         -0.177973 (  -0.01237%)
     Trial step:       0.500000000000
             Q1:  -11484.373792385333
 Quadratic coef:      50.421921473922
 Linear coef   :     -62.437761096744
           Qmin:  -11491.687214206813
Quadratic minimum step length (  0.309576466305) accepted
    Initial Ne1:    7192.00000000
      Final Ne1:    7192.00000000

=================== Penalty functional idempotency correction ==================
 RMS occupancy error at iteration   1:  0.003177 (step -0.4892 Ne1=   7192.0000)
 RMS occupancy error at iteration   2:  0.000023 (step -0.5000 Ne1=   7192.0000)
            Final RMS occupancy error   :  0.000000 (Ne1=   7192.0000)
               Final occupancy bounds   : [  0.0000,  1.0000]
================================================================================

    1        -1.147235795276E+04     1.7179E-03     1.5538E-03
MG BCs: +ve charge blocks (gridpoints):     31365 (   17374000).
MG BCs: -ve charge blocks (gridpoints):      8362 (    1103264).
MG BCs:     Elided blocks (gridpoints):    162543 (  172493361).
MG BCs: Computational effort saved:  99.9792%.
MG BCs: Charge after coarse-graining:           -9.0010058.
MG DL_MG: Calling solver with defect correction order = 8
MG DL_MG: Solver finished
MG Hartree energy from (\int phi*rho dr):              1423.471141
MG Hartree energy from (\int eps (grad phi)^2 dr):     1422.819158
MG Discrepancy due to finite box and discretization:     -0.651983 (  -0.04580%)
MG Correction to account for finite box:                  0.468905
MG Remaining discrepancy, due to discretization:         -0.183078 (  -0.01286%)
      ideal mu1:      -0.794221855768
             Q0:  -11492.066309458343
             G0:     -11.009914346287
   RMS gradient:       0.000506399689
MG BCs: +ve charge blocks (gridpoints):     31351 (   17390568).
MG BCs: -ve charge blocks (gridpoints):      8325 (    1096434).
MG BCs:     Elided blocks (gridpoints):    162557 (  172483623).
MG BCs: Computational effort saved:  99.9792%.
MG BCs: Charge after coarse-graining:           -9.0010108.
MG DL_MG: Calling solver with defect correction order = 8
MG DL_MG: Solver finished
MG Hartree energy from (\int phi*rho dr):              1429.039033
MG Hartree energy from (\int eps (grad phi)^2 dr):     1428.390171
MG Discrepancy due to finite box and discretization:     -0.648862 (  -0.04541%)
MG Correction to account for finite box:                  0.468865
MG Remaining discrepancy, due to discretization:         -0.179997 (  -0.01260%)
     Trial step:       0.393431357612
             Q1:  -11494.590876421775
 Quadratic coef:       1.807078585018
 Linear coef   :      -4.331645548450
           Qmin:  -11494.662094903561
Quadratic minimum step length (  0.471535992665) accepted
    Initial Ne1:    7191.99993033
      Final Ne1:    7192.00000000

=================== Penalty functional idempotency correction ==================
 RMS occupancy error at iteration   1:  0.001499 (step -0.4946 Ne1=   7192.0000)
 RMS occupancy error at iteration   2:  0.000006 (step -0.5000 Ne1=   7192.0000)
            Final RMS occupancy error   :  0.000000 (Ne1=   7192.0000)
               Final occupancy bounds   : [  0.0000,  1.0000]
================================================================================

    2        -1.149206630946E+04     5.0640E-04     4.5803E-04    -1.9708E+01
MG BCs: +ve charge blocks (gridpoints):     31351 (   17393894).
MG BCs: -ve charge blocks (gridpoints):      8316 (    1095076).
MG BCs:     Elided blocks (gridpoints):    162557 (  172481655).
MG BCs: Computational effort saved:  99.9792%.
MG BCs: Charge after coarse-graining:           -9.0010118.
MG DL_MG: Calling solver with defect correction order = 8
MG DL_MG: Solver finished
MG Hartree energy from (\int phi*rho dr):              1430.168949
MG Hartree energy from (\int eps (grad phi)^2 dr):     1429.520663
MG Discrepancy due to finite box and discretization:     -0.648286 (  -0.04533%)
MG Correction to account for finite box:                  0.468864
MG Remaining discrepancy, due to discretization:         -0.179423 (  -0.01255%)
      ideal mu1:      -0.814287680173
             Q0:  -11494.695226760581
             G0:      -1.821271510921
   RMS gradient:       0.000206066853
MG BCs: +ve charge blocks (gridpoints):     31353 (   17394916).
MG BCs: -ve charge blocks (gridpoints):      8318 (    1094979).
MG BCs:     Elided blocks (gridpoints):    162555 (  172480730).
MG BCs: Computational effort saved:  99.9792%.
MG BCs: Charge after coarse-graining:           -9.0010121.
MG DL_MG: Calling solver with defect correction order = 8
MG DL_MG: Solver finished
MG Hartree energy from (\int phi*rho dr):              1429.668921
MG Hartree energy from (\int eps (grad phi)^2 dr):     1429.020933
MG Discrepancy due to finite box and discretization:     -0.647989 (  -0.04532%)
MG Correction to account for finite box:                  0.468772
MG Remaining discrepancy, due to discretization:         -0.179217 (  -0.01254%)
     Trial step:       0.430716897459
             Q1:  -11495.162197940052
 Quadratic coef:       0.317481235144
 Linear coef   :      -0.784452414615
           Qmin:  -11495.179795234775
Quadratic minimum step length (  0.532121071776) accepted
    Initial Ne1:    7191.99997894
      Final Ne1:    7192.00000000

=================== Penalty functional idempotency correction ==================
 RMS occupancy error at iteration   1:  0.000570 (step -0.4978 Ne1=   7192.0000)
 RMS occupancy error at iteration   2:  0.000001 (step -0.5000 Ne1=   7192.0000)
            Final RMS occupancy error   :  0.000000 (Ne1=   7192.0000)
               Final occupancy bounds   : [  0.0000,  1.0000]
================================================================================

    3        -1.149469522676E+04     2.0607E-04     1.8638E-04    -2.6289E+00
MG BCs: +ve charge blocks (gridpoints):     31351 (   17395154).
MG BCs: -ve charge blocks (gridpoints):      8323 (    1095002).
MG BCs:     Elided blocks (gridpoints):    162557 (  172480469).
MG BCs: Computational effort saved:  99.9792%.
MG BCs: Charge after coarse-graining:           -9.0010121.
MG DL_MG: Calling solver with defect correction order = 8
MG DL_MG: Solver finished
MG Hartree energy from (\int phi*rho dr):              1429.556238
MG Hartree energy from (\int eps (grad phi)^2 dr):     1428.908308
MG Discrepancy due to finite box and discretization:     -0.647931 (  -0.04532%)
MG Correction to account for finite box:                  0.468752
MG Remaining discrepancy, due to discretization:         -0.179179 (  -0.01253%)
      ideal mu1:      -0.816988839938
             Q0:  -11495.184346525813
             G0:      -0.399979001389
   RMS gradient:       0.000096729664
MG BCs: +ve charge blocks (gridpoints):     31347 (   17395618).
MG BCs: -ve charge blocks (gridpoints):      8322 (    1094898).
MG BCs:     Elided blocks (gridpoints):    162560 (  172480109).
MG BCs: Computational effort saved:  99.9792%.
MG BCs: Charge after coarse-graining:           -9.0010121.
MG DL_MG: Calling solver with defect correction order = 8
MG DL_MG: Solver finished
MG Hartree energy from (\int phi*rho dr):              1430.591661
MG Hartree energy from (\int eps (grad phi)^2 dr):     1429.943610
MG Discrepancy due to finite box and discretization:     -0.648051 (  -0.04530%)
MG Correction to account for finite box:                  0.468722
MG Remaining discrepancy, due to discretization:         -0.179330 (  -0.01254%)
     Trial step:       0.478741618316
             Q1:  -11495.282446600380
 Quadratic coef:       0.093386519851
 Linear coef   :      -0.191486594418
           Qmin:  -11495.282506077911
Quadratic minimum step length (  0.490823527011) accepted
    Initial Ne1:    7191.99999560
      Final Ne1:    7192.00000000

=================== Penalty functional idempotency correction ==================
 RMS occupancy error at iteration   1:  0.000184 (step -0.4992 Ne1=   7192.0000)
            Final RMS occupancy error   :  0.000000 (Ne1=   7192.0000)
               Final occupancy bounds   : [ -0.0000,  1.0000]
================================================================================

    4        -1.149518434653E+04     9.6730E-05     8.7490E-05    -4.8912E-01
MG BCs: +ve charge blocks (gridpoints):     31347 (   17395616).
MG BCs: -ve charge blocks (gridpoints):      8322 (    1094909).
MG BCs:     Elided blocks (gridpoints):    162560 (  172480100).
MG BCs: Computational effort saved:  99.9792%.
MG BCs: Charge after coarse-graining:           -9.0010121.
MG DL_MG: Calling solver with defect correction order = 8
MG DL_MG: Solver finished
MG Hartree energy from (\int phi*rho dr):              1430.618033
MG Hartree energy from (\int eps (grad phi)^2 dr):     1429.969978
MG Discrepancy due to finite box and discretization:     -0.648055 (  -0.04530%)
MG Correction to account for finite box:                  0.468721
MG Remaining discrepancy, due to discretization:         -0.179334 (  -0.01254%)
      ideal mu1:      -0.817052230465
             Q0:  -11495.282935392694
             G0:      -0.103553097154
   RMS gradient:       0.000049365616
MG BCs: +ve charge blocks (gridpoints):     31347 (   17395302).
MG BCs: -ve charge blocks (gridpoints):      8320 (    1095053).
MG BCs:     Elided blocks (gridpoints):    162560 (  172480270).
MG BCs: Computational effort saved:  99.9792%.
MG BCs: Charge after coarse-graining:           -9.0010118.
MG DL_MG: Calling solver with defect correction order = 8
MG DL_MG: Solver finished
MG Hartree energy from (\int phi*rho dr):              1430.344748
MG Hartree energy from (\int eps (grad phi)^2 dr):     1429.696565
MG Discrepancy due to finite box and discretization:     -0.648182 (  -0.04532%)
MG Correction to account for finite box:                  0.468712
MG Remaining discrepancy, due to discretization:         -0.179470 (  -0.01255%)
     Trial step:       0.484744932546
             Q1:  -11495.307247901103
 Quadratic coef:       0.025884330686
 Linear coef   :      -0.050196839095
           Qmin:  -11495.307271763273
Quadratic minimum step length (  0.470026899218) accepted
    Initial Ne1:    7192.00175870
      Final Ne1:    7192.00000000

=================== Penalty functional idempotency correction ==================
 RMS occupancy error at iteration   1:  0.000062 (step -0.4997 Ne1=   7192.0000)
            Final RMS occupancy error   :  0.000000 (Ne1=   7192.0000)
               Final occupancy bounds   : [ -0.0000,  1.0000]
================================================================================

    5        -1.149528293539E+04     4.9366E-05     4.4650E-05    -9.8589E-02
MG BCs: +ve charge blocks (gridpoints):     31346 (   17395324).
MG BCs: -ve charge blocks (gridpoints):      8320 (    1095049).
MG BCs:     Elided blocks (gridpoints):    162561 (  172480252).
MG BCs: Computational effort saved:  99.9792%.
MG BCs: Charge after coarse-graining:           -9.0010118.
MG DL_MG: Calling solver with defect correction order = 8
MG DL_MG: Solver finished
MG Hartree energy from (\int phi*rho dr):              1430.353045
MG Hartree energy from (\int eps (grad phi)^2 dr):     1429.704866
MG Discrepancy due to finite box and discretization:     -0.648178 (  -0.04532%)
MG Correction to account for finite box:                  0.468712
MG Remaining discrepancy, due to discretization:         -0.179466 (  -0.01255%)
      ideal mu1:      -0.816420173770
             Q0:  -11495.307318057981
             G0:      -0.024933466528
   RMS gradient:       0.000024246248
MG BCs: +ve charge blocks (gridpoints):     31354 (   17395179).
MG BCs: -ve charge blocks (gridpoints):      8322 (    1095175).
MG BCs:     Elided blocks (gridpoints):    162553 (  172480271).
MG BCs: Computational effort saved:  99.9792%.
MG BCs: Charge after coarse-graining:           -9.0010117.
MG DL_MG: Calling solver with defect correction order = 8
MG DL_MG: Solver finished
MG Hartree energy from (\int phi*rho dr):              1429.860984
MG Hartree energy from (\int eps (grad phi)^2 dr):     1429.212776
MG Discrepancy due to finite box and discretization:     -0.648208 (  -0.04533%)
MG Correction to account for finite box:                  0.468732
MG Remaining discrepancy, due to discretization:         -0.179476 (  -0.01255%)
     Trial step:       0.477329192022
             Q1:  -11495.314657008741
 Quadratic coef:       0.004562520673
 Linear coef   :      -0.011901471432
           Qmin:  -11495.315079393897
Quadratic minimum step length (  0.622563726238) accepted
    Initial Ne1:    7192.00084778
      Final Ne1:    7192.00000000

=================== Penalty functional idempotency correction ==================
 RMS occupancy error at iteration   1:  0.000027 (step -0.4999 Ne1=   7192.0000)
            Final RMS occupancy error   :  0.000000 (Ne1=   7192.0000)
               Final occupancy bounds   : [ -0.0000,  1.0000]
================================================================================

    6        -1.149530731806E+04     2.4246E-05     2.1930E-05    -2.4383E-02
MG BCs: +ve charge blocks (gridpoints):     31354 (   17395102).
MG BCs: -ve charge blocks (gridpoints):      8323 (    1095240).
MG BCs:     Elided blocks (gridpoints):    162553 (  172480283).
MG BCs: Computational effort saved:  99.9792%.
MG BCs: Charge after coarse-graining:           -9.0010117.
MG DL_MG: Calling solver with defect correction order = 8
MG DL_MG: Solver finished
MG Hartree energy from (\int phi*rho dr):              1429.711073
MG Hartree energy from (\int eps (grad phi)^2 dr):     1429.062856
MG Discrepancy due to finite box and discretization:     -0.648217 (  -0.04534%)
MG Correction to account for finite box:                  0.468738
MG Remaining discrepancy, due to discretization:         -0.179479 (  -0.01255%)
      ideal mu1:      -0.816357159289
             Q0:  -11495.315085192560
             G0:      -0.009529429682
   RMS gradient:       0.000015006733
MG BCs: +ve charge blocks (gridpoints):     31354 (   17395442).
MG BCs: -ve charge blocks (gridpoints):      8320 (    1094985).
MG BCs:     Elided blocks (gridpoints):    162553 (  172480198).
MG BCs: Computational effort saved:  99.9792%.
MG BCs: Charge after coarse-graining:           -9.0010118.
MG DL_MG: Calling solver with defect correction order = 8
MG DL_MG: Solver finished
MG Hartree energy from (\int phi*rho dr):              1430.248997
MG Hartree energy from (\int eps (grad phi)^2 dr):     1429.600783
MG Discrepancy due to finite box and discretization:     -0.648214 (  -0.04532%)
MG Correction to account for finite box:                  0.468728
MG Remaining discrepancy, due to discretization:         -0.179486 (  -0.01255%)
     Trial step:       0.545131030512
             Q1:  -11495.317568065133
 Quadratic coef:       0.002711915251
 Linear coef   :      -0.005194787823
           Qmin:  -11495.317572901249
Quadratic minimum step length (  0.522110718273) accepted
    Initial Ne1:    7192.00007729
      Final Ne1:    7192.00000000

=================== Penalty functional idempotency correction ==================
 RMS occupancy error at iteration   1:  0.000002 (step -0.5000 Ne1=   7192.0000)
            Final RMS occupancy error   :  0.000000 (Ne1=   7192.0000)
               Final occupancy bounds   : [  0.0000,  1.0000]
================================================================================

    7        -1.149531508519E+04     1.5007E-05     1.3573E-05    -7.7671E-03
MG BCs: +ve charge blocks (gridpoints):     31354 (   17395437).
MG BCs: -ve charge blocks (gridpoints):      8320 (    1094995).
MG BCs:     Elided blocks (gridpoints):    162553 (  172480193).
MG BCs: Computational effort saved:  99.9792%.
MG BCs: Charge after coarse-graining:           -9.0010118.
MG DL_MG: Calling solver with defect correction order = 8
MG DL_MG: Solver finished
MG Hartree energy from (\int phi*rho dr):              1430.226263
MG Hartree energy from (\int eps (grad phi)^2 dr):     1429.578049
MG Discrepancy due to finite box and discretization:     -0.648214 (  -0.04532%)
MG Correction to account for finite box:                  0.468729
MG Remaining discrepancy, due to discretization:         -0.179486 (  -0.01255%)
      ideal mu1:      -0.816679421547
             Q0:  -11495.317572929082
             G0:      -0.005088495106
   RMS gradient:       0.000010966328
MG BCs: +ve charge blocks (gridpoints):     31353 (   17395491).
MG BCs: -ve charge blocks (gridpoints):      8321 (    1094966).
MG BCs:     Elided blocks (gridpoints):    162554 (  172480168).
MG BCs: Computational effort saved:  99.9792%.
MG BCs: Charge after coarse-graining:           -9.0010119.
MG DL_MG: Calling solver with defect correction order = 8
MG DL_MG: Solver finished
MG Hartree energy from (\int phi*rho dr):              1430.254903
MG Hartree energy from (\int eps (grad phi)^2 dr):     1429.606694
MG Discrepancy due to finite box and discretization:     -0.648209 (  -0.04532%)
MG Correction to account for finite box:                  0.468732
MG Remaining discrepancy, due to discretization:         -0.179477 (  -0.01255%)
     Trial step:       0.533496723414
             Q1:  -11495.319568541017
 Quadratic coef:       0.000719083529
 Linear coef   :      -0.002714695466
           Qmin:  -11495.320135069353
Quadratic minimum step length (  1.007032616437) accepted
    Initial Ne1:    7192.00007893
      Final Ne1:    7192.00000000

=================== Penalty functional idempotency correction ==================
 RMS occupancy error at iteration   1:  0.000017 (step -0.4990 Ne1=   7192.0000)
            Final RMS occupancy error   :  0.000000 (Ne1=   7192.0000)
               Final occupancy bounds   : [ -0.0000,  1.0000]
================================================================================

    8        -1.149531757293E+04     1.0966E-05     9.9188E-06    -2.4877E-03
MG BCs: +ve charge blocks (gridpoints):     31352 (   17395557).
MG BCs: -ve charge blocks (gridpoints):      8321 (    1094953).
MG BCs:     Elided blocks (gridpoints):    162555 (  172480115).
MG BCs: Computational effort saved:  99.9792%.
MG BCs: Charge after coarse-graining:           -9.0010119.
MG DL_MG: Calling solver with defect correction order = 8
MG DL_MG: Solver finished
MG Hartree energy from (\int phi*rho dr):              1430.279508
MG Hartree energy from (\int eps (grad phi)^2 dr):     1429.631304
MG Discrepancy due to finite box and discretization:     -0.648204 (  -0.04532%)
MG Correction to account for finite box:                  0.468735
MG Remaining discrepancy, due to discretization:         -0.179469 (  -0.01255%)
      ideal mu1:      -0.816747851446
             Q0:  -11495.320129099069
             G0:      -0.006430224130
   RMS gradient:       0.000012355458
MG BCs: +ve charge blocks (gridpoints):     31353 (   17395469).
MG BCs: -ve charge blocks (gridpoints):      8321 (    1095035).
MG BCs:     Elided blocks (gridpoints):    162554 (  172480121).
MG BCs: Computational effort saved:  99.9792%.
MG BCs: Charge after coarse-graining:           -9.0010118.
MG DL_MG: Calling solver with defect correction order = 8
MG DL_MG: Solver finished
MG Hartree energy from (\int phi*rho dr):              1429.995577
MG Hartree energy from (\int eps (grad phi)^2 dr):     1429.347382
MG Discrepancy due to finite box and discretization:     -0.648195 (  -0.04533%)
MG Correction to account for finite box:                  0.468739
MG Remaining discrepancy, due to discretization:         -0.179456 (  -0.01255%)
     Trial step:       0.732972442347
             Q1:  -11495.322825690848
 Quadratic coef:       0.002016585308
 Linear coef   :      -0.004713177085
           Qmin:  -11495.322883016564
Quadratic minimum step length (  0.856554123115) accepted
    Initial Ne1:    7192.00027569
      Final Ne1:    7192.00000000

=================== Penalty functional idempotency correction ==================
 RMS occupancy error at iteration   1:  0.000067 (step -0.4958 Ne1=   7192.0000)
 RMS occupancy error at iteration   2:  0.000000 (step -0.5000 Ne1=   7192.0000)
            Final RMS occupancy error   :  0.000000 (Ne1=   7192.0000)
               Final occupancy bounds   : [  0.0000,  1.0000]
================================================================================

    9        -1.149532012910E+04     1.2355E-05     1.1175E-05    -2.5562E-03
MG BCs: +ve charge blocks (gridpoints):     31353 (   17395449).
MG BCs: -ve charge blocks (gridpoints):      8321 (    1095044).
MG BCs:     Elided blocks (gridpoints):    162554 (  172480132).
MG BCs: Computational effort saved:  99.9792%.
MG BCs: Charge after coarse-graining:           -9.0010118.
MG DL_MG: Calling solver with defect correction order = 8
MG DL_MG: Solver finished
MG Hartree energy from (\int phi*rho dr):              1429.947138
MG Hartree energy from (\int eps (grad phi)^2 dr):     1429.298945
MG Discrepancy due to finite box and discretization:     -0.648194 (  -0.04533%)
MG Correction to account for finite box:                  0.468740
MG Remaining discrepancy, due to discretization:         -0.179454 (  -0.01255%)
      ideal mu1:      -0.816473458867
   10        -1.149532287701E+04     1.1969E-05     1.0826E-05    -2.7479E-03
Finished density kernel iterations (  10)

Writing density kernel to file "host_8081.vacuum_dkn" ... done


>>> Density kernel optimised for the current NGWF basis:
     ~~~~~~~~~~~~~~~~~~~~~~~~~~~~~~~~~~~~~~~~~~~~~~~~~~~~~~~~~~~
     Total energy                =  -1.14953228770144E+04  Eh
     Estimated bandgap           =  -1.7321E-01  Eh
     RMS occupancy error         =   2.8299E-12
     [H,K] commutator            =   1.0826E-05
     Occupancy bounds            = [  0.000:  1.000]
     ~~~~~~~~~~~~~~~~~~~~~~~~~~~~~~~~~~~~~~~~~~~~~~~~~~~~~~~~~~~




################################################################################
########################### NGWF CG iteration  001 #############################
################################################################################
****** Reciprocal space K.E. preconditioning with k_zero =  3.5000 a0^-1 *******

>>> Checking for convergence of NGWFs:   NOT CONVERGED
  ========================================================================
         NGWF RMS gradient =  1.6438E-03 >  2.0000E-06  | above tolerance
  ========================================================================

>>> Improving NGWFs using line search:
============ Calculation of NGWF S^-1 using Hotelling algorithm ================ 
         Iteration  |  Frobenius norm and Maximum abs value    (of I-S*S_n^-1)   
               1       0.23705044E+00     0.66843722E-02
               2       0.12968976E-02     0.63673204E-04
               3       0.65190770E-07     0.62214608E-08
               4       0.12973313E-12     0.54400928E-14
================================================================================
MG BCs: +ve charge blocks (gridpoints):     30858 (   17343128).
MG BCs: -ve charge blocks (gridpoints):      8322 (    1091982).
MG BCs:     Elided blocks (gridpoints):    163050 (  172535515).
MG BCs: Computational effort saved:  99.9795%.
MG BCs: Charge after coarse-graining:           -9.0010138.
MG DL_MG: Calling solver with defect correction order = 8
MG DL_MG: Solver finished
MG Hartree energy from (\int phi*rho dr):              1401.906587
MG Hartree energy from (\int eps (grad phi)^2 dr):     1401.259787
MG Discrepancy due to finite box and discretization:     -0.646800 (  -0.04614%)
MG Correction to account for finite box:                  0.468724
MG Remaining discrepancy, due to discretization:         -0.178076 (  -0.01270%)
============ Calculation of NGWF S^-1 using Hotelling algorithm ================ 
         Iteration  |  Frobenius norm and Maximum abs value    (of I-S*S_n^-1)   
               1       0.21601843E+01     0.49887422E-01
               2       0.95949895E-01     0.34575924E-02
               3       0.26203751E-03     0.19211883E-04
               4       0.35431970E-08     0.62632566E-09
               5       0.11384370E-12     0.57731597E-14
================================================================================
------------------------------- NGWF line search -------------------------------
RMS gradient                =       0.00164379259021
Trial step length           =               0.122474
Gradient along search dir.  =       -295.08975614121
Functional at step 0        =  -11495.32287701440509
Functional at step 1        =  -11528.63650018698536
Functional predicted        =  -11610.81729097261268
Selected quadratic step     =               0.782775
--------------------------- NGWF line search finished --------------------------
                                               
Writing NGWFs to file "host_8081.vacuum_tightbox_ngwfs"....  done

>>> Optimising kernel for current NGWFs:
   Initial electron number for spin 1:    7237.82802193
     Final electron number for spin 1:    7192.00000000

=================== Penalty functional idempotency correction ==================
 RMS occupancy error at iteration   1:  0.005250 (step -0.4824 Ne1=   7192.0000)
 RMS occupancy error at iteration   2:  0.000099 (step -0.5003 Ne1=   7192.0000)
            Final RMS occupancy error   :  0.000000 (Ne1=   7192.0000)
               Final occupancy bounds   : [  0.0000,  1.0000]
================================================================================

................................................................................
<<<<<<<<<<<<<< LNV (Original version) density kernel optimisation >>>>>>>>>>>>>>
~~~~~~~~~~~~~~~~~~~~~~~~~~~~~~~~~~~~~~~~~~~~~~~~~~~~~~~~~~~~~~~~~~~~~~~~~~~~~~~~
   iter  |      energy (Eh)       | rms gradient |  commutator  |   dE (Eh)
MG BCs: +ve charge blocks (gridpoints):     25282 (   17081092).
MG BCs: -ve charge blocks (gridpoints):      8437 (    1062438).
MG BCs:     Elided blocks (gridpoints):    168632 (  172827095).
MG BCs: Computational effort saved:  99.9823%.
MG BCs: Charge after coarse-graining:           -9.0007553.
MG DL_MG: Calling solver with defect correction order = 8
MG DL_MG: Solver finished
MG Hartree energy from (\int phi*rho dr):              1272.632872
MG Hartree energy from (\int eps (grad phi)^2 dr):     1271.988773
MG Discrepancy due to finite box and discretization:     -0.644098 (  -0.05061%)
MG Correction to account for finite box:                  0.468665
MG Remaining discrepancy, due to discretization:         -0.175433 (  -0.01379%)
      ideal mu1:      -0.758722341581
             Q0:  -11610.186430630740
             G0:      -9.597520529304
   RMS gradient:       0.000476246968
MG BCs: +ve charge blocks (gridpoints):     25352 (   17095928).
MG BCs: -ve charge blocks (gridpoints):      8414 (    1058666).
MG BCs:     Elided blocks (gridpoints):    168562 (  172816031).
MG BCs: Computational effort saved:  99.9823%.
MG BCs: Charge after coarse-graining:           -9.0007509.
MG DL_MG: Calling solver with defect correction order = 8
MG DL_MG: Solver finished
MG Hartree energy from (\int phi*rho dr):              1287.562408
MG Hartree energy from (\int eps (grad phi)^2 dr):     1286.913377
MG Discrepancy due to finite box and discretization:     -0.649032 (  -0.05041%)
MG Correction to account for finite box:                  0.468082
MG Remaining discrepancy, due to discretization:         -0.180950 (  -0.01405%)
     Trial step:       0.792357600848
             Q1:  -11608.754417468561
 Quadratic coef:       9.036681502870
 Linear coef   :      -7.604668340691
           Qmin:  -11611.786326028003
Quadratic minimum step length (  0.333397650441) accepted
    Initial Ne1:    7191.99891976
      Final Ne1:    7192.00000000

=================== Penalty functional idempotency correction ==================
 RMS occupancy error at iteration   1:  0.000359 (step -0.4985 Ne1=   7192.0000)
 RMS occupancy error at iteration   2:  0.000000 (step -0.5000 Ne1=   7192.0000)
            Final RMS occupancy error   :  0.000000 (Ne1=   7192.0000)
               Final occupancy bounds   : [  0.0000,  1.0000]
================================================================================

    1        -1.161018643063E+04     4.7625E-04     4.3075E-04
MG BCs: +ve charge blocks (gridpoints):     25302 (   17087465).
MG BCs: -ve charge blocks (gridpoints):      8433 (    1060907).
MG BCs:     Elided blocks (gridpoints):    168612 (  172822253).
MG BCs: Computational effort saved:  99.9823%.
MG BCs: Charge after coarse-graining:           -9.0007533.
MG DL_MG: Calling solver with defect correction order = 8
MG DL_MG: Solver finished
MG Hartree energy from (\int phi*rho dr):              1277.780820
MG Hartree energy from (\int eps (grad phi)^2 dr):     1277.134757
MG Discrepancy due to finite box and discretization:     -0.646064 (  -0.05056%)
MG Correction to account for finite box:                  0.468399
MG Remaining discrepancy, due to discretization:         -0.177665 (  -0.01390%)
      ideal mu1:      -0.764477532502
             Q0:  -11611.763083251310
             G0:      -0.872217484904
   RMS gradient:       0.000144201871
MG BCs: +ve charge blocks (gridpoints):     25305 (   17087038).
MG BCs: -ve charge blocks (gridpoints):      8433 (    1061709).
MG BCs:     Elided blocks (gridpoints):    168609 (  172821878).
MG BCs: Computational effort saved:  99.9823%.
MG BCs: Charge after coarse-graining:           -9.0007532.
MG DL_MG: Calling solver with defect correction order = 8
MG DL_MG: Solver finished
MG Hartree energy from (\int phi*rho dr):              1278.345159
MG Hartree energy from (\int eps (grad phi)^2 dr):     1277.698864
MG Discrepancy due to finite box and discretization:     -0.646295 (  -0.05056%)
MG Correction to account for finite box:                  0.468364
MG Remaining discrepancy, due to discretization:         -0.177931 (  -0.01392%)
     Trial step:       0.513974865564
             Q1:  -11611.959364118404
 Quadratic coef:       0.252016997452
 Linear coef   :      -0.448297864546
           Qmin:  -11611.962445771882
Quadratic minimum step length (  0.457139472718) accepted
    Initial Ne1:    7191.99986419
      Final Ne1:    7192.00000000

=================== Penalty functional idempotency correction ==================
 RMS occupancy error at iteration   1:  0.000137 (step -0.4995 Ne1=   7192.0000)
            Final RMS occupancy error   :  0.000000 (Ne1=   7192.0000)
               Final occupancy bounds   : [ -0.0000,  1.0000]
================================================================================

    2        -1.161176308325E+04     1.4420E-04     1.3043E-04    -1.5767E+00
MG BCs: +ve charge blocks (gridpoints):     25306 (   17087132).
MG BCs: -ve charge blocks (gridpoints):      8433 (    1061622).
MG BCs:     Elided blocks (gridpoints):    168608 (  172821871).
MG BCs: Computational effort saved:  99.9823%.
MG BCs: Charge after coarse-graining:           -9.0007532.
MG DL_MG: Calling solver with defect correction order = 8
MG DL_MG: Solver finished
MG Hartree energy from (\int phi*rho dr):              1278.283349
MG Hartree energy from (\int eps (grad phi)^2 dr):     1277.637081
MG Discrepancy due to finite box and discretization:     -0.646268 (  -0.05056%)
MG Correction to account for finite box:                  0.468368
MG Remaining discrepancy, due to discretization:         -0.177901 (  -0.01392%)
      ideal mu1:      -0.765095566640
             Q0:  -11611.962840739521
             G0:      -0.170700313614
   RMS gradient:       0.000063448911
MG BCs: +ve charge blocks (gridpoints):     25306 (   17086487).
MG BCs: -ve charge blocks (gridpoints):      8434 (    1061944).
MG BCs:     Elided blocks (gridpoints):    168608 (  172822194).
MG BCs: Computational effort saved:  99.9823%.
MG BCs: Charge after coarse-graining:           -9.0007532.
MG DL_MG: Calling solver with defect correction order = 8
MG DL_MG: Solver finished
MG Hartree energy from (\int phi*rho dr):              1277.681788
MG Hartree energy from (\int eps (grad phi)^2 dr):     1277.035627
MG Discrepancy due to finite box and discretization:     -0.646161 (  -0.05057%)
MG Correction to account for finite box:                  0.468351
MG Remaining discrepancy, due to discretization:         -0.177810 (  -0.01392%)
     Trial step:       0.484724869420
             Q1:  -11612.013004369219
 Quadratic coef:       0.032579057528
 Linear coef   :      -0.082742687226
           Qmin:  -11612.015377190917
Quadratic minimum step length (  0.615540186005) accepted
    Initial Ne1:    7192.00053468
      Final Ne1:    7192.00000000

=================== Penalty functional idempotency correction ==================
 RMS occupancy error at iteration   1:  0.000069 (step -0.4997 Ne1=   7192.0000)
            Final RMS occupancy error   :  0.000000 (Ne1=   7192.0000)
               Final occupancy bounds   : [ -0.0000,  1.0000]
================================================================================

    3        -1.161196284074E+04     6.3449E-05     5.7388E-05    -1.9976E-01
MG BCs: +ve charge blocks (gridpoints):     25306 (   17086289).
MG BCs: -ve charge blocks (gridpoints):      8435 (    1062032).
MG BCs:     Elided blocks (gridpoints):    168608 (  172822304).
MG BCs: Computational effort saved:  99.9823%.
MG BCs: Charge after coarse-graining:           -9.0007532.
MG DL_MG: Calling solver with defect correction order = 8
MG DL_MG: Solver finished
MG Hartree energy from (\int phi*rho dr):              1277.519078
MG Hartree energy from (\int eps (grad phi)^2 dr):     1276.872946
MG Discrepancy due to finite box and discretization:     -0.646133 (  -0.05058%)
MG Correction to account for finite box:                  0.468347
MG Remaining discrepancy, due to discretization:         -0.177786 (  -0.01392%)
      ideal mu1:      -0.764172965567
             Q0:  -11612.015477608889
             G0:      -0.033060636769
   RMS gradient:       0.000027908675
MG BCs: +ve charge blocks (gridpoints):     25306 (   17086048).
MG BCs: -ve charge blocks (gridpoints):      8432 (    1062109).
MG BCs:     Elided blocks (gridpoints):    168608 (  172822468).
MG BCs: Computational effort saved:  99.9823%.
MG BCs: Charge after coarse-graining:           -9.0007532.
MG DL_MG: Calling solver with defect correction order = 8
MG DL_MG: Solver finished
MG Hartree energy from (\int phi*rho dr):              1277.558072
MG Hartree energy from (\int eps (grad phi)^2 dr):     1276.912025
MG Discrepancy due to finite box and discretization:     -0.646047 (  -0.05057%)
MG Correction to account for finite box:                  0.468348
MG Remaining discrepancy, due to discretization:         -0.177699 (  -0.01391%)
     Trial step:       0.546230387551
             Q1:  -11612.024333609967
 Quadratic coef:       0.009202723357
 Linear coef   :      -0.018058724435
           Qmin:  -11612.024336875749
Quadratic minimum step length (  0.535940485454) accepted
    Initial Ne1:    7192.00024006
      Final Ne1:    7192.00000000

=================== Penalty functional idempotency correction ==================
 RMS occupancy error at iteration   1:  0.000018 (step -0.4999 Ne1=   7192.0000)
            Final RMS occupancy error   :  0.000000 (Ne1=   7192.0000)
               Final occupancy bounds   : [ -0.0000,  1.0000]
================================================================================

    4        -1.161201547761E+04     2.7909E-05     2.5243E-05    -5.2637E-02
MG BCs: +ve charge blocks (gridpoints):     25306 (   17086052).
MG BCs: -ve charge blocks (gridpoints):      8432 (    1062110).
MG BCs:     Elided blocks (gridpoints):    168608 (  172822463).
MG BCs: Computational effort saved:  99.9823%.
MG BCs: Charge after coarse-graining:           -9.0007532.
MG DL_MG: Calling solver with defect correction order = 8
MG DL_MG: Solver finished
MG Hartree energy from (\int phi*rho dr):              1277.557325
MG Hartree energy from (\int eps (grad phi)^2 dr):     1276.911276
MG Discrepancy due to finite box and discretization:     -0.646049 (  -0.05057%)
MG Correction to account for finite box:                  0.468348
MG Remaining discrepancy, due to discretization:         -0.177701 (  -0.01391%)
      ideal mu1:      -0.764227867956
             Q0:  -11612.024341745535
             G0:      -0.009882307583
   RMS gradient:       0.000015278840
MG BCs: +ve charge blocks (gridpoints):     25305 (   17086465).
MG BCs: -ve charge blocks (gridpoints):      8433 (    1061967).
MG BCs:     Elided blocks (gridpoints):    168609 (  172822193).
MG BCs: Computational effort saved:  99.9823%.
MG BCs: Charge after coarse-graining:           -9.0007531.
MG DL_MG: Calling solver with defect correction order = 8
MG DL_MG: Solver finished
MG Hartree energy from (\int phi*rho dr):              1277.894780
MG Hartree energy from (\int eps (grad phi)^2 dr):     1277.248752
MG Discrepancy due to finite box and discretization:     -0.646028 (  -0.05055%)
MG Correction to account for finite box:                  0.468344
MG Remaining discrepancy, due to discretization:         -0.177684 (  -0.01390%)
     Trial step:       0.541060975375
             Q1:  -11612.026840180042
 Quadratic coef:       0.002848496473
 Linear coef   :      -0.005346930980
           Qmin:  -11612.026850935135
Quadratic minimum step length (  0.507814511670) accepted
    Initial Ne1:    7192.00008026
      Final Ne1:    7192.00000000

=================== Penalty functional idempotency correction ==================
 RMS occupancy error at iteration   1:  0.000007 (step -0.5000 Ne1=   7192.0000)
            Final RMS occupancy error   :  0.000000 (Ne1=   7192.0000)
               Final occupancy bounds   : [ -0.0000,  1.0000]
================================================================================

    5        -1.161202434175E+04     1.5279E-05     1.3819E-05    -8.8641E-03
MG BCs: +ve charge blocks (gridpoints):     25305 (   17086450).
MG BCs: -ve charge blocks (gridpoints):      8433 (    1061968).
MG BCs:     Elided blocks (gridpoints):    168609 (  172822207).
MG BCs: Computational effort saved:  99.9823%.
MG BCs: Charge after coarse-graining:           -9.0007531.
MG DL_MG: Calling solver with defect correction order = 8
MG DL_MG: Solver finished
MG Hartree energy from (\int phi*rho dr):              1277.874015
MG Hartree energy from (\int eps (grad phi)^2 dr):     1277.227986
MG Discrepancy due to finite box and discretization:     -0.646029 (  -0.05056%)
MG Correction to account for finite box:                  0.468345
MG Remaining discrepancy, due to discretization:         -0.177685 (  -0.01390%)
      ideal mu1:      -0.764493968284
             Q0:  -11612.026851534261
             G0:      -0.002261081930
   RMS gradient:       0.000007308415
MG BCs: +ve charge blocks (gridpoints):     25305 (   17086449).
MG BCs: -ve charge blocks (gridpoints):      8432 (    1061984).
MG BCs:     Elided blocks (gridpoints):    168609 (  172822192).
MG BCs: Computational effort saved:  99.9823%.
MG BCs: Charge after coarse-graining:           -9.0007531.
MG DL_MG: Calling solver with defect correction order = 8
MG DL_MG: Solver finished
MG Hartree energy from (\int phi*rho dr):              1277.830049
MG Hartree energy from (\int eps (grad phi)^2 dr):     1277.184028
MG Discrepancy due to finite box and discretization:     -0.646021 (  -0.05056%)
MG Correction to account for finite box:                  0.468340
MG Remaining discrepancy, due to discretization:         -0.177681 (  -0.01390%)
     Trial step:       0.524174221985
             Q1:  -11612.027515542344
 Quadratic coef:       0.000521192778
 Linear coef   :      -0.001185200862
           Qmin:  -11612.027525325775
Quadratic minimum step length (  0.595990356574) accepted
    Initial Ne1:    7192.00002419
      Final Ne1:    7192.00000000

=================== Penalty functional idempotency correction ==================
 RMS occupancy error at iteration   1:  0.000002 (step -0.5000 Ne1=   7192.0000)
            Final RMS occupancy error   :  0.000000 (Ne1=   7192.0000)
               Final occupancy bounds   : [  0.0000,  1.0000]
================================================================================

    6        -1.161202685153E+04     7.3084E-06     6.6103E-06    -2.5098E-03
MG BCs: +ve charge blocks (gridpoints):     25305 (   17086432).
MG BCs: -ve charge blocks (gridpoints):      8433 (    1062000).
MG BCs:     Elided blocks (gridpoints):    168609 (  172822193).
MG BCs: Computational effort saved:  99.9823%.
MG BCs: Charge after coarse-graining:           -9.0007531.
MG DL_MG: Calling solver with defect correction order = 8
MG DL_MG: Solver finished
MG Hartree energy from (\int phi*rho dr):              1277.824030
MG Hartree energy from (\int eps (grad phi)^2 dr):     1277.178010
MG Discrepancy due to finite box and discretization:     -0.646020 (  -0.05056%)
MG Correction to account for finite box:                  0.468340
MG Remaining discrepancy, due to discretization:         -0.177681 (  -0.01390%)
      ideal mu1:      -0.764431822582
             Q0:  -11612.027525391546
             G0:      -0.000710150879
   RMS gradient:       0.000004096642
MG BCs: +ve charge blocks (gridpoints):     25305 (   17086304).
MG BCs: -ve charge blocks (gridpoints):      8432 (    1062034).
MG BCs:     Elided blocks (gridpoints):    168609 (  172822287).
MG BCs: Computational effort saved:  99.9823%.
MG BCs: Charge after coarse-graining:           -9.0007531.
MG DL_MG: Calling solver with defect correction order = 8
MG DL_MG: Solver finished
MG Hartree energy from (\int phi*rho dr):              1277.770590
MG Hartree energy from (\int eps (grad phi)^2 dr):     1277.124565
MG Discrepancy due to finite box and discretization:     -0.646025 (  -0.05056%)
MG Correction to account for finite box:                  0.468343
MG Remaining discrepancy, due to discretization:         -0.177682 (  -0.01391%)
     Trial step:       0.558930032712
             Q1:  -11612.027687281603
 Quadratic coef:       0.000235034597
 Linear coef   :      -0.000396924654
           Qmin:  -11612.027692972386
Quadratic minimum step length (  0.471958411456) accepted
    Initial Ne1:    7191.99999942
      Final Ne1:    7192.00000000

=================== Penalty functional idempotency correction ==================
 RMS occupancy error at iteration   1:  0.000000 (step -0.5000 Ne1=   7192.0000)
            Final RMS occupancy error   :  0.000000 (Ne1=   7192.0000)
               Final occupancy bounds   : [  0.0000,  1.0000]
================================================================================

    7        -1.161202752539E+04     4.0966E-06     3.7053E-06    -6.7386E-04
MG BCs: +ve charge blocks (gridpoints):     25305 (   17086334).
MG BCs: -ve charge blocks (gridpoints):      8432 (    1062024).
MG BCs:     Elided blocks (gridpoints):    168609 (  172822267).
MG BCs: Computational effort saved:  99.9823%.
MG BCs: Charge after coarse-graining:           -9.0007531.
MG DL_MG: Calling solver with defect correction order = 8
MG DL_MG: Solver finished
MG Hartree energy from (\int phi*rho dr):              1277.778898
MG Hartree energy from (\int eps (grad phi)^2 dr):     1277.132874
MG Discrepancy due to finite box and discretization:     -0.646024 (  -0.05056%)
MG Correction to account for finite box:                  0.468342
MG Remaining discrepancy, due to discretization:         -0.177682 (  -0.01391%)
      ideal mu1:      -0.764383478964
             Q0:  -11612.027692970354
             G0:      -0.000334512890
   RMS gradient:       0.000002811574
MG BCs: +ve charge blocks (gridpoints):     25305 (   17086320).
MG BCs: -ve charge blocks (gridpoints):      8433 (    1062031).
MG BCs:     Elided blocks (gridpoints):    168609 (  172822274).
MG BCs: Computational effort saved:  99.9823%.
MG BCs: Charge after coarse-graining:           -9.0007531.
MG DL_MG: Calling solver with defect correction order = 8
MG DL_MG: Solver finished
MG Hartree energy from (\int phi*rho dr):              1277.762208
MG Hartree energy from (\int eps (grad phi)^2 dr):     1277.116184
MG Discrepancy due to finite box and discretization:     -0.646024 (  -0.05056%)
MG Correction to account for finite box:                  0.468342
MG Remaining discrepancy, due to discretization:         -0.177682 (  -0.01391%)
     Trial step:       0.513606591034
             Q1:  -11612.027814900503
 Quadratic coef:       0.000049877877
 Linear coef   :      -0.000171808025
           Qmin:  -11612.027840921706
Quadratic minimum step length (  0.884577882312) accepted
    Initial Ne1:    7191.99999948
      Final Ne1:    7192.00000000

=================== Penalty functional idempotency correction ==================
 RMS occupancy error at iteration   1:  0.000001 (step -0.5000 Ne1=   7192.0000)
            Final RMS occupancy error   :  0.000000 (Ne1=   7192.0000)
               Final occupancy bounds   : [  0.0000,  1.0000]
================================================================================

    8        -1.161202769297E+04     2.8116E-06     2.5430E-06    -1.6758E-04
MG BCs: +ve charge blocks (gridpoints):     25305 (   17086310).
MG BCs: -ve charge blocks (gridpoints):      8433 (    1062035).
MG BCs:     Elided blocks (gridpoints):    168609 (  172822280).
MG BCs: Computational effort saved:  99.9823%.
MG BCs: Charge after coarse-graining:           -9.0007531.
[...]
 RMS occupancy error at iteration   1:  0.000000 (step -0.5000 Ne1=   7192.0000)
            Final RMS occupancy error   :  0.000000 (Ne1=   7192.0000)
               Final occupancy bounds   : [ -0.0000,  1.0000]
================================================================================

    7        -1.164770872556E+04     7.5179E-09     6.7997E-09     0.0000E+00

Reusing previously generated solute cavity.
MG BCs: +ve charge blocks (gridpoints):     29577 (   19259141).
MG BCs: -ve charge blocks (gridpoints):      8445 (    1039758).
MG BCs:     Elided blocks (gridpoints):    164337 (  170671726).
MG BCs: Computational effort saved:  99.9801%.
MG BCs: Charge after coarse-graining:           -9.0009988.
MG DL_MG: Calling solver with defect correction order = 8
MG DL_MG: Solver finished
MG Hartree energy from (\int phi*rho dr):              1229.416400
MG Hartree energy from (\int eps (grad phi)^2 dr):     1229.233327
MG Discrepancy due to finite box and discretization:     -0.183073 (  -0.01489%)
MG Correction to account for finite box:                  0.006338
MG Remaining discrepancy, due to discretization:         -0.176735 (  -0.01438%)
      ideal mu1:      -0.514690020731
             Q0:  -11647.708725558012
             G0:      -0.000000002961
   RMS gradient:       0.000000006204

Reusing previously generated solute cavity.
MG BCs: +ve charge blocks (gridpoints):     29577 (   19259140).
MG BCs: -ve charge blocks (gridpoints):      8445 (    1039758).
MG BCs:     Elided blocks (gridpoints):    164337 (  170671727).
MG BCs: Computational effort saved:  99.9801%.
MG BCs: Charge after coarse-graining:           -9.0009988.
MG DL_MG: Calling solver with defect correction order = 8
MG DL_MG: Solver finished
MG Hartree energy from (\int phi*rho dr):              1229.416418
MG Hartree energy from (\int eps (grad phi)^2 dr):     1229.233345
MG Discrepancy due to finite box and discretization:     -0.183073 (  -0.01489%)
MG Correction to account for finite box:                  0.006338
MG Remaining discrepancy, due to discretization:         -0.176735 (  -0.01438%)
     Trial step:       0.230945993842
             Q1:  -11647.708725557663
 Quadratic coef:       0.000000001033
 Linear coef   :      -0.000000000684
           Qmin:  -11647.708725558125
Quadratic minimum step length (  0.076430471033) accepted
    Initial Ne1:    7192.00000000
      Final Ne1:    7192.00000000

=================== Penalty functional idempotency correction ==================
 RMS occupancy error at iteration   1:  0.000000 (step -0.5000 Ne1=   7192.0000)
            Final RMS occupancy error   :  0.000000 (Ne1=   7192.0000)
               Final occupancy bounds   : [ -0.0000,  1.0000]
================================================================================

    8        -1.164770872556E+04     6.2036E-09     5.6110E-09     1.1642E-10

Reusing previously generated solute cavity.
MG BCs: +ve charge blocks (gridpoints):     29577 (   19259140).
MG BCs: -ve charge blocks (gridpoints):      8445 (    1039758).
MG BCs:     Elided blocks (gridpoints):    164337 (  170671727).
MG BCs: Computational effort saved:  99.9801%.
MG BCs: Charge after coarse-graining:           -9.0009988.
MG DL_MG: Calling solver with defect correction order = 8
MG DL_MG: Solver finished
MG Hartree energy from (\int phi*rho dr):              1229.416406
MG Hartree energy from (\int eps (grad phi)^2 dr):     1229.233333
MG Discrepancy due to finite box and discretization:     -0.183073 (  -0.01489%)
MG Correction to account for finite box:                  0.006338
MG Remaining discrepancy, due to discretization:         -0.176735 (  -0.01438%)
      ideal mu1:      -0.514690022763
             Q0:  -11647.708725558012
             G0:      -0.000000002920
   RMS gradient:       0.000000005240

Reusing previously generated solute cavity.
MG BCs: +ve charge blocks (gridpoints):     29577 (   19259140).
MG BCs: -ve charge blocks (gridpoints):      8445 (    1039758).
MG BCs:     Elided blocks (gridpoints):    164337 (  170671727).
MG BCs: Computational effort saved:  99.9801%.
MG BCs: Charge after coarse-graining:           -9.0009988.
MG DL_MG: Calling solver with defect correction order = 8
MG DL_MG: Solver finished
MG Hartree energy from (\int phi*rho dr):              1229.416417
MG Hartree energy from (\int eps (grad phi)^2 dr):     1229.233344
MG Discrepancy due to finite box and discretization:     -0.183073 (  -0.01489%)
MG Correction to account for finite box:                  0.006338
MG Remaining discrepancy, due to discretization:         -0.176735 (  -0.01438%)
     Trial step:       0.132858236826
             Q1:  -11647.708725557546
 Quadratic coef:       0.000000000853
 Linear coef   :      -0.000000000388
           Qmin:  -11647.708725558055
Quadratic minimum step length (  0.030208314938) accepted
    Initial Ne1:    7192.00000000
      Final Ne1:    7192.00000000

=================== Penalty functional idempotency correction ==================
 RMS occupancy error at iteration   1:  0.000000 (step -0.5000 Ne1=   7192.0000)
            Final RMS occupancy error   :  0.000000 (Ne1=   7192.0000)
               Final occupancy bounds   : [  0.0000,  1.0000]
================================================================================

    9        -1.164770872556E+04     5.2404E-09     4.7398E-09     0.0000E+00

Reusing previously generated solute cavity.
MG BCs: +ve charge blocks (gridpoints):     29577 (   19259140).
MG BCs: -ve charge blocks (gridpoints):      8445 (    1039758).
MG BCs:     Elided blocks (gridpoints):    164337 (  170671727).
MG BCs: Computational effort saved:  99.9801%.
MG BCs: Charge after coarse-graining:           -9.0009988.
MG DL_MG: Calling solver with defect correction order = 8
MG DL_MG: Solver finished
MG Hartree energy from (\int phi*rho dr):              1229.416409
MG Hartree energy from (\int eps (grad phi)^2 dr):     1229.233336
MG Discrepancy due to finite box and discretization:     -0.183073 (  -0.01489%)
MG Correction to account for finite box:                  0.006338
MG Remaining discrepancy, due to discretization:         -0.176735 (  -0.01438%)
      ideal mu1:      -0.514690023604
   10        -1.164770872556E+04     4.8333E-09     4.3716E-09     1.1642E-10
Finished density kernel iterations (  10)

Writing density kernel to file "host_8081.dkn" ... done


>>> Density kernel optimised for the current NGWF basis:
     ~~~~~~~~~~~~~~~~~~~~~~~~~~~~~~~~~~~~~~~~~~~~~~~~~~~~~~~~~~~
     Total energy                =  -1.16477087255579E+04  Eh
     Estimated bandgap           =   1.2560E-01  Eh
     RMS occupancy error         =   5.0427E-16
     [H,K] commutator            =   4.3716E-09
     Occupancy bounds            = [  0.000:  1.000]
     ~~~~~~~~~~~~~~~~~~~~~~~~~~~~~~~~~~~~~~~~~~~~~~~~~~~~~~~~~~~




################################################################################
########################### NGWF CG iteration  005 #############################
################################################################################
****** Reciprocal space K.E. preconditioning with k_zero =  3.5000 a0^-1 *******

>>> Checking for convergence of NGWFs: 
           ........................................................
           |         *** NGWF optimisation converged ***          |
           | RMS NGWF gradient =    0.00000100438288              |
           | Criteria satisfied:                                  |
           | -> RMS NGWF gradient lower than set threshold.       |
           ========================================================

Reusing previously generated solute cavity.
MG BCs: +ve charge blocks (gridpoints):     29577 (   19259140).
MG BCs: -ve charge blocks (gridpoints):      8445 (    1039758).
MG BCs:     Elided blocks (gridpoints):    164337 (  170671727).
MG BCs: Computational effort saved:  99.9801%.
MG BCs: Charge after coarse-graining:           -9.0009988.
MG DL_MG: Calling solver with defect correction order = 8
MG DL_MG: Solver finished
MG Hartree energy from (\int phi*rho dr):              1229.416409
MG Hartree energy from (\int eps (grad phi)^2 dr):     1229.233336
MG Discrepancy due to finite box and discretization:     -0.183073 (  -0.01489%)
MG Correction to account for finite box:                  0.006338
MG Remaining discrepancy, due to discretization:         -0.176735 (  -0.01438%)

================================================================================
           ---------------- ENERGY COMPONENTS (Eh) ----------------
           | Kinetic                    :     8407.32392953199451 |
           | Pseudo. (local,OBC,corr'd) :    -4988.57855236795240 |
           | Pseudopotential (non-local):     1446.62600179886635 |
           | Hartree (molecular)        :     1229.41640858979531 |
           | Exchange-correlation       :    -3333.92614442590229 |
           | Ion-ion (open BC)          :   822720.42876925494056 |
           | Smeared ion non-self corr. :  -822672.46892500389367 |
           | Smeared ion self corr.     :   -14457.16956389741972 |
           | Solvent cavitation energy  :        2.27466320979537 |
           | Solute-solvent dis-rep en. :       -1.63531224810214 |
           | Total                      :   -11647.70872555786264 |
           --------------------------------------------------------
           ------ LOCAL ENERGY COMPONENTS FROM MATRIX TRACES ------
           | Pseudopotential (local)    :    -4988.57855236794785 |
           | Hartree                    :    -1987.46626870793170 |
           --------------------------------------------------------
           Integrated density           :     7191.99999999834563
           Integrated density tr(KS)    :     7192.00000000000000
================================================================================


                        <<<<< CALCULATION SUMMARY >>>>>                         
|ITER|    RMS GRADIENT   |     TOTAL ENERGY    |   step   |     Epredicted              
   0     0.00003732624361 -11647.66240822151303   0.524365 -11647.70230085226285        
   1     0.00001253751053 -11647.70756065030582   0.114375 -11647.70854235993829        
   2     0.00000543092119 -11647.70868766971398   0.019914 -11647.70871974230795        
   3     0.00000236640644 -11647.70872415916529   0.003847 -11647.70872533554575        
   4     0.00000100438288 -11647.70872555789538  <-- CG                                 

=================== Finished the calculation in solvent ========================
= Adjusting the following parameters: 
= read_denskern: F
= read_tightbox_ngwfs: F
= maxit_pen: 0 (restored to user-specified value)
= restart read filename prefix: ""
= restart write filename prefix: ""
================================================================================

================================================================================
IS: Calculation in solvent completed (NGWFs converged).      

Individual components of total energy in solvent:     hartree           kcal/mol
- Usual non-electrostatic DFT terms:    -12877.76448510938462    -8080919.043843
- Electrostatic fixed charge energy:      1229.41640858979531      771470.427222
- Apolar cavitation energy:                  2.27466320979537        1427.372683
- Apolar dispersion-repulsion energy:       -1.63531224810214       -1026.173906
 -------------------------------------------------------------------------------
- Total energy in solvent:              -11647.70872555789538    -7309047.417844

Components of total energy in solvent:                hartree           kcal/mol
- Usual non-electrostatic DFT terms:    -12877.76448510938462    -8080919.043843
- Electrostatic energy:                   1229.41640858979531      771470.427222
- Apolar energy terms:                       0.63935096169323         401.198777
 -------------------------------------------------------------------------------
- Total energy in solvent:              -11647.70872555789538    -7309047.417844

Calculation of free energy of solvation:              hartree           kcal/mol
- Total energy in solvent:         (+)  -11647.70872555789538    -7309047.417844
- Total energy in vacuum:          (-)  -11643.83809874602593    -7306618.562902
 -------------------------------------------------------------------------------
- Total free energy of solvation:           -3.87062681186944       -2428.854942

Components of polar term in f.e. of solvation:        hartree           kcal/mol
- Electrostatic:                            -4.86967710201725       -3055.768451
- Change in nonelectrostatic DFT terms:      0.35969932845364         225.714732
 -------------------------------------------------------------------------------
- Polar term in f.e. of solvation:          -4.50997777356361       -2830.053719

Components of free energy of solvation:               hartree           kcal/mol
- Polar term in f.e. of solvation: (+)      -4.50997777356361       -2830.053719
- Apolar (cavitation, dis., rep.): (+)       0.63935096169323         401.198777
 -------------------------------------------------------------------------------
- Total free energy of solvation:           -3.87062681187037       -2428.854942
================================================================================


------------------------------ TIMING INFORMATION ------------------------------
AVERAGE TIME:   76993.231s on     40 node(s)                                    
TOTAL TIME:     76993.231s on     40 node(s)                                    
================= AVERAGE TIMINGS FROM ALL NODES (CUMULATIVE) ==================
|| TAG                                    #calls    cpu time   %total  Gflops ||
|| work_imbalance                       :     1        0.00s   0.000%  ------ ||
|| parallel_prepare_fd_halos_request    :  2187        0.02s   0.000%  ------ ||
|| parallel_prepare_fd_halos_alloc      :  2187        0.04s   0.000%  ------ ||
|| sparse_set_to_garbage                :   232        0.06s   0.000%  ------ ||
|| parallel_prepare_fd_halos_satisfy    :  2187        0.07s   0.000%  ------ ||
|| ngwfs_initialise_from_radial         :     1        0.17s   0.000%  ------ ||
|| basis_extract_function_from_box      :  6017        0.24s   0.000%  ------ ||
|| restart_ngwfs_tightbox_input         :     1        1.04s   0.001%  ------ ||
|| pseudopotentials_nonlocal_mat        :    34        1.24s   0.002%  ------ ||
|| parallel_prepare_fd_halos_comms_imbal:  2187        3.40s   0.004%  ------ ||
|| openbc_locps_radial                  :     1        4.74s   0.006%  ------ ||
|| density_init_guess_real              :     1        5.31s   0.007%  ------ ||
|| restart_kernel_read                  :     1       10.82s   0.014%  ------ ||
|| parallel_prepare_fd_halos_clear      :  2187       15.42s   0.020%  ------ ||
|| restart_kernel_write                 :    19       18.53s   0.024%  ------ ||
|| sparse_init                          :     2       22.69s   0.029%  ------ ||
|| parallel_prepare_fd_halos_comms_wait :  2187       26.89s   0.035%  ------ ||
|| projectors_func_ovlp_box             :    34       27.55s   0.036%  ------ ||
|| projectors_init_fftbox_recip         :   232       31.25s   0.041%  ------ ||
|| function_ops_brappd_ketppd           :    34       33.88s   0.044%  ------ ||
|| palser_mano_kernel_optimise          :     1       42.81s   0.056%  ------ ||
|| parallel_prepare_fd_halos            :  2187       45.85s   0.060%  ------ ||
|| pseudo_make_structure_factor         :     2       54.61s   0.071%  ------ ||
|| ngwf_gradient_coeffs                 :    18       73.27s   0.095%  ------ ||
|| restart_ngwfs_tightbox_output        :    16       93.81s   0.122%  ------ ||
|| sparse_embed_hotelling_invert_embed  :    34      104.57s   0.136%  ------ ||
|| finite_difference_derivative         :  2187      119.44s   0.155%  ------ ||
|| basis_copy_function_to_box           : 186.2k     130.79s   0.170%  ------ ||
|| openbc_locps_on_grid                 :     2      194.55s   0.253%  ------ ||
|| integrals_kinetic                    :    34      204.71s   0.266%  ------ ||
|| projectors_gradient_batch            :   198      245.08s   0.318%  ------ ||
|| sparse_trace                         :  5332      283.47s   0.368%  ------ ||
|| fourier_apply_box_pair               : 52594      363.28s   0.472% 595.165 ||
|| kernel_purify                        :   557      405.36s   0.526%  ------ ||
|| basis_dot_function_with_box          : 21.17M     415.46s   0.540%  ------ ||
|| kernel_fix                           :   180      598.15s   0.777%  ------ ||
|| lnv_gradient_norm                    :   180      659.81s   0.857%  ------ ||
|| hamiltonian_energy_components        :     4      762.00s   0.990%  ------ ||
|| basis_add_function_to_box            : 56.68M    1057.03s   1.373%  ------ ||
|| integrals_locpot_mat_els_batch       :  2079     1061.49s   1.379%  ------ ||
|| ke_density_batch_grad_apply          :  3993     1206.02s   1.566%  ------ ||
|| density_batch_row_sums               :  3993     1420.17s   1.845%  ------ ||
|| ke_density_batch_row_sums            :  3993     1422.58s   1.848%  ------ ||
|| fourier_apply_cell_backward          :  9808     1733.31s   2.251%  75.989 ||
|| fourier_apply_cell_forward           :  9806     1974.29s   2.564%  66.700 ||
|| density_fftbox_deposit_to_cell       : 59169     2031.61s   2.639%  ------ ||
|| ke_density_fftbox_deposit_to_cell    : 59169     2133.85s   2.771%  ------ ||
|| cell_grid_deposit_box_real           : 120.6k    2344.33s   3.045%  ------ ||
|| sparse_product                       :  7131     2392.83s   3.108%  ------ ||
|| cell_grid_extract_box_real           : 148.4k    2471.28s   3.210%  ------ ||
|| multigrid_prepare_bound_cond         :   364     2798.93s   3.635%  ------ ||
|| ngwf_gradient_build_batch            :   198     2841.60s   3.691%  ------ ||
|| ngwf_gradient_batch                  :   198     3177.40s   4.127%  ------ ||
|| ngwf_gradient_lnv                    :    18     3383.82s   4.395%  ------ ||
|| potential_apply_to_ngwf_batch        :  2079     3886.96s   5.048%  ------ ||
|| density_fftbox_interpolate_multiply  : 59169     4311.89s   5.600%  ------ ||
|| xc_energy_potential                  :   364     4908.52s   6.375%  ------ ||
|| integrals_locpot_dbl_grid            :   189     4973.11s   6.459%  ------ ||
|| density_batch_interp_deposit         :  3993     7251.00s   9.418%  ------ ||
|| dl_mg_solver_calls                   :   364     7636.23s   9.918%  ------ ||
|| nlxc_vdw_energy                      :   726     8184.27s  10.630%  ------ ||
|| density_on_dbl_grid                  :   363     9258.13s  12.025%  ------ ||
|| potential_apply_to_fftbox_batch      :  5940    10440.32s  13.560%  ------ ||
|| multigrid_calculate_hartree          :   364    10612.67s  13.784%  ------ ||
|| integrals_div_locpot_grad_functions  :   180    15635.54s  20.308%  ------ ||
|| ke_density_fftbox_interpolate_multipl: 59169    17338.65s  22.520%  ------ ||
|| ke_density_batch_interp_deposit      :  3993    20457.56s  26.571%  ------ ||
|| fourier_apply_box                    : 1.344M   22616.36s  29.374% 808.665 ||
|| ke_density_on_dbl_grid               :   363    23707.10s  30.791%  ------ ||
|| hamiltonian_lhxc_calculate           :   359    48462.41s  62.944%  ------ ||
|| lnv_denskernel_optimise_cg           :    18    69250.75s  89.944%  ------ ||
|| ngwf_cg_optimise                     :     2    76188.73s  98.955%  ------ ||
|| total_time                           :     1    76993.23s 100.000%  ------ ||
================================================================================
Overhead of generating timer report: 
- 0 ms averaging over threads,
- 7 ms ensuring consistency across MPI ranks,
- 2 ms printing in order.

Job completed: 01-02-2020 04:01 (-0000)

