 +---------------------------------------------------------------+
 |                                                               |
 |        ####### #     # ####### ####### ####### ######         |
 |        #     # ##    # #          #    #       #     #        |
 |        #     # # #   # #          #    #       #     #        |
 |        #     # #  #  # #####      #    #####   ######         |
 |        #     # #   # # #          #    #       #              |
 |        #     # #    ## #          #    #       #              |
 |        ####### #     # #######    #    ####### #              |
 |                                                               |
 |        Linear-Scaling Ab Initio Total Energy Program          |
 |                                                               |
 |          Release for academic collaborators of ODG            |
 |                                             Version 5.3.2.6.  |
 |                                                               |
 +---------------------------------------------------------------+
 |                                                               |
 |  Authors:                                                     |
 |  Jacek Dziedzic, Peter D. Haynes, Nicholas D. M. Hine,        |
 |  Arash. A. Mostofi, Mike C. Payne and Chris-Kriton Skylaris   |
 |                                                               |
 |  Contributors:                                                |
 |  J. Aarons, L. Andrinopoulos, P. W. Avraam, R. A. Bell,       |
 |  A. Bhandari, G. A. Bramley, R. J. Charlton, S. J. Clark,     |
 |  R. J. Clements, G. C. Constantinescu, F. Corsetti,           |
 |  N. Corsini, O. Dieguez, S. M. M. Dubois, K. K. B. Duff,      |
 |  J. M. Escartin, A. Greco, H. Helal, Q. O. Hill, L. P. Lee,   |
 |  J.-H. Li, E. B. Linscott, G. Moynihan, D. D. O`Regan,        |
 |  O. K. Okan, M. J. S. Phipps, C. J. Pickard,                  |
 |  J. C. A. Prentice, M. I. J. Probert, L. E. Ratcliff,         |
 |  M. Robinson, A. Ruiz Serrano, J. S. Spencer, E. W. Tait,     |
 |  G. Teobaldi, D. Turban, V. Vitale, K. A. Wilkinson,          |
 |  C. Weber, J. C. Womack, N. Yeung and T. J. Zuehlsdorff       |
 |                                                               |
 |                                   Copyright (c) 2004-2019     |
 |                                                               |
 |  Please cite:                                                 |
 |  "Introducing ONETEP: Linear-scaling density functional       |
 |   simulations on parallel computers".                         |
 |   C.-K. Skylaris, P. D. Haynes, A. A. Mostofi, M. C. Payne.   |
 |   J. Chem. Phys. 122 084119 (2005).                           |
 |                                                               |
 |          in all publications arising from your use of ONETEP. |
 |                                                               |
 +---------------------------------------------------------------+
 |                                                               |
 |   ONETEP is based on developments described in the following  |
 |   publications:                                               |
 |                                                               |
 |  "Nonorthogonal generalized Wannier function pseudopotential  |
 |   plane-wave method".                                         |
 |   C.-K. Skylaris, A. A. Mostofi, P. D. Haynes, O. Dieguez,    |
 |   M. C. Payne.                                                |
 |   Phys. Rev. B 66 035119 (2002).                              |
 |                                                               |
 |  "Preconditioned iterative minimization for linear-scaling    |
 |   electronic structure calculations".                         |
 |   A. A. Mostofi, P. D. Haynes, C.-K. Skylaris, M. C. Payne.   |
 |   J. Chem. Phys. 119(17), pp.8842-8848 (2003).                |
 |                                                               |
 |  "Total-energy calculations on a real space grid with         |
 |   localized functions and a plane-wave basis".                |
 |   A. A. Mostofi, C.-K. Skylaris, P. D. Haynes, M. C. Payne.   |
 |   Comput. Phys. Commun. 147, pp.788-802 (2002).               |
 |                                                               |
 |  "Accurate kinetic energy evaluation in electronic structure  |
 |   calculations with localized functions on real space grids"  |
 |   C.-K. Skylaris, A. A. Mostofi, P. D. Haynes, C. J. Pickard, |
 |   M. C. Payne.                                                |
 |   Comput. Phys. Commun. 140, pp.315-322 (2001).               |
 |                                                               |
 |  "Accurate ionic forces and geometry optimization in linear-  |
 |   scaling density-functional theory with local orbitals"      |
 |   N. D. M. Hine, M. Robinson, P. D. Haynes, C.-K. Skylaris,   |
 |   M. C. Payne, and A. A. Mostofi.                             |
 |   Phys. Rev. B 83 195102 (2011).                              |
 |                                                               |
 +---------------------------------------------------------------+

Job started: 09-04-2020 09:52 (+0100)
 
Reading parameters from file "host_39241.dat" ...... done

If your calculation crashes here, before "Checking processes and threads..."
is displayed, then your stack size is insufficient.
If so, use "ulimit -s unlimited" at runtime.
You can disable this check with "check_stack_size F".

Checking processes and threads...
   Determining the default number of threads...
      No default threads set at compilation time: defaulting to 1.
      OpenMP library call suggests 4 threads.
      Hybrid MPI-OpenMP compilation detected.
      Number of MPI processes > 1.
      OMP_NUM_THREADS environment variable present and
      its value matches the one obtained from the OpenMP library call.
      Using this value as default.
      Default threads: 4
      Default applies to threads_max and threads_num_fftboxes.
      Settings in the input file override this default.
   ... done

   Running with 360 MPI processes.
   There are 6 MPI processes running on the same node as the root process.
   Each MPI process is using: 
               1 threads for simulation cell FFTs.
               1 threads for parallel FFT box operations.
               4 threads for loops over batched FFT box operations.
               4 threads in other parallel regions.
... done

Basic input checks...... done

Reading geometry and species blocks from file "host_39241.dat" ...
  <species_atomic_set> block not found: NGWF initialisation set to SOLVE
IS: Dielectric excluded regions:
    - NONE.
    
  Number of PPD points along a3 set to 1.  This is 
  the default value, it may have been provided also in the input file.
... done
 Writing xyz coordinates to file "host_39241.xyz" ... done


--------------------------------------------------------------------------------
---------------------------------- INPUT FILE ----------------------------------
--------------------------------------------------------------------------------

cutoff_energy       : 800 eV                                                    
xc_functional B97M-V                                                            
task SINGLEPOINT                                                                
write_xyz true                                                                  
output_detail VERBOSE                                                           
ngwf_threshold_orig : 0.000002                                                  
kernel_cutoff       : 1000                                                      
k_zero              : 3.5                                                       
elec_cg_max 0                                                                   
occ_mix 1.0                                                                     
dispersion 0                                                                    
maxit_ngwf_cg 40                                                                
minit_lnv 10                                                                    
maxit_lnv 10                                                                    
write_denskern T                                                                
write_tightbox_ngwfs T                                                          
charge 9                                                                        
is_implicit_solvent T                                                           
is_auto_solvation T                                                             
is_include_apolar T                                                             
is_smeared_ion_rep T                                                            
is_solvent_surf_tension 4.7624E-5 Ha/bohr**2                                    
is_apolar_scaling_factor 0.281075                                               
is_solvation_beta 1.3                                                           
is_density_threshold 0.00035                                                    
is_bulk_permittivity 78.54                                                      
is_dielectric_model fix_initial                                                 
is_smeared_ion_width 0.8                                                        
mg_defco_fd_order 8                                                             
is_bc_coarseness 10                                                             
is_bc_surface_coarseness 1                                                      
fine_grid_scale 2.0                                                             
%block species                                                                  
N   N   7 4 8.0                                                                 
H   H   1 1 8.0                                                                 
C   C   6 4 8.0                                                                 
S   S  16 9 8.0                                                                 
O   O   8 4 8.0                                                                 
%endblock species                                                               
%block species_pot                                                              
N   N_00.recpot                                                                 
H   H_04.recpot                                                                 
C   C_01.recpot                                                                 
S   S_00.recpot                                                                 
O   O_02.recpot                                                                 
%endblock species_pot                                                           
%block lattice_cart                                                             
135.996   0.000   0.000                                                         
0.000 142.663   0.000                                                           
0.000   0.000   160.158                                                         
%endblock lattice_cart                                                          
%block positions_abs                                                            
     Hash =  -000007854927984343354334
%endblock positions_abs                                                         

--------------------------------------------------------------------------------
-------------------------------- END INPUT FILE --------------------------------
--------------------------------------------------------------------------------


 
 ESDF WARNING(1): "kernelcutoff" (esdf_physical) has no units. Assume "bohr".
 ESDF WARNING(2): "kzero" (esdf_physical) has no units. Assume "1/bohr".
 ESDF WARNING(3
 ): "issmearedionwidth" (esdf_physical) has no units. Assume "bohr".
<<<<<<<<<<<<<<<<<<<<<<<<<<<<<<<<< Full system >>>>>>>>>>>>>>>>>>>>>>>>>>>>>>>>>>
<<<<<<<<<<<<<<<<<<<<<<<<< Pseudopotential information >>>>>>>>>>>>>>>>>>>>>>>>>>
File: N_00.recpot [ 2001 points up to Gmax=  52.9 (1/bohr)]
  Atomic number:  7;  ionic charge:  5.000000
    Shell 1: l = 0; rc = 1.48 bohr
File: H_04.recpot [ 2001 points up to Gmax=  52.9 (1/bohr)]
  Atomic number:  1;  ionic charge:  1.000000
    Local potential
File: C_01.recpot [ 2001 points up to Gmax=  52.9 (1/bohr)]
  Atomic number:  6;  ionic charge:  4.000000
    Shell 1: l = 0; rc = 1.48 bohr
File: S_00.recpot [ 2001 points up to Gmax=  52.9 (1/bohr)]
  Atomic number: 16;  ionic charge:  6.000000
    Shell 1: l = 0; rc = 1.90 bohr
    Shell 2: l = 2; rc = 1.84 bohr
File: O_02.recpot [ 2001 points up to Gmax=  52.9 (1/bohr)]
  Atomic number:  8;  ionic charge:  6.000000
    Shell 1: l = 0; rc = 1.31 bohr
<<<<<<<<<<<<<<<<<<<<<<<<<<<<<<<<<<<<<<<<>>>>>>>>>>>>>>>>>>>>>>>>>>>>>>>>>>>>>>>>

-------------------------- Atom counting information ---------------------------
Symbol    Natoms    Nngwfs    Nprojs
  N        236       944       236
  H       1311      1311         0
  C        810      3240       810
  S          6        54        36
  O        239       956       239
.......   ......    ......    ......
Totals:   2602      6505      1321
--------------------------------------------------------------------------------

=============================== PSINC grid sizes ===============================
                      Simulation cell:  270 x 286 x 315
                              FFT-box:   99 x 105 x  99
                                  PPD:    5 x  11 x   1
Grid space d1=  0.503688888889a0 (KE cutoff=  29.94189Eh = 814.76038eV)
Grid space d2=  0.498821678322a0 (KE cutoff=  30.52906Eh = 830.73786eV)
Grid space d3=  0.508438095238a0 (KE cutoff=  29.38514Eh = 799.61048eV)
================================================================================
  
WARNING in cell_grid_distribute:
Average of less than one 23-slab per node, so workload cannot be
equally balanced between nodes.

********************* Fourier parallelisation information **********************
       Coarse grid (whole simulation cell) dimensions:    270   286   315
          Real-space ('12') slabs/node (min max mean):      0     1     0
         Recip-space ('23') slabs/node (min max mean):      0     1     0
********************************************************************************
  
WARNING in cell_grid_distribute:
Average of less than one 23-slab per node, so workload cannot be
equally balanced between nodes.

********************* Fourier parallelisation information **********************
       Double grid (whole simulation cell) dimensions:    540   572   630
          Real-space ('12') slabs/node (min max mean):      0     7     1
         Recip-space ('23') slabs/node (min max mean):      0     1     0
********************************************************************************
ONETEP fine grid is 540 x 572 x 630 gridpoints, 135.9960 x 142.6630 x 160.1580 bohr.
FD multigrid is     537 x 569 x 625 gridpoints, 135.2405 x 141.9148 x 158.8869 bohr.


Calculating local pseudopotential in open BC on a radial grid ...
Discrepancy between calculated realspace psloc and -Z/x on [5a0,253.965a0]:
max |rel. diff| # avg |rel. diff| #  avg rel. diff #  f # pseudopotential file
 0.000259282084    0.000004141996   0.000000074978   54  'N_00.recpot'
 0.000405386992    0.000016970607  -0.000000075982   54  'H_04.recpot'
 0.000371694516    0.000017434762   0.000000149329   54  'C_01.recpot'
 0.000461642895    0.000020341726   0.000000491514   54  'S_00.recpot'
 0.000682525123    0.000027368244   0.000000159803   54  'O_02.recpot'
... done
 WARNING: meta-GGA functionality under development.
          Using this functional is experimental.
          Minimum tau threshold, xc_min_tau =   1.00000000E-12
 WARNING: Using alternative XC functional PBE for 
          radial densities (xc_radial).

Atom SCF Calculation for N  : Z (AE atom) =   7 : Z (PS atom) =   5
Config String:
Orbitals (num,occ):  2     2.00 3.00
Orbitals   (num,l):  2        0    1
Real-space Grid (nr,dr,rmax): 1203    0.0066555740    8.0000000000
Spherical Bessel Basis (nsws,lmax,cutoff):   47    1  176.3951722778
Confining potential (l,width,scale):  0    3.0000000000  100.0000000000
Confining potential (l,width,scale):  1    3.0000000000  100.0000000000
  1         -4.7312375307   -3.4155304497    7.0523828109   -1.9351020946
  2         -9.7309464766   -2.0532547791    8.2966052865   -2.2494486027
  3         -9.6627394379   -2.1124926340    8.2327997121   -2.2369778124
  4         -9.6814993499   -2.1215521045    8.2229805960   -2.2365178421
  5         -9.6843326483   -2.1250939529    8.2191374534   -2.2362718126
  6         -9.6859628709   -2.1267894855    8.2172963573   -2.2362066344
  7         -9.6867347035   -2.1276425665    8.2163697352   -2.2361903369
  8         -9.6870802100   -2.1280764625    8.2158983890   -2.2361891460
  9         -9.6872290423   -2.1282977424    8.2156580222   -2.2361920435
 10         -9.6872901988   -2.1284107021    8.2155353368   -2.2361953393
 11         -9.6873135296   -2.1284684031    8.2154726809   -2.2361979819
 12         -9.6873212476   -2.1284978948    8.2154406648   -2.2361998431
 13         -9.6873229586   -2.1285129774    8.2154242957   -2.2362010676
 14         -9.6873226456   -2.1285206957    8.2154159216   -2.2362018403
 15         -9.6873218534   -2.1285246479    8.2154116349   -2.2362023142
 16         -9.6873212599   -2.1285262679    8.2154098784   -2.2362025420
 17         -9.6873207834   -2.1285272564    8.2154088068   -2.2362026955
 18         -9.6873204210   -2.1285278596    8.2154081529   -2.2362027982
 19         -9.6873201550   -2.1285282280    8.2154077538   -2.2362028667
 20         -9.6873199645   -2.1285284529    8.2154075102   -2.2362029121
 21         -9.6873198305   -2.1285285903    8.2154073614   -2.2362029421
 22         -9.6873197377   -2.1285286742    8.2154072705   -2.2362029618
Atom SCF converged after  22 iterations to a total energy of     -9.68731974

Atom SCF Calculation for H  : Z (AE atom) =   1 : Z (PS atom) =   1
Config String:
Orbitals (num,occ):  1     1.00
Orbitals   (num,l):  1        0
Real-space Grid (nr,dr,rmax): 1203    0.0066555740    8.0000000000
Spherical Bessel Basis (nsws,lmax,cutoff):   47    0  176.3951722778
Confining potential (l,width,scale):  0    3.0000000000  100.0000000000
  1         -0.3194257691   -0.2393854593    0.2820953124   -0.2424203209
  2         -0.3951823392   -0.2377116493    0.2886404059   -0.2475147891
  3         -0.4317044583   -0.2352244387    0.2921333887   -0.2514046172
  4         -0.4470703708   -0.2341892222    0.2934391879   -0.2531009782
  5         -0.4532132900   -0.2338556667    0.2938388426   -0.2537313520
  6         -0.4556579251   -0.2337612552    0.2939448584   -0.2539550462
  7         -0.4566418315   -0.2337377355    0.2939680120   -0.2540342273
  8         -0.4570437922   -0.2337331116    0.2939708287   -0.2540627372
  9         -0.4572102946   -0.2337328328    0.2939698291   -0.2540732650
 10         -0.4572800424   -0.2337332404    0.2939687193   -0.2540772588
 11         -0.4573095100   -0.2337335791    0.2939680317   -0.2540788122
 12         -0.4573220379   -0.2337337762    0.2939676699   -0.2540794294
 13         -0.4573273880   -0.2337338775    0.2939674931   -0.2540796787
 14         -0.4573296803   -0.2337339266    0.2939674099   -0.2540797808
 15         -0.4573306647   -0.2337339495    0.2939673718   -0.2540798230
 16         -0.4573310882   -0.2337339601    0.2939673545   -0.2540798406
 17         -0.4573312706   -0.2337339649    0.2939673467   -0.2540798479
 18         -0.4573313493   -0.2337339670    0.2939673433   -0.2540798510
Atom SCF converged after  18 iterations to a total energy of     -0.45733135

Atom SCF Calculation for C  : Z (AE atom) =   6 : Z (PS atom) =   4
Config String:
Orbitals (num,occ):  2     2.00 2.00
Orbitals   (num,l):  2        0    1
Real-space Grid (nr,dr,rmax): 1203    0.0066555740    8.0000000000
Spherical Bessel Basis (nsws,lmax,cutoff):   47    1  176.3951722778
Confining potential (l,width,scale):  0    3.0000000000  100.0000000000
Confining potential (l,width,scale):  1    3.0000000000  100.0000000000
  1         -5.2976922011   -1.3069684169    4.5135249990   -1.4493313817
  2         -5.3721716256   -1.3429755895    4.4750154450   -1.4361613026
  3         -5.3809959565   -1.3617365618    4.4541655428   -1.4305930207
  4         -5.3918938866   -1.3667928461    4.4484735100   -1.4294652294
  5         -5.3956096428   -1.3688539142    4.4461376126   -1.4290734646
  6         -5.3968271862   -1.3696852393    4.4451910874   -1.4289366866
  7         -5.3972028401   -1.3700178062    4.4448112275   -1.4288900460
  8         -5.3973067903   -1.3701500158    4.4446598370   -1.4288749220
  9         -5.3973286940   -1.3702023868    4.4445997329   -1.4288704293
 10         -5.3973289850   -1.3702230869    4.4445759233   -1.4288693188
 11         -5.3973254264   -1.3702312560    4.4445665049   -1.4288691775
 12         -5.3973224003   -1.3702344755    4.4445627836   -1.4288692549
 13         -5.3973208708   -1.3702354890    4.4445616088   -1.4288693270
 14         -5.3973198783   -1.3702360102    4.4445610034   -1.4288693814
 15         -5.3973192535   -1.3702362780    4.4445606917   -1.4288694190
 16         -5.3973188684   -1.3702364155    4.4445605313   -1.4288694437
 17         -5.3973186349   -1.3702364860    4.4445604489   -1.4288694595
 18         -5.3973184951   -1.3702365221    4.4445604065   -1.4288694693
 19         -5.3973184122   -1.3702365405    4.4445603848   -1.4288694753
Atom SCF converged after  19 iterations to a total energy of     -5.39731841

Atom SCF Calculation for S  : Z (AE atom) =  16 : Z (PS atom) =   6
Config String:
Orbitals (num,occ):  3     2.00 4.00 0.00
Orbitals   (num,l):  3        0    1    2
Real-space Grid (nr,dr,rmax): 1203    0.0066555740    8.0000000000
Spherical Bessel Basis (nsws,lmax,cutoff):   47    2  176.3951722778
Confining potential (l,width,scale):  0    3.0000000000  100.0000000000
Confining potential (l,width,scale):  1    3.0000000000  100.0000000000
Confining potential (l,width,scale):  2    3.0000000000  100.0000000000
  1        -12.4735062396   -1.0328741412   10.1554312477   -2.4512393157
  2         -9.9458301913   -2.4607392455    8.3041325857   -2.0306994528
  3        -10.1450417646   -2.2931184565    8.4831893826   -2.0812538287
  4        -10.1528335592   -2.2733105793    8.5050388867   -2.0896035179
  5        -10.1571940363   -2.2633716629    8.5160794258   -2.0939370707
  6        -10.1594380571   -2.2584938667    8.5215163935   -2.0961289008
  7        -10.1605856507   -2.2561081821    8.5241804044   -2.0972291378
  8        -10.1611799191   -2.2549395235    8.5254868240   -2.0977806248
  9        -10.1614918752   -2.2543658586    8.5261285885   -2.0980571586
 10        -10.1616572884   -2.2540839121    8.5264441898   -2.0981959233
 11        -10.1617455602   -2.2539453058    8.5265994231   -2.0982656006
 12        -10.1617928447   -2.2538772062    8.5266757320   -2.0983006047
 13        -10.1618182292   -2.2538437891    8.5267131983   -2.0983181961
 14        -10.1618318741   -2.2538274201    8.5267315620   -2.0983270391
 15        -10.1618392144   -2.2538194197    8.5267405433   -2.0983314852
 16        -10.1618431651   -2.2538155200    8.5267449245   -2.0983337210
 17        -10.1618452923   -2.2538136252    8.5267470551   -2.0983348455
 18        -10.1618464380   -2.2538127080    8.5267480875   -2.0983354110
 19        -10.1618470552   -2.2538122659    8.5267485856   -2.0983356955
 20        -10.1618473878   -2.2538120540    8.5267488248   -2.0983358386
 21        -10.1618475670   -2.2538119530    8.5267489389   -2.0983359106
 22        -10.1618476637   -2.2538119053    8.5267489929   -2.0983359468
Atom SCF converged after  22 iterations to a total energy of    -10.16184766

Atom SCF Calculation for O  : Z (AE atom) =   8 : Z (PS atom) =   6
Config String:
Orbitals (num,occ):  2     2.00 4.00
Orbitals   (num,l):  2        0    1
Real-space Grid (nr,dr,rmax): 1203    0.0066555740    8.0000000000
Spherical Bessel Basis (nsws,lmax,cutoff):   47    1  176.3951722778
Confining potential (l,width,scale):  0    3.0000000000  100.0000000000
Confining potential (l,width,scale):  1    3.0000000000  100.0000000000
  1         -1.8735052164   -7.5539365035   10.1554312477   -2.4512393157
  2        -16.0318313751   -3.1285771268   13.6395848164   -3.2358799643
  3        -15.9524020423   -3.0762819706   13.6967272503   -3.2536856837
  4        -15.8521515939   -3.0781493909   13.6951909330   -3.2561700440
  5        -15.8357139793   -3.0748501933   13.6988803334   -3.2580493133
  6        -15.8246052853   -3.0740779781   13.6997881576   -3.2588327446
  7        -15.8189019501   -3.0737449687   13.7001869911   -3.2592378801
  8        -15.8159785510   -3.0736026016   13.7003615168   -3.2594475790
  9        -15.8144776168   -3.0735437994   13.7004360379   -3.2595560735
 10        -15.8137058024   -3.0735207882   13.7004667348   -3.2596122456
 11        -15.8133083127   -3.0735125946   13.7004786868   -3.2596413656
 12        -15.8131032938   -3.0735102195   13.7004828997   -3.2596564858
 13        -15.8129973902   -3.0735099286   13.7004840891   -3.2596643505
 14        -15.8129426040   -3.0735102506   13.7004842061   -3.2596684489
 15        -15.8129142203   -3.0735106556   13.7004840157   -3.2596705887
 16        -15.8128994940   -3.0735109855   13.7004837906   -3.2596717080
 17        -15.8128918425   -3.0735112169   13.7004836103   -3.2596722946
 18        -15.8128878614   -3.0735113674   13.7004834848   -3.2596726026
 19        -15.8128857871   -3.0735114608   13.7004834035   -3.2596727646
 20        -15.8128847048   -3.0735115170   13.7004833533   -3.2596728500
 21        -15.8128841394   -3.0735115501   13.7004833231   -3.2596728951
 22        -15.8128838436   -3.0735115693   13.7004833054   -3.2596729190
 23        -15.8128836887   -3.0735115802   13.7004832951   -3.2596729316
 24        -15.8128836074   -3.0735115864   13.7004832893   -3.2596729383
Atom SCF converged after  24 iterations to a total energy of    -15.81288361

========================== Calculation in vacuum ==============================
= Adjusting the following parameters: 
= is_implicit_solvent: F
= is_include_apolar: F
= write_denskern: T
= write_tightbox_ngwfs: T
= restart read filename prefix: ""
= restart write filename prefix: "vacuum_"
===============================================================================

Determining parallel strategy ...
... using space-filling curve
... NGWF load balancing: max     19;  min     18;  average     18
... Projector load balancing: max      7;  min      3;  average      4
... done
Calculating direct Ion-Ion energy ...
Ion-Ion Energy        :    826100.47490954282694
Basis initialisation ...... NGWF spheres initialised
... Projector spheres initialised
... NGWF tight boxes initialised
... Tight-boxes gathered
... NGWF basis size (local,global):     645022 233384427
... Nonlocal pseudopotential projector initialisation
... done

========================== Sparse matrix information ===========================
                        Overlap matrix filling:   6.77%
                        Density kernel filling: 100.00%
              NGWF-Proj overlap matrix filling:   1.79%
                    Hamiltonian matrix filling:   7.67%
                  NGWF diagonal matrix filling:   0.05%
                             KS matrix filling: 100.00% 
                           KSKS matrix filling: 100.00% 
================================================================================

Sparse matrix initialisation ... done

Generating smeared ion density ... done
Smeared ion self correction:     -14457.169564
Smeared ion non-self correction: -826052.475534
NGWF initialisation ...... done
============ Calculation of NGWF S^-1 using Hotelling algorithm ================ 
         Iteration  |  Frobenius norm and Maximum abs value    (of I-S*S_n^-1)   
               1       0.78388260E+02     0.98175611E+00
               2       0.76472296E+02     0.96403048E+00
               3       0.73393487E+02     0.93002578E+00
               4       0.69057031E+02     0.86716870E+00
               5       0.63695059E+02     0.76016140E+00
               6       0.57705631E+02     0.70350050E+00
               7       0.51729612E+02     0.66883837E+00
               8       0.46199394E+02     0.64311080E+00
               9       0.40039795E+02     0.60136361E+00
              10       0.31613924E+02     0.52901739E+00
              11       0.20955470E+02     0.41312083E+00
              12       0.10466377E+02     0.26797128E+00
              13       0.33168632E+01     0.11691769E+00
              14       0.49102824E+00     0.32772749E-01
              15       0.21424589E-01     0.28213437E-02
              16       0.10038719E-03     0.22303379E-04
              17       0.45700303E-08     0.14256418E-08
              18       0.77541722E-13     0.31086245E-14
================================================================================
Calculating local pseudopotential in open BC on the fine real space grid ...
... done

MG BCs: +ve charge blocks (gridpoints):     20290 (   15945169).
MG BCs: -ve charge blocks (gridpoints):      8074 (    1084900).
MG BCs:     Elided blocks (gridpoints):    173624 (  173940556).
MG BCs: Computational effort saved:  99.9851%.
MG BCs: Charge after coarse-graining:           -9.0002233.
MG DL_MG: Calling solver with defect correction order = 8
MG DL_MG: Solver finished
MG Hartree energy from (\int phi*rho dr):              1462.608016
MG Hartree energy from (\int eps (grad phi)^2 dr):     1461.990606
MG Discrepancy due to finite box and discretization:     -0.617410 (  -0.04221%)
MG Correction to account for finite box:                  0.466832
MG Remaining discrepancy, due to discretization:         -0.150578 (  -0.01030%)
 WARNING: xc_energy_potential using alternative initial XC functional PBE.
Up spin density kernel initialisation ... 
======= Optimisation of K by Palser-Manolopoulos canonical purification ======== 
         Iteration  |  Band structure energy |    c_n   
               1       -2583.93693642875132    0.5264567
               2       -2759.61824755027419    0.5167977
               3       -2939.26234680570360    0.5154804
               4       -3088.63575997195403    0.5292951
               5       -3179.92602284901022    0.5650832
               6       -3217.90508712631072    0.6084915
               7       -3230.85215493544456    0.6173595
               8       -3236.52020924730641    0.6122447
               9       -3239.25928054831002    0.6225349
              10       -3240.36701761950371    0.6500552
              11       -3240.76686967273417    0.6777975
              12       -3240.92235985656771    0.6739117
              13       -3241.00016676506584    0.6211840
              14       -3241.05028832796415    0.5483142
              15       -3241.07826291230731    0.4981470
              16       -3241.08624916395365    0.5080243
              17       -3241.08762201974650    0.5308175
              18       -3241.08821243828834    0.5184462
              19       -3241.08856623170232    0.5026226
              20       -3241.08882174979135    0.5000421
              21       -3241.08894002912984    0.5000000
              22       -3241.08895778491478    0.5000000
              23       -3241.08895811190496    0.5000000
Termination criterion satisfied: band energy change below threshold.
Final occupancy bounds: [    0.00000000007774:    0.99999999999984]
Closest occupancy to 0.5:     0.99999999999667
================================================================================
... done

Writing density kernel to file "host_39241.vacuum_dkn" ... done

>>> Optimising kernel for current NGWFs:
   Initial electron number for spin 1:    7192.00000000
     Final electron number for spin 1:    7192.00000000

=================== Penalty functional idempotency correction ==================
 RMS occupancy error at iteration   1:  0.000000 (step -0.5000 Ne1=   7192.0000)
            Final RMS occupancy error   :  0.000000 (Ne1=   7192.0000)
               Final occupancy bounds   : [  0.0000,  1.0000]
================================================================================

................................................................................
<<<<<<<<<<<<<< LNV (Original version) density kernel optimisation >>>>>>>>>>>>>>
~~~~~~~~~~~~~~~~~~~~~~~~~~~~~~~~~~~~~~~~~~~~~~~~~~~~~~~~~~~~~~~~~~~~~~~~~~~~~~~~
   iter  |      energy (Eh)       | rms gradient |  commutator  |   dE (Eh)
MG BCs: +ve charge blocks (gridpoints):     30744 (   17088017).
MG BCs: -ve charge blocks (gridpoints):      8389 (    1117268).
MG BCs:     Elided blocks (gridpoints):    163164 (  172765340).
MG BCs: Computational effort saved:  99.9795%.
MG BCs: Charge after coarse-graining:           -9.0009572.
MG DL_MG: Calling solver with defect correction order = 8
MG DL_MG: Solver finished
MG Hartree energy from (\int phi*rho dr):              1418.141443
MG Hartree energy from (\int eps (grad phi)^2 dr):     1417.468461
MG Discrepancy due to finite box and discretization:     -0.672983 (  -0.04746%)
MG Correction to account for finite box:                  0.479521
MG Remaining discrepancy, due to discretization:         -0.193462 (  -0.01364%)
      ideal mu1:      -0.729453041934
             Q0:  -11470.354339012993
             G0:    -128.117861520273
   RMS gradient:       0.001740033220
MG BCs: +ve charge blocks (gridpoints):     30745 (   17167971).
MG BCs: -ve charge blocks (gridpoints):      8288 (    1094615).
MG BCs:     Elided blocks (gridpoints):    163159 (  172708039).
MG BCs: Computational effort saved:  99.9796%.
MG BCs: Charge after coarse-graining:           -9.0009794.
MG DL_MG: Calling solver with defect correction order = 8
MG DL_MG: Solver finished
MG Hartree energy from (\int phi*rho dr):              1439.590447
MG Hartree energy from (\int eps (grad phi)^2 dr):     1438.935174
MG Discrepancy due to finite box and discretization:     -0.655273 (  -0.04552%)
MG Correction to account for finite box:                  0.477445
MG Remaining discrepancy, due to discretization:         -0.177828 (  -0.01235%)
     Trial step:       0.500000000000
             Q1:  -11482.987266581622
 Quadratic coef:      51.426003191507
 Linear coef   :     -64.058930760137
           Qmin:  -11490.303131236114
Quadratic minimum step length (  0.311413131415) accepted
    Initial Ne1:    7192.00000000
      Final Ne1:    7192.00000000

=================== Penalty functional idempotency correction ==================
 RMS occupancy error at iteration   1:  0.003278 (step -0.4888 Ne1=   7192.0000)
 RMS occupancy error at iteration   2:  0.000029 (step -0.5003 Ne1=   7192.0000)
            Final RMS occupancy error   :  0.000000 (Ne1=   7192.0000)
               Final occupancy bounds   : [  0.0000,  1.0000]
================================================================================

    1        -1.147035433901E+04     1.7400E-03     1.5738E-03
MG BCs: +ve charge blocks (gridpoints):     30736 (   17139752).
MG BCs: -ve charge blocks (gridpoints):      8329 (    1103489).
MG BCs:     Elided blocks (gridpoints):    163169 (  172727384).
MG BCs: Computational effort saved:  99.9795%.
MG BCs: Charge after coarse-graining:           -9.0009705.
MG DL_MG: Calling solver with defect correction order = 8
MG DL_MG: Solver finished
MG Hartree energy from (\int phi*rho dr):              1424.899398
MG Hartree energy from (\int eps (grad phi)^2 dr):     1424.238287
MG Discrepancy due to finite box and discretization:     -0.661111 (  -0.04640%)
MG Correction to account for finite box:                  0.478114
MG Remaining discrepancy, due to discretization:         -0.182996 (  -0.01284%)
      ideal mu1:      -0.777177268257
             Q0:  -11490.696254372131
             G0:     -11.650300622548
   RMS gradient:       0.000520846851
MG BCs: +ve charge blocks (gridpoints):     30739 (   17156830).
MG BCs: -ve charge blocks (gridpoints):      8300 (    1096750).
MG BCs:     Elided blocks (gridpoints):    163165 (  172717045).
MG BCs: Computational effort saved:  99.9796%.
MG BCs: Charge after coarse-graining:           -9.0009756.
MG DL_MG: Calling solver with defect correction order = 8
MG DL_MG: Solver finished
MG Hartree energy from (\int phi*rho dr):              1430.195994
MG Hartree energy from (\int eps (grad phi)^2 dr):     1429.539193
MG Discrepancy due to finite box and discretization:     -0.656800 (  -0.04592%)
MG Correction to account for finite box:                  0.476854
MG Remaining discrepancy, due to discretization:         -0.179947 (  -0.01258%)
     Trial step:       0.394596712743
             Q1:  -11493.364563142182
 Quadratic coef:       1.928861558074
 Linear coef   :      -4.597170328125
           Qmin:  -11493.435431652291
Quadratic minimum step length (  0.470232892507) accepted
    Initial Ne1:    7191.99969855
      Final Ne1:    7192.00000000

=================== Penalty functional idempotency correction ==================
 RMS occupancy error at iteration   1:  0.001597 (step -0.4936 Ne1=   7192.0000)
 RMS occupancy error at iteration   2:  0.000014 (step -0.5005 Ne1=   7192.0000)
            Final RMS occupancy error   :  0.000000 (Ne1=   7192.0000)
               Final occupancy bounds   : [  0.0000,  1.0000]
================================================================================

    2        -1.149069625437E+04     5.2085E-04     4.7109E-04    -2.0342E+01
MG BCs: +ve charge blocks (gridpoints):     30737 (   17160102).
MG BCs: -ve charge blocks (gridpoints):      8295 (    1095343).
MG BCs:     Elided blocks (gridpoints):    163167 (  172715180).
MG BCs: Computational effort saved:  99.9796%.
MG BCs: Charge after coarse-graining:           -9.0009767.
MG DL_MG: Calling solver with defect correction order = 8
MG DL_MG: Solver finished
MG Hartree energy from (\int phi*rho dr):              1431.243024
MG Hartree energy from (\int eps (grad phi)^2 dr):     1430.587000
MG Discrepancy due to finite box and discretization:     -0.656024 (  -0.04584%)
MG Correction to account for finite box:                  0.476625
MG Remaining discrepancy, due to discretization:         -0.179399 (  -0.01253%)
      ideal mu1:      -0.801410197678
             Q0:  -11493.472314440412
             G0:      -1.956016408086
   RMS gradient:       0.000213444239
MG BCs: +ve charge blocks (gridpoints):     30735 (   17160685).
MG BCs: -ve charge blocks (gridpoints):      8295 (    1095596).
MG BCs:     Elided blocks (gridpoints):    163169 (  172714344).
MG BCs: Computational effort saved:  99.9796%.
MG BCs: Charge after coarse-graining:           -9.0009771.
MG DL_MG: Calling solver with defect correction order = 8
MG DL_MG: Solver finished
MG Hartree energy from (\int phi*rho dr):              1430.526013
MG Hartree energy from (\int eps (grad phi)^2 dr):     1429.870645
MG Discrepancy due to finite box and discretization:     -0.655368 (  -0.04581%)
MG Correction to account for finite box:                  0.476182
MG Remaining discrepancy, due to discretization:         -0.179186 (  -0.01253%)
     Trial step:       0.430757882815
             Q1:  -11493.980835454888
 Quadratic coef:       0.334048472223
 Linear coef   :      -0.842569486698
           Qmin:  -11494.003617079810
Quadratic minimum step length (  0.543249675412) accepted
    Initial Ne1:    7191.99978315
      Final Ne1:    7192.00000000

=================== Penalty functional idempotency correction ==================
 RMS occupancy error at iteration   1:  0.000654 (step -0.4963 Ne1=   7192.0000)
 RMS occupancy error at iteration   2:  0.000005 (step -0.5003 Ne1=   7192.0000)
            Final RMS occupancy error   :  0.000000 (Ne1=   7192.0000)
               Final occupancy bounds   : [  0.0000,  1.0000]
================================================================================

    3        -1.149347231444E+04     2.1344E-04     1.9306E-04    -2.7761E+00
MG BCs: +ve charge blocks (gridpoints):     30734 (   17160897).
MG BCs: -ve charge blocks (gridpoints):      8295 (    1095688).
MG BCs:     Elided blocks (gridpoints):    163170 (  172714040).
MG BCs: Computational effort saved:  99.9796%.
MG BCs: Charge after coarse-graining:           -9.0009772.
MG DL_MG: Calling solver with defect correction order = 8
MG DL_MG: Solver finished
MG Hartree energy from (\int phi*rho dr):              1430.344839
MG Hartree energy from (\int eps (grad phi)^2 dr):     1429.689629
MG Discrepancy due to finite box and discretization:     -0.655210 (  -0.04581%)
MG Correction to account for finite box:                  0.476068
MG Remaining discrepancy, due to discretization:         -0.179142 (  -0.01252%)
      ideal mu1:      -0.804377315167
             Q0:  -11494.008831838612
             G0:      -0.480370067507
   RMS gradient:       0.000105991586
MG BCs: +ve charge blocks (gridpoints):     30732 (   17161345).
MG BCs: -ve charge blocks (gridpoints):      8293 (    1095566).
MG BCs:     Elided blocks (gridpoints):    163173 (  172713714).
MG BCs: Computational effort saved:  99.9796%.
MG BCs: Charge after coarse-graining:           -9.0009771.
MG DL_MG: Calling solver with defect correction order = 8
MG DL_MG: Solver finished
MG Hartree energy from (\int phi*rho dr):              1431.479518
MG Hartree energy from (\int eps (grad phi)^2 dr):     1430.824364
MG Discrepancy due to finite box and discretization:     -0.655153 (  -0.04577%)
MG Correction to account for finite box:                  0.475868
MG Remaining discrepancy, due to discretization:         -0.179285 (  -0.01252%)
     Trial step:       0.483744850123
             Q1:  -11494.137684612186
 Quadratic coef:       0.103523772736
 Linear coef   :      -0.232376546310
           Qmin:  -11494.139233914018
Quadratic minimum step length (  0.542923401052) accepted
    Initial Ne1:    7191.99991501
      Final Ne1:    7192.00000000

=================== Penalty functional idempotency correction ==================
 RMS occupancy error at iteration   1:  0.000322 (step -0.4927 Ne1=   7192.0000)
 RMS occupancy error at iteration   2:  0.000005 (step -0.5000 Ne1=   7192.0000)
            Final RMS occupancy error   :  0.000000 (Ne1=   7192.0000)
               Final occupancy bounds   : [  0.0000,  1.0000]
================================================================================

    4        -1.149400883184E+04     1.0599E-04     9.5867E-05    -5.3652E-01
MG BCs: +ve charge blocks (gridpoints):     30732 (   17161395).
MG BCs: -ve charge blocks (gridpoints):      8293 (    1095555).
MG BCs:     Elided blocks (gridpoints):    163173 (  172713675).
MG BCs: Computational effort saved:  99.9796%.
MG BCs: Charge after coarse-graining:           -9.0009771.
MG DL_MG: Calling solver with defect correction order = 8
MG DL_MG: Solver finished
MG Hartree energy from (\int phi*rho dr):              1431.618954
MG Hartree energy from (\int eps (grad phi)^2 dr):     1430.963806
MG Discrepancy due to finite box and discretization:     -0.655147 (  -0.04576%)
MG Correction to account for finite box:                  0.475843
MG Remaining discrepancy, due to discretization:         -0.179304 (  -0.01252%)
      ideal mu1:      -0.804203129691
             Q0:  -11494.139855613001
             G0:      -0.196439531614
   RMS gradient:       0.000067976108
MG BCs: +ve charge blocks (gridpoints):     30737 (   17160938).
MG BCs: -ve charge blocks (gridpoints):      8291 (    1095755).
MG BCs:     Elided blocks (gridpoints):    163169 (  172713932).
MG BCs: Computational effort saved:  99.9796%.
MG BCs: Charge after coarse-graining:           -9.0009768.
MG DL_MG: Calling solver with defect correction order = 8
MG DL_MG: Solver finished
MG Hartree energy from (\int phi*rho dr):              1431.258755
MG Hartree energy from (\int eps (grad phi)^2 dr):     1430.603513
MG Discrepancy due to finite box and discretization:     -0.655243 (  -0.04578%)
MG Correction to account for finite box:                  0.475787
MG Remaining discrepancy, due to discretization:         -0.179455 (  -0.01254%)
     Trial step:       0.512480633068
             Q1:  -11494.201541685150
 Quadratic coef:       0.038985383371
 Linear coef   :      -0.100671455521
           Qmin:  -11494.204846265140
Quadratic minimum step length (  0.661686083296) accepted
    Initial Ne1:    7191.99995655
      Final Ne1:    7192.00000000

=================== Penalty functional idempotency correction ==================
 RMS occupancy error at iteration   1:  0.000512 (step -0.4694 Ne1=   7192.0000)
 RMS occupancy error at iteration   2:  0.000013 (step -0.5000 Ne1=   7192.0000)
            Final RMS occupancy error   :  0.000000 (Ne1=   7192.0000)
               Final occupancy bounds   : [  0.0000,  1.0000]
================================================================================

    5        -1.149413985561E+04     6.7976E-05     6.1483E-05    -1.3102E-01
MG BCs: +ve charge blocks (gridpoints):     30739 (   17160759).
MG BCs: -ve charge blocks (gridpoints):      8292 (    1095817).
MG BCs:     Elided blocks (gridpoints):    163167 (  172714049).
MG BCs: Computational effort saved:  99.9796%.
MG BCs: Charge after coarse-graining:           -9.0009767.
MG DL_MG: Calling solver with defect correction order = 8
MG DL_MG: Solver finished
MG Hartree energy from (\int phi*rho dr):              1431.153983
MG Hartree energy from (\int eps (grad phi)^2 dr):     1430.498713
MG Discrepancy due to finite box and discretization:     -0.655270 (  -0.04579%)
MG Correction to account for finite box:                  0.475770
MG Remaining discrepancy, due to discretization:         -0.179500 (  -0.01254%)
      ideal mu1:      -0.803318768043
             Q0:  -11494.204444277450
             G0:      -0.157262342863
   RMS gradient:       0.000061193251
MG BCs: +ve charge blocks (gridpoints):     30742 (   17160318).
MG BCs: -ve charge blocks (gridpoints):      8291 (    1096051).
MG BCs:     Elided blocks (gridpoints):    163164 (  172714256).
MG BCs: Computational effort saved:  99.9796%.
MG BCs: Charge after coarse-graining:           -9.0009766.
MG DL_MG: Calling solver with defect correction order = 8
MG DL_MG: Solver finished
MG Hartree energy from (\int phi*rho dr):              1430.048818
MG Hartree energy from (\int eps (grad phi)^2 dr):     1429.393683
MG Discrepancy due to finite box and discretization:     -0.655135 (  -0.04581%)
MG Correction to account for finite box:                  0.475623
MG Remaining discrepancy, due to discretization:         -0.179512 (  -0.01255%)
     Trial step:       0.582324053135
             Q1:  -11494.271081079496
 Quadratic coef:       0.024940842855
 Linear coef   :      -0.091577644902
           Qmin:  -11494.288507846335
Quadratic minimum step length (  1.069087072656) accepted
    Initial Ne1:    7191.99994290
      Final Ne1:    7192.00000000

=================== Penalty functional idempotency correction ==================
 RMS occupancy error at iteration   1:  0.002939 (step -0.3500 Ne1=   7192.0000)
 RMS occupancy error at iteration   2:  0.000196 (step -0.4906 Ne1=   7192.0000)
 RMS occupancy error at iteration   3:  0.000003 (step -0.5000 Ne1=   7192.0000)
            Final RMS occupancy error   :  0.000000 (Ne1=   7192.0000)
               Final occupancy bounds   : [  0.0000,  1.0000]
================================================================================

    6        -1.149420444428E+04     6.1193E-05     5.5348E-05    -6.4589E-02
MG BCs: +ve charge blocks (gridpoints):     30744 (   17159944).
MG BCs: -ve charge blocks (gridpoints):      8295 (    1096360).
MG BCs:     Elided blocks (gridpoints):    163162 (  172714321).
MG BCs: Computational effort saved:  99.9796%.
MG BCs: Charge after coarse-graining:           -9.0009764.
MG DL_MG: Calling solver with defect correction order = 8
MG DL_MG: Solver finished
MG Hartree energy from (\int phi*rho dr):              1429.140308
MG Hartree energy from (\int eps (grad phi)^2 dr):     1428.485268
MG Discrepancy due to finite box and discretization:     -0.655040 (  -0.04583%)
MG Correction to account for finite box:                  0.475514
MG Remaining discrepancy, due to discretization:         -0.179525 (  -0.01256%)
      ideal mu1:      -0.803295825640
             Q0:  -11494.280463522649
             G0:      -0.226574251879
   RMS gradient:       0.000073174199
MG BCs: +ve charge blocks (gridpoints):     30732 (   17161955).
MG BCs: -ve charge blocks (gridpoints):      8290 (    1095014).
MG BCs:     Elided blocks (gridpoints):    163174 (  172713656).
MG BCs: Computational effort saved:  99.9796%.
MG BCs: Charge after coarse-graining:           -9.0009774.
MG DL_MG: Calling solver with defect correction order = 8
MG DL_MG: Solver finished
MG Hartree energy from (\int phi*rho dr):              1432.388786
MG Hartree energy from (\int eps (grad phi)^2 dr):     1431.733998
MG Discrepancy due to finite box and discretization:     -0.654788 (  -0.04571%)
MG Correction to account for finite box:                  0.475352
MG Remaining discrepancy, due to discretization:         -0.179437 (  -0.01253%)
     Trial step:       0.789021620302
             Q1:  -11494.345764190075
 Quadratic coef:       0.113471315910
 Linear coef   :      -0.178771983336
           Qmin:  -11494.350876520351
Quadratic minimum step length (  0.621544567565) accepted
    Initial Ne1:    7191.99999933
      Final Ne1:    7192.00000000

=================== Penalty functional idempotency correction ==================
 RMS occupancy error at iteration   1:  0.000135 (step -0.4904 Ne1=   7192.0000)
 RMS occupancy error at iteration   2:  0.000001 (step -0.5000 Ne1=   7192.0000)
            Final RMS occupancy error   :  0.000000 (Ne1=   7192.0000)
               Final occupancy bounds   : [  0.0000,  1.0000]
================================================================================

    7        -1.149428046352E+04     7.3174E-05     6.6184E-05    -7.6019E-02
MG BCs: +ve charge blocks (gridpoints):     30734 (   17161555).
MG BCs: -ve charge blocks (gridpoints):      8291 (    1095303).
MG BCs:     Elided blocks (gridpoints):    163172 (  172713767).
MG BCs: Computational effort saved:  99.9796%.
MG BCs: Charge after coarse-graining:           -9.0009771.
MG DL_MG: Calling solver with defect correction order = 8
MG DL_MG: Solver finished
MG Hartree energy from (\int phi*rho dr):              1431.696931
MG Hartree energy from (\int eps (grad phi)^2 dr):     1431.042089
MG Discrepancy due to finite box and discretization:     -0.654842 (  -0.04574%)
MG Correction to account for finite box:                  0.475387
MG Remaining discrepancy, due to discretization:         -0.179455 (  -0.01253%)
      ideal mu1:      -0.804605089435
             Q0:  -11494.350975175505
             G0:      -0.148804192401
   RMS gradient:       0.000059262004
MG BCs: +ve charge blocks (gridpoints):     30734 (   17161487).
MG BCs: -ve charge blocks (gridpoints):      8292 (    1095340).
MG BCs:     Elided blocks (gridpoints):    163171 (  172713798).
MG BCs: Computational effort saved:  99.9796%.
MG BCs: Charge after coarse-graining:           -9.0009771.
MG DL_MG: Calling solver with defect correction order = 8
MG DL_MG: Solver finished
MG Hartree energy from (\int phi*rho dr):              1431.381854
MG Hartree energy from (\int eps (grad phi)^2 dr):     1430.727256
MG Discrepancy due to finite box and discretization:     -0.654598 (  -0.04573%)
MG Correction to account for finite box:                  0.475293
MG Remaining discrepancy, due to discretization:         -0.179304 (  -0.01253%)
     Trial step:       0.700294296557
             Q1:  -11494.414127895143
 Quadratic coef:       0.041054007605
 Linear coef   :      -0.104206727242
           Qmin:  -11494.417101740462
Quadratic minimum step length (  0.888772875153) accepted
    Initial Ne1:    7191.99999926
      Final Ne1:    7192.00000000

=================== Penalty functional idempotency correction ==================
 RMS occupancy error at iteration   1:  0.000972 (step -0.4390 Ne1=   7192.0000)
 RMS occupancy error at iteration   2:  0.000028 (step -0.4985 Ne1=   7192.0000)
            Final RMS occupancy error   :  0.000000 (Ne1=   7192.0000)
               Final occupancy bounds   : [ -0.0000,  1.0000]
================================================================================

    8        -1.149435097518E+04     5.9262E-05     5.3601E-05    -7.0512E-02
MG BCs: +ve charge blocks (gridpoints):     30734 (   17161388).
MG BCs: -ve charge blocks (gridpoints):      8292 (    1095366).
MG BCs:     Elided blocks (gridpoints):    163171 (  172713871).
MG BCs: Computational effort saved:  99.9796%.
MG BCs: Charge after coarse-graining:           -9.0009771.
MG DL_MG: Calling solver with defect correction order = 8
MG DL_MG: Solver finished
MG Hartree energy from (\int phi*rho dr):              1431.298945
MG Hartree energy from (\int eps (grad phi)^2 dr):     1430.644412
MG Discrepancy due to finite box and discretization:     -0.654533 (  -0.04573%)
MG Correction to account for finite box:                  0.475268
MG Remaining discrepancy, due to discretization:         -0.179265 (  -0.01252%)
      ideal mu1:      -0.804211056132
             Q0:  -11494.416572730872
             G0:      -0.156579486101
   RMS gradient:       0.000060851944
MG BCs: +ve charge blocks (gridpoints):     30733 (   17160385).
MG BCs: -ve charge blocks (gridpoints):      8296 (    1095876).
MG BCs:     Elided blocks (gridpoints):    163171 (  172714364).
MG BCs: Computational effort saved:  99.9796%.
MG BCs: Charge after coarse-graining:           -9.0009769.
MG DL_MG: Calling solver with defect correction order = 8
MG DL_MG: Solver finished
MG Hartree energy from (\int phi*rho dr):              1429.878725
MG Hartree energy from (\int eps (grad phi)^2 dr):     1429.224441
MG Discrepancy due to finite box and discretization:     -0.654283 (  -0.04576%)
MG Correction to account for finite box:                  0.475137
MG Remaining discrepancy, due to discretization:         -0.179146 (  -0.01253%)
     Trial step:       0.788924949158
             Q1:  -11494.473051966866
 Quadratic coef:       0.067050227117
 Linear coef   :      -0.123529463111
           Qmin:  -11494.473468616661
Quadratic minimum step length (  0.726734864259) accepted
    Initial Ne1:    7192.00050379
      Final Ne1:    7192.00000000

=================== Penalty functional idempotency correction ==================
 RMS occupancy error at iteration   1:  0.002451 (step -0.3768 Ne1=   7192.0000)
 RMS occupancy error at iteration   2:  0.000130 (step -0.4935 Ne1=   7192.0000)
 RMS occupancy error at iteration   3:  0.000001 (step -0.5000 Ne1=   7192.0000)
            Final RMS occupancy error   :  0.000000 (Ne1=   7192.0000)
               Final occupancy bounds   : [  0.0000,  1.0000]
================================================================================

    9        -1.149441657273E+04     6.0852E-05     5.5039E-05    -6.5598E-02
MG BCs: +ve charge blocks (gridpoints):     30733 (   17160442).
MG BCs: -ve charge blocks (gridpoints):      8295 (    1095854).
MG BCs:     Elided blocks (gridpoints):    163171 (  172714329).
MG BCs: Computational effort saved:  99.9796%.
MG BCs: Charge after coarse-graining:           -9.0009769.
MG DL_MG: Calling solver with defect correction order = 8
MG DL_MG: Solver finished
MG Hartree energy from (\int phi*rho dr):              1429.991875
MG Hartree energy from (\int eps (grad phi)^2 dr):     1429.337574
MG Discrepancy due to finite box and discretization:     -0.654301 (  -0.04576%)
MG Correction to account for finite box:                  0.475150
MG Remaining discrepancy, due to discretization:         -0.179151 (  -0.01253%)
      ideal mu1:      -0.803451093952
   10        -1.149447667660E+04     5.5892E-05     5.0553E-05    -6.0104E-02
Finished density kernel iterations (  10)

Writing density kernel to file "host_39241.vacuum_dkn" ... done


>>> Density kernel optimised for the current NGWF basis:
     ~~~~~~~~~~~~~~~~~~~~~~~~~~~~~~~~~~~~~~~~~~~~~~~~~~~~~~~~~~~
     Total energy                =  -1.14944766765959E+04  Eh
     Estimated bandgap           =  -4.5723E-01  Eh
     RMS occupancy error         =   2.5317E-10
     [H,K] commutator            =   5.0553E-05
     Occupancy bounds            = [  0.000:  1.000]
     ~~~~~~~~~~~~~~~~~~~~~~~~~~~~~~~~~~~~~~~~~~~~~~~~~~~~~~~~~~~




################################################################################
########################### NGWF CG iteration  001 #############################
################################################################################
****** Reciprocal space K.E. preconditioning with k_zero =  3.5000 a0^-1 *******

>>> Checking for convergence of NGWFs:   NOT CONVERGED
  ========================================================================
         NGWF RMS gradient =  1.6450E-03 >  2.0000E-06  | above tolerance
  ========================================================================

>>> Improving NGWFs using line search:
============ Calculation of NGWF S^-1 using Hotelling algorithm ================ 
         Iteration  |  Frobenius norm and Maximum abs value    (of I-S*S_n^-1)   
               1       0.23839258E+00     0.64510670E-02
               2       0.13180347E-02     0.57452402E-04
               3       0.68207343E-07     0.49194246E-08
               4       0.10469086E-12     0.57731597E-14
================================================================================
MG BCs: +ve charge blocks (gridpoints):     30223 (   17106498).
MG BCs: -ve charge blocks (gridpoints):      8283 (    1092540).
MG BCs:     Elided blocks (gridpoints):    163684 (  172771587).
MG BCs: Computational effort saved:  99.9798%.
MG BCs: Charge after coarse-graining:           -9.0009816.
MG DL_MG: Calling solver with defect correction order = 8
MG DL_MG: Solver finished
MG Hartree energy from (\int phi*rho dr):              1401.970612
MG Hartree energy from (\int eps (grad phi)^2 dr):     1401.317850
MG Discrepancy due to finite box and discretization:     -0.652762 (  -0.04656%)
MG Correction to account for finite box:                  0.475060
MG Remaining discrepancy, due to discretization:         -0.177702 (  -0.01268%)
============ Calculation of NGWF S^-1 using Hotelling algorithm ================ 
         Iteration  |  Frobenius norm and Maximum abs value    (of I-S*S_n^-1)   
               1       0.21665458E+01     0.49053382E-01
               2       0.96784783E-01     0.30817055E-02
               3       0.27018267E-03     0.14498024E-04
               4       0.37847205E-08     0.35102388E-09
               5       0.92495834E-13     0.35527137E-14
================================================================================
------------------------------- NGWF line search -------------------------------
RMS gradient                =       0.00164498800006
Trial step length           =               0.122474
Gradient along search dir.  =       -295.51910649762
Functional at step 0        =  -11494.47667659586295
Functional at step 1        =  -11527.83839589788113
Functional predicted        =  -11610.12383279475580
Selected quadratic step     =               0.782671
--------------------------- NGWF line search finished --------------------------
                                               
Writing NGWFs to file "host_39241.vacuum_tightbox_ngwfs"....  done

>>> Optimising kernel for current NGWFs:
   Initial electron number for spin 1:    7238.11513151
     Final electron number for spin 1:    7192.00000000

=================== Penalty functional idempotency correction ==================
 RMS occupancy error at iteration   1:  0.005291 (step -0.4824 Ne1=   7192.0000)
 RMS occupancy error at iteration   2:  0.000097 (step -0.5003 Ne1=   7192.0000)
            Final RMS occupancy error   :  0.000000 (Ne1=   7192.0000)
               Final occupancy bounds   : [  0.0000,  1.0000]
================================================================================

................................................................................
<<<<<<<<<<<<<< LNV (Original version) density kernel optimisation >>>>>>>>>>>>>>
~~~~~~~~~~~~~~~~~~~~~~~~~~~~~~~~~~~~~~~~~~~~~~~~~~~~~~~~~~~~~~~~~~~~~~~~~~~~~~~~
   iter  |      energy (Eh)       | rms gradient |  commutator  |   dE (Eh)
MG BCs: +ve charge blocks (gridpoints):     24643 (   16846586).
MG BCs: -ve charge blocks (gridpoints):      8415 (    1062134).
MG BCs:     Elided blocks (gridpoints):    169271 (  173061905).
MG BCs: Computational effort saved:  99.9827%.
MG BCs: Charge after coarse-graining:           -9.0007262.
MG DL_MG: Calling solver with defect correction order = 8
MG DL_MG: Solver finished
MG Hartree energy from (\int phi*rho dr):              1272.813122
MG Hartree energy from (\int eps (grad phi)^2 dr):     1272.163802
MG Discrepancy due to finite box and discretization:     -0.649320 (  -0.05101%)
MG Correction to account for finite box:                  0.474651
MG Remaining discrepancy, due to discretization:         -0.174669 (  -0.01372%)
      ideal mu1:      -0.747944168992
             Q0:  -11609.495198214892
             G0:      -9.805593922462
   RMS gradient:       0.000481381783
MG BCs: +ve charge blocks (gridpoints):     24716 (   16859272).
MG BCs: -ve charge blocks (gridpoints):      8389 (    1058370).
MG BCs:     Elided blocks (gridpoints):    169198 (  173052983).
MG BCs: Computational effort saved:  99.9827%.
MG BCs: Charge after coarse-graining:           -9.0007229.
MG DL_MG: Calling solver with defect correction order = 8
MG DL_MG: Solver finished
MG Hartree energy from (\int phi*rho dr):              1287.376248
MG Hartree energy from (\int eps (grad phi)^2 dr):     1286.721978
MG Discrepancy due to finite box and discretization:     -0.654269 (  -0.05082%)
MG Correction to account for finite box:                  0.474093
MG Remaining discrepancy, due to discretization:         -0.180176 (  -0.01400%)
     Trial step:       0.757191696888
             Q1:  -11608.540132749360
 Quadratic coef:       8.379779766678
 Linear coef   :      -7.424714301145
           Qmin:  -11611.139823252439
Quadratic minimum step length (  0.335446287201) accepted
    Initial Ne1:    7191.99903813
      Final Ne1:    7192.00000000

=================== Penalty functional idempotency correction ==================
 RMS occupancy error at iteration   1:  0.000372 (step -0.4985 Ne1=   7192.0000)
 RMS occupancy error at iteration   2:  0.000000 (step -0.5000 Ne1=   7192.0000)
            Final RMS occupancy error   :  0.000000 (Ne1=   7192.0000)
               Final occupancy bounds   : [  0.0000,  1.0000]
================================================================================

    1        -1.160949519821E+04     4.8138E-04     4.3540E-04
MG BCs: +ve charge blocks (gridpoints):     24669 (   16852320).
MG BCs: -ve charge blocks (gridpoints):      8407 (    1060697).
MG BCs:     Elided blocks (gridpoints):    169245 (  173057608).
MG BCs: Computational effort saved:  99.9827%.
MG BCs: Charge after coarse-graining:           -9.0007244.
MG DL_MG: Calling solver with defect correction order = 8
MG DL_MG: Solver finished
MG Hartree energy from (\int phi*rho dr):              1278.230827
MG Hartree energy from (\int eps (grad phi)^2 dr):     1277.579415
MG Discrepancy due to finite box and discretization:     -0.651413 (  -0.05096%)
MG Correction to account for finite box:                  0.474382
MG Remaining discrepancy, due to discretization:         -0.177030 (  -0.01385%)
      ideal mu1:      -0.753060629111
             Q0:  -11611.117174584884
             G0:      -0.897149910893
   RMS gradient:       0.000146161644
MG BCs: +ve charge blocks (gridpoints):     24678 (   16851338).
MG BCs: -ve charge blocks (gridpoints):      8407 (    1061572).
MG BCs:     Elided blocks (gridpoints):    169236 (  173057715).
MG BCs: Computational effort saved:  99.9827%.
MG BCs: Charge after coarse-graining:           -9.0007245.
MG DL_MG: Calling solver with defect correction order = 8
MG DL_MG: Solver finished
MG Hartree energy from (\int phi*rho dr):              1278.710587
MG Hartree energy from (\int eps (grad phi)^2 dr):     1278.058951
MG Discrepancy due to finite box and discretization:     -0.651636 (  -0.05096%)
MG Correction to account for finite box:                  0.474302
MG Remaining discrepancy, due to discretization:         -0.177334 (  -0.01387%)
     Trial step:       0.503981292729
             Q1:  -11611.319665890303
 Quadratic coef:       0.249655466445
 Linear coef   :      -0.452146771863
           Qmin:  -11611.321893418220
Quadratic minimum step length (  0.456375976525) accepted
    Initial Ne1:    7191.99987934
      Final Ne1:    7192.00000000

=================== Penalty functional idempotency correction ==================
 RMS occupancy error at iteration   1:  0.000151 (step -0.4989 Ne1=   7192.0000)
 RMS occupancy error at iteration   2:  0.000000 (step -0.5000 Ne1=   7192.0000)
            Final RMS occupancy error   :  0.000000 (Ne1=   7192.0000)
               Final occupancy bounds   : [  0.0000,  1.0000]
================================================================================

    2        -1.161111717458E+04     1.4616E-04     1.3220E-04    -1.6220E+00
MG BCs: +ve charge blocks (gridpoints):     24678 (   16851444).
MG BCs: -ve charge blocks (gridpoints):      8408 (    1061472).
MG BCs:     Elided blocks (gridpoints):    169236 (  173057709).
MG BCs: Computational effort saved:  99.9827%.
MG BCs: Charge after coarse-graining:           -9.0007245.
MG DL_MG: Calling solver with defect correction order = 8
MG DL_MG: Solver finished
MG Hartree energy from (\int phi*rho dr):              1278.665758
MG Hartree energy from (\int eps (grad phi)^2 dr):     1278.014145
MG Discrepancy due to finite box and discretization:     -0.651614 (  -0.05096%)
MG Correction to account for finite box:                  0.474309
MG Remaining discrepancy, due to discretization:         -0.177304 (  -0.01387%)
      ideal mu1:      -0.753449791000
             Q0:  -11611.322319190949
             G0:      -0.195734779453
   RMS gradient:       0.000067941727
MG BCs: +ve charge blocks (gridpoints):     24673 (   16850640).
MG BCs: -ve charge blocks (gridpoints):      8406 (    1061853).
MG BCs:     Elided blocks (gridpoints):    169241 (  173058132).
MG BCs: Computational effort saved:  99.9827%.
MG BCs: Charge after coarse-graining:           -9.0007245.
MG DL_MG: Calling solver with defect correction order = 8
MG DL_MG: Solver finished
MG Hartree energy from (\int phi*rho dr):              1277.995444
MG Hartree energy from (\int eps (grad phi)^2 dr):     1277.343952
MG Discrepancy due to finite box and discretization:     -0.651492 (  -0.05098%)
MG Correction to account for finite box:                  0.474250
MG Remaining discrepancy, due to discretization:         -0.177242 (  -0.01387%)
     Trial step:       0.479588317851
             Q1:  -11611.384655407513
 Quadratic coef:       0.031535897058
 Linear coef   :      -0.093872113623
           Qmin:  -11611.392175882354
Quadratic minimum step length (  0.713789257083) accepted
    Initial Ne1:    7191.99995920
      Final Ne1:    7192.00000000

=================== Penalty functional idempotency correction ==================
 RMS occupancy error at iteration   1:  0.000217 (step -0.4886 Ne1=   7192.0000)
 RMS occupancy error at iteration   2:  0.000002 (step -0.5000 Ne1=   7192.0000)
            Final RMS occupancy error   :  0.000000 (Ne1=   7192.0000)
               Final occupancy bounds   : [  0.0000,  1.0000]
================================================================================

    3        -1.161132231919E+04     6.7942E-05     6.1452E-05    -2.0514E-01
MG BCs: +ve charge blocks (gridpoints):     24671 (   16850240).
MG BCs: -ve charge blocks (gridpoints):      8406 (    1062034).
MG BCs:     Elided blocks (gridpoints):    169243 (  173058351).
MG BCs: Computational effort saved:  99.9827%.
MG BCs: Charge after coarse-graining:           -9.0007246.
MG DL_MG: Calling solver with defect correction order = 8
MG DL_MG: Solver finished
MG Hartree energy from (\int phi*rho dr):              1277.667374
MG Hartree energy from (\int eps (grad phi)^2 dr):     1277.015941
MG Discrepancy due to finite box and discretization:     -0.651433 (  -0.05099%)
MG Correction to account for finite box:                  0.474221
MG Remaining discrepancy, due to discretization:         -0.177212 (  -0.01387%)
      ideal mu1:      -0.752338421972
             Q0:  -11611.392173081869
             G0:      -0.080798640029
   RMS gradient:       0.000043682637
MG BCs: +ve charge blocks (gridpoints):     24669 (   16850100).
MG BCs: -ve charge blocks (gridpoints):      8405 (    1062074).
MG BCs:     Elided blocks (gridpoints):    169245 (  173058451).
MG BCs: Computational effort saved:  99.9827%.
MG BCs: Charge after coarse-graining:           -9.0007246.
MG DL_MG: Calling solver with defect correction order = 8
MG DL_MG: Solver finished
MG Hartree energy from (\int phi*rho dr):              1277.693134
MG Hartree energy from (\int eps (grad phi)^2 dr):     1277.041831
MG Discrepancy due to finite box and discretization:     -0.651303 (  -0.05097%)
MG Correction to account for finite box:                  0.474195
MG Remaining discrepancy, due to discretization:         -0.177109 (  -0.01386%)
     Trial step:       0.585085454532
             Q1:  -11611.424782727379
 Quadratic coef:       0.014664463517
 Linear coef   :      -0.047274109027
           Qmin:  -11611.430272692225
Quadratic minimum step length (  0.943075535485) accepted
    Initial Ne1:    7191.99997647
      Final Ne1:    7192.00000000

=================== Penalty functional idempotency correction ==================
 RMS occupancy error at iteration   1:  0.000598 (step -0.4622 Ne1=   7192.0000)
 RMS occupancy error at iteration   2:  0.000011 (step -0.4996 Ne1=   7192.0000)
            Final RMS occupancy error   :  0.000000 (Ne1=   7192.0000)
               Final occupancy bounds   : [ -0.0000,  1.0000]
================================================================================

    4        -1.161139217308E+04     4.3683E-05     3.9510E-05    -6.9854E-02
MG BCs: +ve charge blocks (gridpoints):     24667 (   16849997).
MG BCs: -ve charge blocks (gridpoints):      8407 (    1062117).
MG BCs:     Elided blocks (gridpoints):    169247 (  173058511).
MG BCs: Computational effort saved:  99.9827%.
MG BCs: Charge after coarse-graining:           -9.0007246.
MG DL_MG: Calling solver with defect correction order = 8
MG DL_MG: Solver finished
MG Hartree energy from (\int phi*rho dr):              1277.711212
MG Hartree energy from (\int eps (grad phi)^2 dr):     1277.059987
MG Discrepancy due to finite box and discretization:     -0.651225 (  -0.05097%)
MG Correction to account for finite box:                  0.474179
MG Remaining discrepancy, due to discretization:         -0.177046 (  -0.01386%)
      ideal mu1:      -0.752766514765
             Q0:  -11611.429724843940
             G0:      -0.098842920432
   RMS gradient:       0.000048574341
MG BCs: +ve charge blocks (gridpoints):     24668 (   16851450).
MG BCs: -ve charge blocks (gridpoints):      8403 (    1061671).
MG BCs:     Elided blocks (gridpoints):    169246 (  173057504).
MG BCs: Computational effort saved:  99.9827%.
MG BCs: Charge after coarse-graining:           -9.0007244.
MG DL_MG: Calling solver with defect correction order = 8
MG DL_MG: Solver finished
MG Hartree energy from (\int phi*rho dr):              1278.673673
MG Hartree energy from (\int eps (grad phi)^2 dr):     1278.022598
MG Discrepancy due to finite box and discretization:     -0.651075 (  -0.05092%)
MG Correction to account for finite box:                  0.474081
MG Remaining discrepancy, due to discretization:         -0.176994 (  -0.01384%)
     Trial step:       0.742818805858
             Q1:  -11611.467672628118
 Quadratic coef:       0.035474595945
 Linear coef   :      -0.073422380123
           Qmin:  -11611.467715734036
Quadratic minimum step length (  0.768712416215) accepted
    Initial Ne1:    7192.00009129
      Final Ne1:    7192.00000000

=================== Penalty functional idempotency correction ==================
 RMS occupancy error at iteration   1:  0.001809 (step -0.4007 Ne1=   7192.0000)
 RMS occupancy error at iteration   2:  0.000079 (step -0.4957 Ne1=   7192.0000)
 RMS occupancy error at iteration   3:  0.000001 (step -0.5000 Ne1=   7192.0000)
            Final RMS occupancy error   :  0.000000 (Ne1=   7192.0000)
               Final occupancy bounds   : [  0.0000,  1.0000]
================================================================================

    5        -1.161142972484E+04     4.8574E-05     4.3934E-05    -3.7552E-02
MG BCs: +ve charge blocks (gridpoints):     24668 (   16851514).
MG BCs: -ve charge blocks (gridpoints):      8404 (    1061649).
MG BCs:     Elided blocks (gridpoints):    169246 (  173057462).
MG BCs: Computational effort saved:  99.9827%.
MG BCs: Charge after coarse-graining:           -9.0007243.
MG DL_MG: Calling solver with defect correction order = 8
MG DL_MG: Solver finished
MG Hartree energy from (\int phi*rho dr):              1278.708184
MG Hartree energy from (\int eps (grad phi)^2 dr):     1278.057113
MG Discrepancy due to finite box and discretization:     -0.651071 (  -0.05092%)
MG Correction to account for finite box:                  0.474079
MG Remaining discrepancy, due to discretization:         -0.176992 (  -0.01384%)
      ideal mu1:      -0.753800689179
             Q0:  -11611.468401259510
             G0:      -0.081932115188
   RMS gradient:       0.000042546470
MG BCs: +ve charge blocks (gridpoints):     24672 (   16851516).
MG BCs: -ve charge blocks (gridpoints):      8403 (    1061696).
MG BCs:     Elided blocks (gridpoints):    169242 (  173057413).
MG BCs: Computational effort saved:  99.9827%.
MG BCs: Charge after coarse-graining:           -9.0007243.
MG DL_MG: Calling solver with defect correction order = 8
MG DL_MG: Solver finished
MG Hartree energy from (\int phi*rho dr):              1278.384671
MG Hartree energy from (\int eps (grad phi)^2 dr):     1277.733657
MG Discrepancy due to finite box and discretization:     -0.651013 (  -0.05092%)
MG Correction to account for finite box:                  0.473976
MG Remaining discrepancy, due to discretization:         -0.177037 (  -0.01385%)
     Trial step:       0.755654708886
             Q1:  -11611.502769102808
 Quadratic coef:       0.027544545352
 Linear coef   :      -0.061912388650
           Qmin:  -11611.503191667371
Quadratic minimum step length (  0.849249595968) accepted
    Initial Ne1:    7192.00007732
      Final Ne1:    7192.00000000

=================== Penalty functional idempotency correction ==================
 RMS occupancy error at iteration   1:  0.002959 (step -0.3578 Ne1=   7192.0000)
 RMS occupancy error at iteration   2:  0.000176 (step -0.4901 Ne1=   7192.0000)
 RMS occupancy error at iteration   3:  0.000003 (step -0.5000 Ne1=   7192.0000)
            Final RMS occupancy error   :  0.000000 (Ne1=   7192.0000)
               Final occupancy bounds   : [  0.0000,  1.0000]
================================================================================

    6        -1.161146840126E+04     4.2546E-05     3.8482E-05    -3.8676E-02
MG BCs: +ve charge blocks (gridpoints):     24672 (   16851497).
MG BCs: -ve charge blocks (gridpoints):      8403 (    1061716).
MG BCs:     Elided blocks (gridpoints):    169242 (  173057412).
MG BCs: Computational effort saved:  99.9827%.
MG BCs: Charge after coarse-graining:           -9.0007243.
MG DL_MG: Calling solver with defect correction order = 8
MG DL_MG: Solver finished
MG Hartree energy from (\int phi*rho dr):              1278.344353
MG Hartree energy from (\int eps (grad phi)^2 dr):     1277.693342
MG Discrepancy due to finite box and discretization:     -0.651011 (  -0.05093%)
MG Correction to account for finite box:                  0.473969
MG Remaining discrepancy, due to discretization:         -0.177043 (  -0.01385%)
      ideal mu1:      -0.753499351247
             Q0:  -11611.505520911654
             G0:      -0.057553443540
   RMS gradient:       0.000036879783
MG BCs: +ve charge blocks (gridpoints):     24666 (   16849997).
MG BCs: -ve charge blocks (gridpoints):      8405 (    1062069).
MG BCs:     Elided blocks (gridpoints):    169248 (  173058559).
MG BCs: Computational effort saved:  99.9827%.
MG BCs: Charge after coarse-graining:           -9.0007247.
MG DL_MG: Calling solver with defect correction order = 8
MG DL_MG: Solver finished
MG Hartree energy from (\int phi*rho dr):              1277.656544
MG Hartree energy from (\int eps (grad phi)^2 dr):     1277.005544
MG Discrepancy due to finite box and discretization:     -0.651000 (  -0.05095%)
MG Correction to account for finite box:                  0.473948
MG Remaining discrepancy, due to discretization:         -0.177052 (  -0.01386%)
     Trial step:       0.801086422437
             Q1:  -11611.522529707407
 Quadratic coef:       0.029096486433
 Linear coef   :      -0.046105282185
           Qmin:  -11611.523785119003
Quadratic minimum step length (  0.634686865826) accepted
    Initial Ne1:    7191.99999894
      Final Ne1:    7192.00000000

=================== Penalty functional idempotency correction ==================
 RMS occupancy error at iteration   1:  0.000036 (step -0.4978 Ne1=   7192.0000)
            Final RMS occupancy error   :  0.000000 (Ne1=   7192.0000)
               Final occupancy bounds   : [ -0.0000,  1.0000]
================================================================================

    7        -1.161150552091E+04     3.6880E-05     3.3357E-05    -3.7120E-02
MG BCs: +ve charge blocks (gridpoints):     24667 (   16850318).
MG BCs: -ve charge blocks (gridpoints):      8405 (    1061999).
MG BCs:     Elided blocks (gridpoints):    169247 (  173058308).
MG BCs: Computational effort saved:  99.9827%.
MG BCs: Charge after coarse-graining:           -9.0007246.
MG DL_MG: Calling solver with defect correction order = 8
MG DL_MG: Solver finished
MG Hartree energy from (\int phi*rho dr):              1277.798601
MG Hartree energy from (\int eps (grad phi)^2 dr):     1277.147598
MG Discrepancy due to finite box and discretization:     -0.651003 (  -0.05095%)
MG Correction to account for finite box:                  0.473953
MG Remaining discrepancy, due to discretization:         -0.177050 (  -0.01386%)
      ideal mu1:      -0.753115359254
             Q0:  -11611.523793848464
             G0:      -0.042953588330
   RMS gradient:       0.000031857514
MG BCs: +ve charge blocks (gridpoints):     24670 (   16850641).
MG BCs: -ve charge blocks (gridpoints):      8404 (    1061830).
MG BCs:     Elided blocks (gridpoints):    169244 (  173058154).
MG BCs: Computational effort saved:  99.9827%.
MG BCs: Charge after coarse-graining:           -9.0007246.
MG DL_MG: Calling solver with defect correction order = 8
MG DL_MG: Solver finished
MG Hartree energy from (\int phi*rho dr):              1277.820864
[...]
            Final RMS occupancy error   :  0.000000 (Ne1=   7192.0000)
               Final occupancy bounds   : [  0.0000,  1.0000]
================================================================================

    7        -1.164782541986E+04     1.1374E-08     1.0288E-08     2.3283E-10

Reusing previously generated solute cavity.
MG BCs: +ve charge blocks (gridpoints):     28818 (   18959785).
MG BCs: -ve charge blocks (gridpoints):      8405 (    1039485).
MG BCs:     Elided blocks (gridpoints):    165096 (  170971355).
MG BCs: Computational effort saved:  99.9805%.
MG BCs: Charge after coarse-graining:           -9.0009765.
MG DL_MG: Calling solver with defect correction order = 8
MG DL_MG: Solver finished
MG Hartree energy from (\int phi*rho dr):              1229.406579
MG Hartree energy from (\int eps (grad phi)^2 dr):     1229.223243
MG Discrepancy due to finite box and discretization:     -0.183335 (  -0.01491%)
MG Correction to account for finite box:                  0.006409
MG Remaining discrepancy, due to discretization:         -0.176926 (  -0.01439%)
      ideal mu1:      -0.513263157355
             Q0:  -11647.825419859495
             G0:      -0.000000005327
   RMS gradient:       0.000000011119

Reusing previously generated solute cavity.
MG BCs: +ve charge blocks (gridpoints):     28818 (   18959785).
MG BCs: -ve charge blocks (gridpoints):      8405 (    1039485).
MG BCs:     Elided blocks (gridpoints):    165096 (  170971355).
MG BCs: Computational effort saved:  99.9805%.
MG BCs: Charge after coarse-graining:           -9.0009765.
MG DL_MG: Calling solver with defect correction order = 8
MG DL_MG: Solver finished
MG Hartree energy from (\int phi*rho dr):              1229.406605
MG Hartree energy from (\int eps (grad phi)^2 dr):     1229.223270
MG Discrepancy due to finite box and discretization:     -0.183335 (  -0.01491%)
MG Correction to account for finite box:                  0.006409
MG Remaining discrepancy, due to discretization:         -0.176926 (  -0.01439%)
     Trial step:       0.125134864782
             Q1:  -11647.825419859611
 Quadratic coef:       0.000000000549
 Linear coef   :      -0.000000000667
           Qmin:  -11647.825419859697
Quadratic minimum step length (  0.075925273221) accepted
    Initial Ne1:    7192.00000000
      Final Ne1:    7192.00000000

=================== Penalty functional idempotency correction ==================
 RMS occupancy error at iteration   1:  0.000000 (step -0.5000 Ne1=   7192.0000)
            Final RMS occupancy error   :  0.000000 (Ne1=   7192.0000)
               Final occupancy bounds   : [  0.0000,  1.0000]
================================================================================

    8        -1.164782541986E+04     1.1119E-08     1.0057E-08     0.0000E+00

Reusing previously generated solute cavity.
MG BCs: +ve charge blocks (gridpoints):     28818 (   18959785).
MG BCs: -ve charge blocks (gridpoints):      8405 (    1039485).
MG BCs:     Elided blocks (gridpoints):    165096 (  170971355).
MG BCs: Computational effort saved:  99.9805%.
MG BCs: Charge after coarse-graining:           -9.0009765.
MG DL_MG: Calling solver with defect correction order = 8
MG DL_MG: Solver finished
MG Hartree energy from (\int phi*rho dr):              1229.406595
MG Hartree energy from (\int eps (grad phi)^2 dr):     1229.223259
MG Discrepancy due to finite box and discretization:     -0.183335 (  -0.01491%)
MG Correction to account for finite box:                  0.006409
MG Remaining discrepancy, due to discretization:         -0.176926 (  -0.01439%)
      ideal mu1:      -0.513263173026
             Q0:  -11647.825419859611
             G0:      -0.000000005754
   RMS gradient:       0.000000009164

Reusing previously generated solute cavity.
MG BCs: +ve charge blocks (gridpoints):     28818 (   18959785).
MG BCs: -ve charge blocks (gridpoints):      8405 (    1039485).
MG BCs:     Elided blocks (gridpoints):    165096 (  170971355).
MG BCs: Computational effort saved:  99.9805%.
MG BCs: Charge after coarse-graining:           -9.0009765.
MG DL_MG: Calling solver with defect correction order = 8
MG DL_MG: Solver finished
MG Hartree energy from (\int phi*rho dr):              1229.406627
MG Hartree energy from (\int eps (grad phi)^2 dr):     1229.223292
MG Discrepancy due to finite box and discretization:     -0.183335 (  -0.01491%)
MG Correction to account for finite box:                  0.006409
MG Remaining discrepancy, due to discretization:         -0.176926 (  -0.01439%)
     Trial step:       0.097472554076
             Q1:  -11647.825419859611
 Quadratic coef:       0.000000000560
 Linear coef   :      -0.000000000561
           Qmin:  -11647.825419859751
Quadratic minimum step length (  0.048788241243) accepted
    Initial Ne1:    7192.00000000
      Final Ne1:    7192.00000000

=================== Penalty functional idempotency correction ==================
 RMS occupancy error at iteration   1:  0.000000 (step -0.5000 Ne1=   7192.0000)
            Final RMS occupancy error   :  0.000000 (Ne1=   7192.0000)
               Final occupancy bounds   : [  0.0000,  1.0000]
================================================================================

    9        -1.164782541986E+04     9.1641E-09     8.2887E-09    -1.1642E-10

Reusing previously generated solute cavity.
MG BCs: +ve charge blocks (gridpoints):     28818 (   18959785).
MG BCs: -ve charge blocks (gridpoints):      8405 (    1039485).
MG BCs:     Elided blocks (gridpoints):    165096 (  170971355).
MG BCs: Computational effort saved:  99.9805%.
MG BCs: Charge after coarse-graining:           -9.0009765.
MG DL_MG: Calling solver with defect correction order = 8
MG DL_MG: Solver finished
MG Hartree energy from (\int phi*rho dr):              1229.406611
MG Hartree energy from (\int eps (grad phi)^2 dr):     1229.223276
MG Discrepancy due to finite box and discretization:     -0.183335 (  -0.01491%)
MG Correction to account for finite box:                  0.006409
MG Remaining discrepancy, due to discretization:         -0.176926 (  -0.01439%)
      ideal mu1:      -0.513263187841
   10        -1.164782541986E+04     7.8340E-09     7.0857E-09    -1.1642E-10
Finished density kernel iterations (  10)

Writing density kernel to file "host_39241.dkn" ... done


>>> Density kernel optimised for the current NGWF basis:
     ~~~~~~~~~~~~~~~~~~~~~~~~~~~~~~~~~~~~~~~~~~~~~~~~~~~~~~~~~~~
     Total energy                =  -1.16478254198597E+04  Eh
     Estimated bandgap           =   1.2387E-01  Eh
     RMS occupancy error         =   3.0325E-16
     [H,K] commutator            =   7.0857E-09
     Occupancy bounds            = [  0.000:  1.000]
     ~~~~~~~~~~~~~~~~~~~~~~~~~~~~~~~~~~~~~~~~~~~~~~~~~~~~~~~~~~~




################################################################################
########################### NGWF CG iteration  005 #############################
################################################################################
****** Reciprocal space K.E. preconditioning with k_zero =  3.5000 a0^-1 *******

>>> Checking for convergence of NGWFs: 
           ........................................................
           |         *** NGWF optimisation converged ***          |
           | RMS NGWF gradient =    0.00000105708915              |
           | Criteria satisfied:                                  |
           | -> RMS NGWF gradient lower than set threshold.       |
           ========================================================

Reusing previously generated solute cavity.
MG BCs: +ve charge blocks (gridpoints):     28818 (   18959785).
MG BCs: -ve charge blocks (gridpoints):      8405 (    1039485).
MG BCs:     Elided blocks (gridpoints):    165096 (  170971355).
MG BCs: Computational effort saved:  99.9805%.
MG BCs: Charge after coarse-graining:           -9.0009765.
MG DL_MG: Calling solver with defect correction order = 8
MG DL_MG: Solver finished
MG Hartree energy from (\int phi*rho dr):              1229.406611
MG Hartree energy from (\int eps (grad phi)^2 dr):     1229.223276
MG Discrepancy due to finite box and discretization:     -0.183335 (  -0.01491%)
MG Correction to account for finite box:                  0.006409
MG Remaining discrepancy, due to discretization:         -0.176926 (  -0.01439%)

================================================================================
           ---------------- ENERGY COMPONENTS (Eh) ----------------
           | Kinetic                    :     8407.37565978270322 |
           | Pseudo. (local,OBC,corr'd) :    -4988.84681159840875 |
           | Pseudopotential (non-local):     1446.72362239847007 |
           | Hartree (molecular)        :     1229.40661101132105 |
           | Exchange-correlation       :    -3333.94599471768652 |
           | Ion-ion (open BC)          :   826100.47490954282694 |
           | Smeared ion non-self corr. :  -826052.47553360578604 |
           | Smeared ion self corr.     :   -14457.16956389741790 |
           | Solvent cavitation energy  :        2.24737605387432 |
           | Solute-solvent dis-rep en. :       -1.61569482953160 |
           | Total                      :   -11647.82541985960052 |
           --------------------------------------------------------
           ------ LOCAL ENERGY COMPONENTS FROM MATRIX TRACES ------
           | Pseudopotential (local)    :    -4988.84681159840875 |
           | Hartree                    :    -1982.24924057414046 |
           --------------------------------------------------------
           Integrated density           :     7191.99999999991542
           Integrated density tr(KS)    :     7192.00000000000000
================================================================================


                        <<<<< CALCULATION SUMMARY >>>>>                         
|ITER|    RMS GRADIENT   |     TOTAL ENERGY    |   step   |     Epredicted              
   0     0.00003720666700 -11647.77974099293351   0.520236 -11647.81906626983255        
   1     0.00001250699218 -11647.82426417770330   0.114015 -11647.82523803756158        
   2     0.00000541310191 -11647.82538243406452   0.019810 -11647.82541413071885        
   3     0.00000236807562 -11647.82541847671382   0.003855 -11647.82541965715791        
   4     0.00000105708915 -11647.82541985972784  <-- CG                                 

=================== Finished the calculation in solvent ========================
= Adjusting the following parameters: 
= read_denskern: F
= read_tightbox_ngwfs: F
= maxit_pen: 0 (restored to user-specified value)
= restart read filename prefix: ""
= restart write filename prefix: ""
================================================================================

================================================================================
IS: Calculation in solvent completed (NGWFs converged).      

Individual components of total energy in solvent:     hartree           kcal/mol
- Usual non-electrostatic DFT terms:    -12877.86371209539175    -8080981.309716
- Electrostatic fixed charge energy:      1229.40661101132105      771464.279148
- Apolar cavitation energy:                  2.24737605387432        1410.249735
- Apolar dispersion-repulsion energy:       -1.61569482953160       -1013.863791
 -------------------------------------------------------------------------------
- Total energy in solvent:              -11647.82541985972784    -7309120.644623

Components of total energy in solvent:                hartree           kcal/mol
- Usual non-electrostatic DFT terms:    -12877.86371209539175    -8080981.309716
- Electrostatic energy:                   1229.40661101132105      771464.279148
- Apolar energy terms:                       0.63168122434272         396.385944
 -------------------------------------------------------------------------------
- Total energy in solvent:              -11647.82541985972784    -7309120.644623

Calculation of free energy of solvation:              hartree           kcal/mol
- Total energy in solvent:         (+)  -11647.82541985972784    -7309120.644623
- Total energy in vacuum:          (-)  -11644.00226634345017    -7306721.579623
 -------------------------------------------------------------------------------
- Total free energy of solvation:           -3.82315351627767       -2399.065000

Components of polar term in f.e. of solvation:        hartree           kcal/mol
- Electrostatic:                            -4.81380716484205       -3020.709537
- Change in nonelectrostatic DFT terms:      0.35897242422107         225.258592
 -------------------------------------------------------------------------------
- Polar term in f.e. of solvation:          -4.45483474062098       -2795.450944

Components of free energy of solvation:               hartree           kcal/mol
- Polar term in f.e. of solvation: (+)      -4.45483474062098       -2795.450944
- Apolar (cavitation, dis., rep.): (+)       0.63168122434272         396.385944
 -------------------------------------------------------------------------------
- Total free energy of solvation:           -3.82315351627826       -2399.065000
================================================================================


------------------------------ TIMING INFORMATION ------------------------------
AVERAGE TIME:   26778.836s on    360 node(s)                                    
TOTAL TIME:     26778.836s on    360 node(s)                                    
================= AVERAGE TIMINGS FROM ALL NODES (CUMULATIVE) ==================
|| TAG                                    #calls    cpu time   %total  Gflops ||
|| work_imbalance                       :     1        0.00s   0.000%  ------ ||
|| sparse_set_to_garbage                :   218        0.01s   0.000%  ------ ||
|| ngwfs_initialise_from_radial         :     1        0.02s   0.000%  ------ ||
|| basis_extract_function_from_box      :   632        0.03s   0.000%  ------ ||
|| parallel_prepare_fd_halos_request    :  2073        0.04s   0.000%  ------ ||
|| parallel_prepare_fd_halos_alloc      :  2073        0.10s   0.000%  ------ ||
|| openbc_locps_radial                  :     1        0.84s   0.003%  ------ ||
|| parallel_prepare_fd_halos_satisfy    :  2073        2.52s   0.009%  ------ ||
|| pseudopotentials_nonlocal_mat        :    32        2.60s   0.010%  ------ ||
|| restart_ngwfs_tightbox_input         :     1       10.52s   0.039%  ------ ||
|| projectors_init_fftbox_recip         :    66       15.20s   0.057%  ------ ||
|| projectors_func_ovlp_box             :    32       15.34s   0.057%  ------ ||
|| pseudo_make_structure_factor         :     2       15.38s   0.057%  ------ ||
|| basis_copy_function_to_box           : 19587       15.40s   0.058%  ------ ||
|| restart_kernel_write                 :    18       18.08s   0.068%  ------ ||
|| parallel_prepare_fd_halos_clear      :  2073       20.55s   0.077%  ------ ||
|| palser_mano_kernel_optimise          :     1       23.02s   0.086%  ------ ||
|| parallel_prepare_fd_halos_comms_imbal:  2073       25.61s   0.096%  ------ ||
|| function_ops_brappd_ketppd           :    32       25.76s   0.096%  ------ ||
|| sparse_init                          :     2       27.81s   0.104%  ------ ||
|| projectors_gradient_batch            :    34       31.23s   0.117%  ------ ||
|| ngwf_gradient_coeffs                 :    17       31.24s   0.117%  ------ ||
|| basis_dot_function_with_box          : 2.242M      43.98s   0.164%  ------ ||
|| fourier_apply_box_pair               :  5518       46.85s   0.175%  4.358k ||
|| density_init_guess_real              :     1       47.35s   0.177%  ------ ||
|| restart_kernel_read                  :     1       48.22s   0.180%  ------ ||
|| integrals_kinetic                    :    32       49.82s   0.186%  ------ ||
|| parallel_prepare_fd_halos_comms_wait :  2073       53.57s   0.200%  ------ ||
|| sparse_embed_hotelling_invert_embed  :    32       61.67s   0.230%  ------ ||
|| parallel_prepare_fd_halos            :  2073      102.41s   0.382%  ------ ||
|| basis_add_function_to_box            : 6.012M     124.22s   0.464%  ------ ||
|| finite_difference_derivative         :  2073      153.36s   0.573%  ------ ||
|| openbc_locps_on_grid                 :     2      159.20s   0.595%  ------ ||
|| ke_density_batch_grad_apply          :   688      208.34s   0.778%  ------ ||
|| sparse_trace                         :  5632      209.70s   0.783%  ------ ||
|| hamiltonian_energy_components        :     4      263.42s   0.984%  ------ ||
|| kernel_purify                        :   527      273.78s   1.022%  ------ ||
|| integrals_locpot_mat_els_batch       :   358      285.46s   1.066%  ------ ||
|| lnv_gradient_norm                    :   170      329.70s   1.231%  ------ ||
|| density_batch_row_sums               :   688      428.14s   1.599%  ------ ||
|| kernel_fix                           :   170      443.56s   1.656%  ------ ||
|| ke_density_batch_row_sums            :   688      466.96s   1.744%  ------ ||
|| ngwf_gradient_build_batch            :    34      520.96s   1.945%  ------ ||
|| density_fftbox_interpolate_multiply  :  6536      566.24s   2.115%  ------ ||
|| ngwf_gradient_batch                  :    34      594.19s   2.219%  ------ ||
|| ngwf_gradient_lnv                    :    17      663.60s   2.478%  ------ ||
|| density_fftbox_deposit_to_cell       :  6536      887.43s   3.314%  ------ ||
|| fourier_apply_cell_backward          :  9295      946.32s   3.534% 131.905 ||
|| potential_apply_to_ngwf_batch        :   358      951.57s   3.553%  ------ ||
|| fourier_apply_cell_forward           :  9293     1038.29s   3.877% 120.195 ||
|| ke_density_fftbox_deposit_to_cell    :  6536     1083.08s   4.045%  ------ ||
|| restart_ngwfs_tightbox_output        :    15     1148.24s   4.288%  ------ ||
|| integrals_locpot_dbl_grid            :   179     1257.95s   4.698%  ------ ||
|| cell_grid_extract_box_real           : 36161     1320.08s   4.930%  ------ ||
|| sparse_product                       :  7086     1521.07s   5.680%  ------ ||
|| cell_grid_deposit_box_real           : 15151     1841.27s   6.876%  ------ ||
|| density_batch_interp_deposit         :   688     1848.16s   6.902%  ------ ||
|| multigrid_prepare_bound_cond         :   345     2191.78s   8.185%  ------ ||
|| ke_density_fftbox_interpolate_multipl:  6536     2248.35s   8.396%  ------ ||
|| xc_energy_potential                  :   345     2338.65s   8.733%  ------ ||
|| density_on_dbl_grid                  :   344     2396.12s   8.948%  ------ ||
|| potential_apply_to_fftbox_batch      :  1020     2677.74s   9.999%  ------ ||
|| integrals_div_locpot_grad_functions  :   170     3595.82s  13.428%  ------ ||
|| nlxc_vdw_energy                      :   688     3628.14s  13.549%  ------ ||
|| fourier_apply_box                    : 141.4k    3637.83s  13.585%  4.759k ||
|| ke_density_batch_interp_deposit      :   688     4026.88s  15.038%  ------ ||
|| ke_density_on_dbl_grid               :   344     4902.97s  18.309%  ------ ||
|| dl_mg_solver_calls                   :   345     5386.27s  20.114%  ------ ||
|| multigrid_calculate_hartree          :   345     7785.76s  29.074%  ------ ||
|| hamiltonian_lhxc_calculate           :   340    17376.76s  64.890%  ------ ||
|| lnv_denskernel_optimise_cg           :    17    23153.15s  86.461%  ------ ||
|| ngwf_cg_optimise                     :     2    26230.56s  97.953%  ------ ||
|| total_time                           :     1    26778.84s 100.000%  ------ ||
================================================================================
Overhead of generating timer report: 
- 0 ms averaging over threads,
- 123 ms ensuring consistency across MPI ranks,
- 1 ms printing in order.

Job completed: 09-04-2020 17:18 (+0100)

Application 40159161 resources: utime ~29966598s, stime ~1374949s, Rss ~5598368, inblocks ~3144777351, outblocks ~149970429
