 +---------------------------------------------------------------+
 |                                                               |
 |        ####### #     # ####### ####### ####### ######         |
 |        #     # ##    # #          #    #       #     #        |
 |        #     # # #   # #          #    #       #     #        |
 |        #     # #  #  # #####      #    #####   ######         |
 |        #     # #   # # #          #    #       #              |
 |        #     # #    ## #          #    #       #              |
 |        ####### #     # #######    #    ####### #              |
 |                                                               |
 |        Linear-Scaling Ab Initio Total Energy Program          |
 |                                                               |
 |          Release for academic collaborators of ODG            |
 |                                             Version 5.3.2.6.  |
 |                                                               |
 +---------------------------------------------------------------+
 |                                                               |
 |  Authors:                                                     |
 |  Jacek Dziedzic, Peter D. Haynes, Nicholas D. M. Hine,        |
 |  Arash. A. Mostofi, Mike C. Payne and Chris-Kriton Skylaris   |
 |                                                               |
 |  Contributors:                                                |
 |  J. Aarons, L. Andrinopoulos, P. W. Avraam, R. A. Bell,       |
 |  A. Bhandari, G. A. Bramley, R. J. Charlton, S. J. Clark,     |
 |  R. J. Clements, G. C. Constantinescu, F. Corsetti,           |
 |  N. Corsini, O. Dieguez, S. M. M. Dubois, K. K. B. Duff,      |
 |  J. M. Escartin, A. Greco, H. Helal, Q. O. Hill, L. P. Lee,   |
 |  J.-H. Li, E. B. Linscott, G. Moynihan, D. D. O`Regan,        |
 |  O. K. Okan, M. J. S. Phipps, C. J. Pickard,                  |
 |  J. C. A. Prentice, M. I. J. Probert, L. E. Ratcliff,         |
 |  M. Robinson, A. Ruiz Serrano, J. S. Spencer, E. W. Tait,     |
 |  G. Teobaldi, D. Turban, V. Vitale, K. A. Wilkinson,          |
 |  C. Weber, J. C. Womack, N. Yeung and T. J. Zuehlsdorff       |
 |                                                               |
 |                                   Copyright (c) 2004-2019     |
 |                                                               |
 |  Please cite:                                                 |
 |  "Introducing ONETEP: Linear-scaling density functional       |
 |   simulations on parallel computers".                         |
 |   C.-K. Skylaris, P. D. Haynes, A. A. Mostofi, M. C. Payne.   |
 |   J. Chem. Phys. 122 084119 (2005).                           |
 |                                                               |
 |          in all publications arising from your use of ONETEP. |
 |                                                               |
 +---------------------------------------------------------------+
 |                                                               |
 |   ONETEP is based on developments described in the following  |
 |   publications:                                               |
 |                                                               |
 |  "Nonorthogonal generalized Wannier function pseudopotential  |
 |   plane-wave method".                                         |
 |   C.-K. Skylaris, A. A. Mostofi, P. D. Haynes, O. Dieguez,    |
 |   M. C. Payne.                                                |
 |   Phys. Rev. B 66 035119 (2002).                              |
 |                                                               |
 |  "Preconditioned iterative minimization for linear-scaling    |
 |   electronic structure calculations".                         |
 |   A. A. Mostofi, P. D. Haynes, C.-K. Skylaris, M. C. Payne.   |
 |   J. Chem. Phys. 119(17), pp.8842-8848 (2003).                |
 |                                                               |
 |  "Total-energy calculations on a real space grid with         |
 |   localized functions and a plane-wave basis".                |
 |   A. A. Mostofi, C.-K. Skylaris, P. D. Haynes, M. C. Payne.   |
 |   Comput. Phys. Commun. 147, pp.788-802 (2002).               |
 |                                                               |
 |  "Accurate kinetic energy evaluation in electronic structure  |
 |   calculations with localized functions on real space grids"  |
 |   C.-K. Skylaris, A. A. Mostofi, P. D. Haynes, C. J. Pickard, |
 |   M. C. Payne.                                                |
 |   Comput. Phys. Commun. 140, pp.315-322 (2001).               |
 |                                                               |
 |  "Accurate ionic forces and geometry optimization in linear-  |
 |   scaling density-functional theory with local orbitals"      |
 |   N. D. M. Hine, M. Robinson, P. D. Haynes, C.-K. Skylaris,   |
 |   M. C. Payne, and A. A. Mostofi.                             |
 |   Phys. Rev. B 83 195102 (2011).                              |
 |                                                               |
 +---------------------------------------------------------------+

Job started: 05-03-2020 17:29 (-0000)
 
Reading parameters from file "complex_10361.dat" ...... done

If your calculation crashes here, before "Checking processes and threads..."
is displayed, then your stack size is insufficient.
If so, use "ulimit -s unlimited" at runtime.
You can disable this check with "check_stack_size F".

Checking processes and threads...
   Determining the default number of threads...
      No default threads set at compilation time: defaulting to 1.
      OpenMP library call suggests 4 threads.
      Hybrid MPI-OpenMP compilation detected.
      Number of MPI processes > 1.
      OMP_NUM_THREADS environment variable present and
      its value matches the one obtained from the OpenMP library call.
      Using this value as default.
      Default threads: 4
      Default applies to threads_max and threads_num_fftboxes.
      Settings in the input file override this default.
   ... done

   Running with 60 MPI processes.
   There are 6 MPI processes running on the same node as the root process.
   Each MPI process is using: 
               1 threads for simulation cell FFTs.
               1 threads for parallel FFT box operations.
               4 threads for loops over batched FFT box operations.
               4 threads in other parallel regions.
... done

Basic input checks...... done

Reading geometry and species blocks from file "complex_10361.dat" ...
  <species_atomic_set> block not found: NGWF initialisation set to SOLVE
IS: Dielectric excluded regions:
    - NONE.
    
  Number of PPD points along a3 set to 1.  This is 
  the default value, it may have been provided also in the input file.
... done
 Writing xyz coordinates to file "complex_10361.xyz" ... done


--------------------------------------------------------------------------------
---------------------------------- INPUT FILE ----------------------------------
--------------------------------------------------------------------------------

cutoff_energy       : 800 eV                                                    
xc_functional PBE                                                               
task SINGLEPOINT                                                                
write_xyz true                                                                  
output_detail VERBOSE                                                           
ngwf_threshold_orig : 0.000002                                                  
kernel_cutoff       : 1000                                                      
k_zero              : 3.5                                                       
elec_cg_max 0                                                                   
occ_mix 1.0                                                                     
dispersion 1                                                                    
maxit_ngwf_cg 40                                                                
minit_lnv 10                                                                    
maxit_lnv 10                                                                    
write_denskern T                                                                
write_tightbox_ngwfs T                                                          
charge 9                                                                        
is_implicit_solvent T                                                           
is_auto_solvation T                                                             
is_include_apolar T                                                             
is_smeared_ion_rep T                                                            
is_solvent_surf_tension 4.7624E-5 Ha/bohr**2                                    
is_apolar_scaling_factor 0.281075                                               
is_solvation_beta 1.3                                                           
is_density_threshold 0.00035                                                    
is_bulk_permittivity 78.54                                                      
is_dielectric_model fix_initial                                                 
is_smeared_ion_width 0.8                                                        
mg_defco_fd_order 8                                                             
is_bc_coarseness 10                                                             
is_bc_surface_coarseness 1                                                      
fine_grid_scale 2.0                                                             
%block species                                                                  
N   N   7 4 8.0                                                                 
H   H   1 1 8.0                                                                 
C   C   6 4 8.0                                                                 
S   S  16 9 8.0                                                                 
O   O   8 4 8.0                                                                 
%endblock species                                                               
%block species_pot                                                              
N   N_00.recpot                                                                 
H   H_04.recpot                                                                 
C   C_01.recpot                                                                 
S   S_00.recpot                                                                 
O   O_02.recpot                                                                 
%endblock species_pot                                                           
%block lattice_cart                                                             
142.669   0.000   0.000                                                         
0.000 146.65   0.000                                                            
0.000   0.000   162.396                                                         
%endblock lattice_cart                                                          
%block positions_abs                                                            
     Hash =   000004671767609423179872
%endblock positions_abs                                                         

--------------------------------------------------------------------------------
-------------------------------- END INPUT FILE --------------------------------
--------------------------------------------------------------------------------


 
 ESDF WARNING(1): "kernelcutoff" (esdf_physical) has no units. Assume "bohr".
 ESDF WARNING(2): "kzero" (esdf_physical) has no units. Assume "1/bohr".
 ESDF WARNING(3
 ): "issmearedionwidth" (esdf_physical) has no units. Assume "bohr".
<<<<<<<<<<<<<<<<<<<<<<<<<<<<<<<<< Full system >>>>>>>>>>>>>>>>>>>>>>>>>>>>>>>>>>
<<<<<<<<<<<<<<<<<<<<<<<<< Pseudopotential information >>>>>>>>>>>>>>>>>>>>>>>>>>
File: N_00.recpot [ 2001 points up to Gmax=  52.9 (1/bohr)]
  Atomic number:  7;  ionic charge:  5.000000
    Shell 1: l = 0; rc = 1.48 bohr
File: H_04.recpot [ 2001 points up to Gmax=  52.9 (1/bohr)]
  Atomic number:  1;  ionic charge:  1.000000
    Local potential
File: C_01.recpot [ 2001 points up to Gmax=  52.9 (1/bohr)]
  Atomic number:  6;  ionic charge:  4.000000
    Shell 1: l = 0; rc = 1.48 bohr
File: S_00.recpot [ 2001 points up to Gmax=  52.9 (1/bohr)]
  Atomic number: 16;  ionic charge:  6.000000
    Shell 1: l = 0; rc = 1.90 bohr
    Shell 2: l = 2; rc = 1.84 bohr
File: O_02.recpot [ 2001 points up to Gmax=  52.9 (1/bohr)]
  Atomic number:  8;  ionic charge:  6.000000
    Shell 1: l = 0; rc = 1.31 bohr
<<<<<<<<<<<<<<<<<<<<<<<<<<<<<<<<<<<<<<<<>>>>>>>>>>>>>>>>>>>>>>>>>>>>>>>>>>>>>>>>

-------------------------- Atom counting information ---------------------------
Symbol    Natoms    Nngwfs    Nprojs
  N        236       944       236
  H       1317      1317         0
  C        816      3264       816
  S          6        54        36
  O        241       964       241
.......   ......    ......    ......
Totals:   2616      6543      1329
--------------------------------------------------------------------------------

=============================== PSINC grid sizes ===============================
                      Simulation cell:  286 x 294 x 320
                              FFT-box:  105 x 105 x  99
                                  PPD:   11 x   6 x   1
Grid space d1=  0.498842657343a0 (KE cutoff=  30.52649Eh = 830.66799eV)
Grid space d2=  0.498809523810a0 (KE cutoff=  30.53054Eh = 830.77835eV)
Grid space d3=  0.507487500000a0 (KE cutoff=  29.49533Eh = 802.60885eV)
================================================================================

********************* Fourier parallelisation information **********************
       Coarse grid (whole simulation cell) dimensions:    286   294   320
          Real-space ('12') slabs/node (min max mean):      5     6     5
         Recip-space ('23') slabs/node (min max mean):      2     3     2
********************************************************************************

********************* Fourier parallelisation information **********************
       Double grid (whole simulation cell) dimensions:    572   588   640
          Real-space ('12') slabs/node (min max mean):     10    11    10
         Recip-space ('23') slabs/node (min max mean):      4     5     4
********************************************************************************
ONETEP fine grid is 572 x 588 x 640 gridpoints, 142.6690 x 146.6500 x 162.3960 bohr.
FD multigrid is     569 x 585 x 633 gridpoints, 141.9207 x 145.9018 x 160.6198 bohr.


Calculating local pseudopotential in open BC on a radial grid ...
Discrepancy between calculated realspace psloc and -Z/x on [5a0,261.215a0]:
max |rel. diff| # avg |rel. diff| #  avg rel. diff #  f # pseudopotential file
 0.000261901569    0.000004963664   0.000000071970   55  'N_00.recpot'
 0.000422260137    0.000017549664  -0.000000063361   55  'H_04.recpot'
 0.000361991046    0.000016543264   0.000000134927   55  'C_01.recpot'
 0.000447743184    0.000019132268   0.000000438157   55  'S_00.recpot'
 0.000711628927    0.000028437426   0.000000135877   55  'O_02.recpot'
... done

Atom SCF Calculation for N  : Z (AE atom) =   7 : Z (PS atom) =   5
Config String:
Orbitals (num,occ):  2     2.00 3.00
Orbitals   (num,l):  2        0    1
Real-space Grid (nr,dr,rmax): 1203    0.0066555740    8.0000000000
Spherical Bessel Basis (nsws,lmax,cutoff):   47    1  176.3951722778
Confining potential (l,width,scale):  0    3.0000000000  100.0000000000
Confining potential (l,width,scale):  1    3.0000000000  100.0000000000
  1         -4.7312375307   -3.4155304497    7.0523828109   -1.9351020946
  2         -9.7309464766   -2.0532547791    8.2966052865   -2.2494486027
  3         -9.6627394379   -2.1124926340    8.2327997121   -2.2369778124
  4         -9.6814993499   -2.1215521045    8.2229805960   -2.2365178421
  5         -9.6843326483   -2.1250939529    8.2191374534   -2.2362718126
  6         -9.6859628709   -2.1267894855    8.2172963573   -2.2362066344
  7         -9.6867347035   -2.1276425665    8.2163697352   -2.2361903369
  8         -9.6870802100   -2.1280764625    8.2158983890   -2.2361891460
  9         -9.6872290423   -2.1282977424    8.2156580222   -2.2361920435
 10         -9.6872901988   -2.1284107021    8.2155353368   -2.2361953393
 11         -9.6873135296   -2.1284684031    8.2154726809   -2.2361979819
 12         -9.6873212476   -2.1284978948    8.2154406648   -2.2361998431
 13         -9.6873229586   -2.1285129774    8.2154242957   -2.2362010676
 14         -9.6873226456   -2.1285206957    8.2154159216   -2.2362018403
 15         -9.6873218534   -2.1285246479    8.2154116349   -2.2362023142
 16         -9.6873212599   -2.1285262679    8.2154098784   -2.2362025420
 17         -9.6873207834   -2.1285272564    8.2154088068   -2.2362026955
 18         -9.6873204210   -2.1285278596    8.2154081529   -2.2362027982
 19         -9.6873201550   -2.1285282280    8.2154077538   -2.2362028667
 20         -9.6873199645   -2.1285284529    8.2154075102   -2.2362029121
 21         -9.6873198305   -2.1285285903    8.2154073614   -2.2362029421
 22         -9.6873197377   -2.1285286742    8.2154072705   -2.2362029618
Atom SCF converged after  22 iterations to a total energy of     -9.68731974

Atom SCF Calculation for H  : Z (AE atom) =   1 : Z (PS atom) =   1
Config String:
Orbitals (num,occ):  1     1.00
Orbitals   (num,l):  1        0
Real-space Grid (nr,dr,rmax): 1203    0.0066555740    8.0000000000
Spherical Bessel Basis (nsws,lmax,cutoff):   47    0  176.3951722778
Confining potential (l,width,scale):  0    3.0000000000  100.0000000000
  1         -0.3194257691   -0.2393854593    0.2820953124   -0.2424203209
  2         -0.3951823392   -0.2377116493    0.2886404059   -0.2475147891
  3         -0.4317044583   -0.2352244387    0.2921333887   -0.2514046172
  4         -0.4470703708   -0.2341892222    0.2934391879   -0.2531009782
  5         -0.4532132900   -0.2338556667    0.2938388426   -0.2537313520
  6         -0.4556579251   -0.2337612552    0.2939448584   -0.2539550462
  7         -0.4566418315   -0.2337377355    0.2939680120   -0.2540342273
  8         -0.4570437922   -0.2337331116    0.2939708287   -0.2540627372
  9         -0.4572102946   -0.2337328328    0.2939698291   -0.2540732650
 10         -0.4572800424   -0.2337332404    0.2939687193   -0.2540772588
 11         -0.4573095100   -0.2337335791    0.2939680317   -0.2540788122
 12         -0.4573220379   -0.2337337762    0.2939676699   -0.2540794294
 13         -0.4573273880   -0.2337338775    0.2939674931   -0.2540796787
 14         -0.4573296803   -0.2337339266    0.2939674099   -0.2540797808
 15         -0.4573306647   -0.2337339495    0.2939673718   -0.2540798230
 16         -0.4573310882   -0.2337339601    0.2939673545   -0.2540798406
 17         -0.4573312706   -0.2337339649    0.2939673467   -0.2540798479
 18         -0.4573313493   -0.2337339670    0.2939673433   -0.2540798510
Atom SCF converged after  18 iterations to a total energy of     -0.45733135

Atom SCF Calculation for C  : Z (AE atom) =   6 : Z (PS atom) =   4
Config String:
Orbitals (num,occ):  2     2.00 2.00
Orbitals   (num,l):  2        0    1
Real-space Grid (nr,dr,rmax): 1203    0.0066555740    8.0000000000
Spherical Bessel Basis (nsws,lmax,cutoff):   47    1  176.3951722778
Confining potential (l,width,scale):  0    3.0000000000  100.0000000000
Confining potential (l,width,scale):  1    3.0000000000  100.0000000000
  1         -5.2976922011   -1.3069684169    4.5135249990   -1.4493313817
  2         -5.3721716256   -1.3429755895    4.4750154450   -1.4361613026
  3         -5.3809959565   -1.3617365618    4.4541655428   -1.4305930207
  4         -5.3918938866   -1.3667928461    4.4484735100   -1.4294652294
  5         -5.3956096428   -1.3688539142    4.4461376126   -1.4290734646
  6         -5.3968271862   -1.3696852393    4.4451910874   -1.4289366866
  7         -5.3972028401   -1.3700178062    4.4448112275   -1.4288900460
  8         -5.3973067903   -1.3701500158    4.4446598370   -1.4288749220
  9         -5.3973286940   -1.3702023868    4.4445997329   -1.4288704293
 10         -5.3973289850   -1.3702230869    4.4445759233   -1.4288693188
 11         -5.3973254264   -1.3702312560    4.4445665049   -1.4288691775
 12         -5.3973224003   -1.3702344755    4.4445627836   -1.4288692549
 13         -5.3973208708   -1.3702354890    4.4445616088   -1.4288693270
 14         -5.3973198783   -1.3702360102    4.4445610034   -1.4288693814
 15         -5.3973192535   -1.3702362780    4.4445606917   -1.4288694190
 16         -5.3973188684   -1.3702364155    4.4445605313   -1.4288694437
 17         -5.3973186349   -1.3702364860    4.4445604489   -1.4288694595
 18         -5.3973184951   -1.3702365221    4.4445604065   -1.4288694693
 19         -5.3973184122   -1.3702365405    4.4445603848   -1.4288694753
Atom SCF converged after  19 iterations to a total energy of     -5.39731841

Atom SCF Calculation for S  : Z (AE atom) =  16 : Z (PS atom) =   6
Config String:
Orbitals (num,occ):  3     2.00 4.00 0.00
Orbitals   (num,l):  3        0    1    2
Real-space Grid (nr,dr,rmax): 1203    0.0066555740    8.0000000000
Spherical Bessel Basis (nsws,lmax,cutoff):   47    2  176.3951722778
Confining potential (l,width,scale):  0    3.0000000000  100.0000000000
Confining potential (l,width,scale):  1    3.0000000000  100.0000000000
Confining potential (l,width,scale):  2    3.0000000000  100.0000000000
  1        -12.4735062396   -1.0328741412   10.1554312477   -2.4512393157
  2         -9.9458301913   -2.4607392455    8.3041325857   -2.0306994528
  3        -10.1450417646   -2.2931184565    8.4831893826   -2.0812538287
  4        -10.1528335592   -2.2733105793    8.5050388867   -2.0896035179
  5        -10.1571940363   -2.2633716629    8.5160794258   -2.0939370707
  6        -10.1594380571   -2.2584938667    8.5215163935   -2.0961289008
  7        -10.1605856507   -2.2561081821    8.5241804044   -2.0972291378
  8        -10.1611799191   -2.2549395235    8.5254868240   -2.0977806248
  9        -10.1614918752   -2.2543658586    8.5261285885   -2.0980571586
 10        -10.1616572884   -2.2540839121    8.5264441898   -2.0981959233
 11        -10.1617455602   -2.2539453058    8.5265994231   -2.0982656006
 12        -10.1617928447   -2.2538772062    8.5266757320   -2.0983006047
 13        -10.1618182292   -2.2538437891    8.5267131983   -2.0983181961
 14        -10.1618318741   -2.2538274201    8.5267315620   -2.0983270391
 15        -10.1618392144   -2.2538194197    8.5267405433   -2.0983314852
 16        -10.1618431651   -2.2538155200    8.5267449245   -2.0983337210
 17        -10.1618452923   -2.2538136252    8.5267470551   -2.0983348455
 18        -10.1618464380   -2.2538127080    8.5267480875   -2.0983354110
 19        -10.1618470552   -2.2538122659    8.5267485856   -2.0983356955
 20        -10.1618473878   -2.2538120540    8.5267488248   -2.0983358386
 21        -10.1618475670   -2.2538119530    8.5267489389   -2.0983359106
 22        -10.1618476637   -2.2538119053    8.5267489929   -2.0983359468
Atom SCF converged after  22 iterations to a total energy of    -10.16184766

Atom SCF Calculation for O  : Z (AE atom) =   8 : Z (PS atom) =   6
Config String:
Orbitals (num,occ):  2     2.00 4.00
Orbitals   (num,l):  2        0    1
Real-space Grid (nr,dr,rmax): 1203    0.0066555740    8.0000000000
Spherical Bessel Basis (nsws,lmax,cutoff):   47    1  176.3951722778
Confining potential (l,width,scale):  0    3.0000000000  100.0000000000
Confining potential (l,width,scale):  1    3.0000000000  100.0000000000
  1         -1.8735052164   -7.5539365035   10.1554312477   -2.4512393157
  2        -16.0318313751   -3.1285771268   13.6395848164   -3.2358799643
  3        -15.9524020423   -3.0762819706   13.6967272503   -3.2536856837
  4        -15.8521515939   -3.0781493909   13.6951909330   -3.2561700440
  5        -15.8357139793   -3.0748501933   13.6988803334   -3.2580493133
  6        -15.8246052853   -3.0740779781   13.6997881576   -3.2588327446
  7        -15.8189019501   -3.0737449687   13.7001869911   -3.2592378801
  8        -15.8159785510   -3.0736026016   13.7003615168   -3.2594475790
  9        -15.8144776168   -3.0735437994   13.7004360379   -3.2595560735
 10        -15.8137058024   -3.0735207882   13.7004667348   -3.2596122456
 11        -15.8133083127   -3.0735125946   13.7004786868   -3.2596413656
 12        -15.8131032938   -3.0735102195   13.7004828997   -3.2596564858
 13        -15.8129973902   -3.0735099286   13.7004840891   -3.2596643505
 14        -15.8129426040   -3.0735102506   13.7004842061   -3.2596684489
 15        -15.8129142203   -3.0735106556   13.7004840157   -3.2596705887
 16        -15.8128994940   -3.0735109855   13.7004837906   -3.2596717080
 17        -15.8128918425   -3.0735112169   13.7004836103   -3.2596722946
 18        -15.8128878614   -3.0735113674   13.7004834848   -3.2596726026
 19        -15.8128857871   -3.0735114608   13.7004834035   -3.2596727646
 20        -15.8128847048   -3.0735115170   13.7004833533   -3.2596728500
 21        -15.8128841394   -3.0735115501   13.7004833231   -3.2596728951
 22        -15.8128838436   -3.0735115693   13.7004833054   -3.2596729190
 23        -15.8128836887   -3.0735115802   13.7004832951   -3.2596729316
 24        -15.8128836074   -3.0735115864   13.7004832893   -3.2596729383
Atom SCF converged after  24 iterations to a total energy of    -15.81288361

========================== Calculation in vacuum ==============================
= Adjusting the following parameters: 
= is_implicit_solvent: F
= is_include_apolar: F
= write_denskern: T
= write_tightbox_ngwfs: T
= restart read filename prefix: ""
= restart write filename prefix: "vacuum_"
===============================================================================

Determining parallel strategy ...
... using space-filling curve
... NGWF load balancing: max    110;  min    109;  average    109
... Projector load balancing: max     26;  min     21;  average     22
... done
Calculating direct Ion-Ion energy ...
Ion-Ion Energy        :    829703.85344994394109
======================= Empirical dispersion information =======================
Model : Elstner
Dispersion Correction Energy: -0.32772849E+01 Hartree
================================================================================
Basis initialisation ...... NGWF spheres initialised
... Projector spheres initialised
... NGWF tight boxes initialised
... Tight-boxes gathered
... NGWF basis size (local,global):     979135  59016477
... Nonlocal pseudopotential projector initialisation
... done

========================== Sparse matrix information ===========================
                        Overlap matrix filling:   6.73%
                        Density kernel filling: 100.00%
              NGWF-Proj overlap matrix filling:   1.76%
                    Hamiltonian matrix filling:   7.56%
                  NGWF diagonal matrix filling:   0.05%
                             KS matrix filling: 100.00% 
                           KSKS matrix filling: 100.00% 
================================================================================

Sparse matrix initialisation ... done

Generating smeared ion density ... done
Smeared ion self correction:     -14543.939510
Smeared ion non-self correction: -829655.721464
NGWF initialisation ...... done
============ Calculation of NGWF S^-1 using Hotelling algorithm ================ 
         Iteration  |  Frobenius norm and Maximum abs value    (of I-S*S_n^-1)   
               1       0.78865352E+02     0.98394240E+00
               2       0.77120983E+02     0.96824041E+00
               3       0.74256984E+02     0.93790207E+00
               4       0.70115658E+02     0.88145975E+00
               5       0.64883132E+02     0.78359783E+00
               6       0.58938689E+02     0.71071342E+00
               7       0.52881565E+02     0.67512828E+00
               8       0.47277371E+02     0.65062016E+00
               9       0.41339318E+02     0.61477926E+00
              10       0.33337985E+02     0.55331334E+00
              11       0.22922261E+02     0.45214434E+00
              12       0.12133689E+02     0.30851587E+00
              13       0.42341670E+01     0.15085809E+00
              14       0.73897506E+00     0.40367531E-01
              15       0.41855370E-01     0.38137086E-02
              16       0.31782726E-03     0.36283697E-04
              17       0.32114949E-07     0.37932829E-08
              18       0.10315965E-12     0.46629367E-14
================================================================================
Calculating local pseudopotential in open BC on the fine real space grid ...
... done

MG BCs: +ve charge blocks (gridpoints):     20875 (   16372070).
MG BCs: -ve charge blocks (gridpoints):      8122 (    1102772).
MG BCs:     Elided blocks (gridpoints):    194357 (  193228703).
MG BCs: Computational effort saved:  99.9862%.
MG BCs: Charge after coarse-graining:           -9.0002341.
MG DL_MG: Calling solver with defect correction order = 8
MG DL_MG: Solver finished
MG Hartree energy from (\int phi*rho dr):              1471.316602
MG Hartree energy from (\int eps (grad phi)^2 dr):     1470.714247
MG Discrepancy due to finite box and discretization:     -0.602354 (  -0.04094%)
MG Correction to account for finite box:                  0.454613
MG Remaining discrepancy, due to discretization:         -0.147741 (  -0.01004%)
Up spin density kernel initialisation ... 
======= Optimisation of K by Palser-Manolopoulos canonical purification ======== 
         Iteration  |  Band structure energy |    c_n   
               1       -2595.75778272464322    0.5259759
               2       -2772.41634196166706    0.5164759
               3       -2952.53323939222673    0.5155561
               4       -3101.52108246465104    0.5301169
               5       -3191.81145371223556    0.5670430
               6       -3229.08188259708913    0.6113508
               7       -3241.81726536810766    0.6228797
               8       -3247.40272909345185    0.6239809
               9       -3250.08912216705767    0.6393970
              10       -3251.21049718535278    0.6595329
              11       -3251.66820471813935    0.6718543
              12       -3251.87337915007129    0.6685193
              13       -3251.97630620916743    0.6315886
              14       -3252.03578865696682    0.5577537
              15       -3252.07036949810026    0.5103732
              16       -3252.08035812402159    0.5754968
              17       -3252.08129954252036    0.6510291
              18       -3252.08145081899283    0.6643223
              19       -3252.08148667585328    0.6626718
              20       -3252.08151288640147    0.6593594
              21       -3252.08153869593343    0.6537860
              22       -3252.08156841202526    0.6444124
              23       -3252.08160508006677    0.6290676
              24       -3252.08165054725987    0.6053292
              25       -3252.08170421495288    0.5723883
              26       -3252.08176022841644    0.5355086
              27       -3252.08180527563627    0.5087629
              28       -3252.08182646065143    0.5005224
              29       -3252.08182994993149    0.5000017
              30       -3252.08183003165732    0.5000017
Termination criterion satisfied: band energy change below threshold.
Final occupancy bounds: [    0.00000000025266:    0.99999999999822]
Closest occupancy to 0.5:     0.99999999998820
================================================================================
... done

Writing density kernel to file "complex_10361.vacuum_dkn" ... done

>>> Optimising kernel for current NGWFs:
   Initial electron number for spin 1:    7234.00000000
     Final electron number for spin 1:    7234.00000000

=================== Penalty functional idempotency correction ==================
 RMS occupancy error at iteration   1:  0.000000 (step -0.5000 Ne1=   7234.0000)
            Final RMS occupancy error   :  0.000000 (Ne1=   7234.0000)
               Final occupancy bounds   : [  0.0000,  1.0000]
================================================================================

................................................................................
<<<<<<<<<<<<<< LNV (Original version) density kernel optimisation >>>>>>>>>>>>>>
~~~~~~~~~~~~~~~~~~~~~~~~~~~~~~~~~~~~~~~~~~~~~~~~~~~~~~~~~~~~~~~~~~~~~~~~~~~~~~~~
   iter  |      energy (Eh)       | rms gradient |  commutator  |   dE (Eh)
MG BCs: +ve charge blocks (gridpoints):     31775 (   17513948).
MG BCs: -ve charge blocks (gridpoints):      8435 (    1136065).
MG BCs:     Elided blocks (gridpoints):    183445 (  192053532).
MG BCs: Computational effort saved:  99.9809%.
MG BCs: Charge after coarse-graining:           -9.0010273.
MG DL_MG: Calling solver with defect correction order = 8
MG DL_MG: Solver finished
MG Hartree energy from (\int phi*rho dr):              1427.329383
MG Hartree energy from (\int eps (grad phi)^2 dr):     1426.678550
MG Discrepancy due to finite box and discretization:     -0.650833 (  -0.04560%)
MG Correction to account for finite box:                  0.462106
MG Remaining discrepancy, due to discretization:         -0.188726 (  -0.01322%)
      ideal mu1:      -0.702080523575
             Q0:  -11577.193601427949
             G0:    -145.923451069617
   RMS gradient:       0.001846229244
MG BCs: +ve charge blocks (gridpoints):     31757 (   17592840).
MG BCs: -ve charge blocks (gridpoints):      8366 (    1115403).
MG BCs:     Elided blocks (gridpoints):    183461 (  191995302).
MG BCs: Computational effort saved:  99.9810%.
MG BCs: Charge after coarse-graining:           -9.0010501.
MG DL_MG: Calling solver with defect correction order = 8
MG DL_MG: Solver finished
MG Hartree energy from (\int phi*rho dr):              1452.021292
MG Hartree energy from (\int eps (grad phi)^2 dr):     1451.385447
MG Discrepancy due to finite box and discretization:     -0.635845 (  -0.04379%)
MG Correction to account for finite box:                  0.462466
MG Remaining discrepancy, due to discretization:         -0.173380 (  -0.01194%)
     Trial step:       0.500000000000
             Q1:  -11588.818619595258
 Quadratic coef:      61.336707367500
 Linear coef   :     -72.961725534809
           Qmin:  -11598.891103712844
Quadratic minimum step length (  0.297381978371) accepted
    Initial Ne1:    7234.00000000
      Final Ne1:    7234.00000000

=================== Penalty functional idempotency correction ==================
 RMS occupancy error at iteration   1:  0.003438 (step -0.4883 Ne1=   7234.0000)
 RMS occupancy error at iteration   2:  0.000028 (step -0.5001 Ne1=   7234.0000)
            Final RMS occupancy error   :  0.000000 (Ne1=   7234.0000)
               Final occupancy bounds   : [  0.0000,  1.0000]
================================================================================

    1        -1.157719360143E+04     1.8462E-03     1.6699E-03
MG BCs: +ve charge blocks (gridpoints):     31770 (   17562094).
MG BCs: -ve charge blocks (gridpoints):      8404 (    1124049).
MG BCs:     Elided blocks (gridpoints):    183448 (  192017402).
MG BCs: Computational effort saved:  99.9809%.
MG BCs: Charge after coarse-graining:           -9.0010410.
MG DL_MG: Calling solver with defect correction order = 8
MG DL_MG: Solver finished
MG Hartree energy from (\int phi*rho dr):              1434.026483
MG Hartree energy from (\int eps (grad phi)^2 dr):     1433.385498
MG Discrepancy due to finite box and discretization:     -0.640985 (  -0.04470%)
MG Correction to account for finite box:                  0.462204
MG Remaining discrepancy, due to discretization:         -0.178781 (  -0.01247%)
      ideal mu1:      -0.743786643813
             Q0:  -11599.298782720231
             G0:     -12.162012369474
   RMS gradient:       0.000529371465
MG BCs: +ve charge blocks (gridpoints):     31773 (   17578863).
MG BCs: -ve charge blocks (gridpoints):      8384 (    1118934).
MG BCs:     Elided blocks (gridpoints):    183445 (  192005748).
MG BCs: Computational effort saved:  99.9809%.
MG BCs: Charge after coarse-graining:           -9.0010443.
MG DL_MG: Calling solver with defect correction order = 8
MG DL_MG: Solver finished
MG Hartree energy from (\int phi*rho dr):              1439.033403
MG Hartree energy from (\int eps (grad phi)^2 dr):     1438.395813
MG Discrepancy due to finite box and discretization:     -0.637590 (  -0.04431%)
MG Correction to account for finite box:                  0.461918
MG Remaining discrepancy, due to discretization:         -0.175672 (  -0.01221%)
     Trial step:       0.385604705865
             Q1:  -11602.157693605754
 Quadratic coef:       1.830818316937
 Linear coef   :      -4.689729202461
           Qmin:  -11602.302024465867
Quadratic minimum step length (  0.493872503069) accepted
    Initial Ne1:    7233.99987659
      Final Ne1:    7234.00000000

=================== Penalty functional idempotency correction ==================
 RMS occupancy error at iteration   1:  0.001829 (step -0.4929 Ne1=   7234.0000)
 RMS occupancy error at iteration   2:  0.000012 (step -0.5001 Ne1=   7234.0000)
            Final RMS occupancy error   :  0.000000 (Ne1=   7234.0000)
               Final occupancy bounds   : [  0.0000,  1.0000]
================================================================================

    2        -1.159929878272E+04     5.2937E-04     4.7881E-04    -2.2105E+01
MG BCs: +ve charge blocks (gridpoints):     31766 (   17583471).
MG BCs: -ve charge blocks (gridpoints):      8383 (    1117464).
MG BCs:     Elided blocks (gridpoints):    183452 (  192002610).
MG BCs: Computational effort saved:  99.9809%.
MG BCs: Charge after coarse-graining:           -9.0010454.
MG DL_MG: Calling solver with defect correction order = 8
MG DL_MG: Solver finished
MG Hartree energy from (\int phi*rho dr):              1440.486928
MG Hartree energy from (\int eps (grad phi)^2 dr):     1439.850216
MG Discrepancy due to finite box and discretization:     -0.636712 (  -0.04420%)
MG Correction to account for finite box:                  0.461850
MG Remaining discrepancy, due to discretization:         -0.174861 (  -0.01214%)
      ideal mu1:      -0.766720339397
             Q0:  -11602.339533397462
             G0:      -1.928433267490
   RMS gradient:       0.000210884970
MG BCs: +ve charge blocks (gridpoints):     31768 (   17582882).
MG BCs: -ve charge blocks (gridpoints):      8385 (    1118419).
MG BCs:     Elided blocks (gridpoints):    183450 (  192002244).
MG BCs: Computational effort saved:  99.9809%.
MG BCs: Charge after coarse-graining:           -9.0010452.
MG DL_MG: Calling solver with defect correction order = 8
MG DL_MG: Solver finished
MG Hartree energy from (\int phi*rho dr):              1438.282929
MG Hartree energy from (\int eps (grad phi)^2 dr):     1437.646549
MG Discrepancy due to finite box and discretization:     -0.636380 (  -0.04425%)
MG Correction to account for finite box:                  0.461694
MG Remaining discrepancy, due to discretization:         -0.174686 (  -0.01215%)
     Trial step:       0.436393814439
             Q1:  -11602.832963085501
 Quadratic coef:       0.348126661454
 Linear coef   :      -0.841556349492
           Qmin:  -11602.848124930219
Quadratic minimum step length (  0.527466043374) accepted
    Initial Ne1:    7233.99993472
      Final Ne1:    7234.00000000

=================== Penalty functional idempotency correction ==================
 RMS occupancy error at iteration   1:  0.000637 (step -0.4971 Ne1=   7234.0000)
 RMS occupancy error at iteration   2:  0.000003 (step -0.5000 Ne1=   7234.0000)
            Final RMS occupancy error   :  0.000000 (Ne1=   7234.0000)
               Final occupancy bounds   : [  0.0000,  1.0000]
================================================================================

    3        -1.160233953340E+04     2.1088E-04     1.9074E-04    -3.0408E+00
MG BCs: +ve charge blocks (gridpoints):     31768 (   17582713).
MG BCs: -ve charge blocks (gridpoints):      8385 (    1118629).
MG BCs:     Elided blocks (gridpoints):    183450 (  192002203).
MG BCs: Computational effort saved:  99.9809%.
MG BCs: Charge after coarse-graining:           -9.0010453.
MG DL_MG: Calling solver with defect correction order = 8
MG DL_MG: Solver finished
MG Hartree energy from (\int phi*rho dr):              1437.832104
MG Hartree energy from (\int eps (grad phi)^2 dr):     1437.195783
MG Discrepancy due to finite box and discretization:     -0.636321 (  -0.04426%)
MG Correction to account for finite box:                  0.461662
MG Remaining discrepancy, due to discretization:         -0.174659 (  -0.01215%)
      ideal mu1:      -0.767727802495
             Q0:  -11602.852958162315
             G0:      -0.495900281777
   RMS gradient:       0.000107060634
MG BCs: +ve charge blocks (gridpoints):     31765 (   17583787).
MG BCs: -ve charge blocks (gridpoints):      8381 (    1118357).
MG BCs:     Elided blocks (gridpoints):    183452 (  192001401).
MG BCs: Computational effort saved:  99.9809%.
MG BCs: Charge after coarse-graining:           -9.0010455.
MG DL_MG: Calling solver with defect correction order = 8
MG DL_MG: Solver finished
MG Hartree energy from (\int phi*rho dr):              1439.110975
MG Hartree energy from (\int eps (grad phi)^2 dr):     1438.474641
MG Discrepancy due to finite box and discretization:     -0.636333 (  -0.04422%)
MG Correction to account for finite box:                  0.461583
MG Remaining discrepancy, due to discretization:         -0.174750 (  -0.01214%)
     Trial step:       0.479773820310
             Q1:  -11602.974512820016
 Quadratic coef:       0.116365314980
 Linear coef   :      -0.237919972681
           Qmin:  -11602.974570675053
Quadratic minimum step length (  0.490471642006) accepted
    Initial Ne1:    7233.99998433
      Final Ne1:    7234.00000000

=================== Penalty functional idempotency correction ==================
 RMS occupancy error at iteration   1:  0.000262 (step -0.4971 Ne1=   7234.0000)
 RMS occupancy error at iteration   2:  0.000002 (step -0.5000 Ne1=   7234.0000)
            Final RMS occupancy error   :  0.000000 (Ne1=   7234.0000)
               Final occupancy bounds   : [  0.0000,  1.0000]
================================================================================

    4        -1.160285295816E+04     1.0706E-04     9.6834E-05    -5.1342E-01
MG BCs: +ve charge blocks (gridpoints):     31766 (   17583815).
MG BCs: -ve charge blocks (gridpoints):      8381 (    1118341).
MG BCs:     Elided blocks (gridpoints):    183451 (  192001389).
MG BCs: Computational effort saved:  99.9809%.
MG BCs: Charge after coarse-graining:           -9.0010455.
MG DL_MG: Calling solver with defect correction order = 8
MG DL_MG: Solver finished
MG Hartree energy from (\int phi*rho dr):              1439.139925
MG Hartree energy from (\int eps (grad phi)^2 dr):     1438.503591
MG Discrepancy due to finite box and discretization:     -0.636334 (  -0.04422%)
MG Correction to account for finite box:                  0.461581
MG Remaining discrepancy, due to discretization:         -0.174752 (  -0.01214%)
      ideal mu1:      -0.768108048082
             Q0:  -11602.975180377602
             G0:      -0.170014805228
   RMS gradient:       0.000062863992
MG BCs: +ve charge blocks (gridpoints):     31767 (   17584025).
MG BCs: -ve charge blocks (gridpoints):      8383 (    1118205).
MG BCs:     Elided blocks (gridpoints):    183451 (  192001315).
MG BCs: Computational effort saved:  99.9809%.
MG BCs: Charge after coarse-graining:           -9.0010454.
MG DL_MG: Calling solver with defect correction order = 8
MG DL_MG: Solver finished
MG Hartree energy from (\int phi*rho dr):              1439.570331
MG Hartree energy from (\int eps (grad phi)^2 dr):     1438.933908
MG Discrepancy due to finite box and discretization:     -0.636422 (  -0.04421%)
MG Correction to account for finite box:                  0.461517
MG Remaining discrepancy, due to discretization:         -0.174906 (  -0.01215%)
     Trial step:       0.485093242005
             Q1:  -11603.027147190180
 Quadratic coef:       0.030506220479
 Linear coef   :      -0.082473033057
           Qmin:  -11603.030921477899
Quadratic minimum step length (  0.655720544130) accepted
    Initial Ne1:    7233.99999281
      Final Ne1:    7234.00000000

=================== Penalty functional idempotency correction ==================
 RMS occupancy error at iteration   1:  0.000314 (step -0.4846 Ne1=   7234.0000)
 RMS occupancy error at iteration   2:  0.000005 (step -0.5001 Ne1=   7234.0000)
            Final RMS occupancy error   :  0.000000 (Ne1=   7234.0000)
               Final occupancy bounds   : [  0.0000,  1.0000]
================================================================================

    5        -1.160297518038E+04     6.2864E-05     5.6859E-05    -1.2222E-01
MG BCs: +ve charge blocks (gridpoints):     31766 (   17584146).
MG BCs: -ve charge blocks (gridpoints):      8383 (    1118132).
MG BCs:     Elided blocks (gridpoints):    183452 (  192001267).
MG BCs: Computational effort saved:  99.9809%.
MG BCs: Charge after coarse-graining:           -9.0010454.
MG DL_MG: Calling solver with defect correction order = 8
MG DL_MG: Solver finished
MG Hartree energy from (\int phi*rho dr):              1439.720730
MG Hartree energy from (\int eps (grad phi)^2 dr):     1439.084277
MG Discrepancy due to finite box and discretization:     -0.636453 (  -0.04421%)
MG Correction to account for finite box:                  0.461493
MG Remaining discrepancy, due to discretization:         -0.174960 (  -0.01215%)
      ideal mu1:      -0.768132052621
             Q0:  -11603.030814786907
             G0:      -0.135625936196
   RMS gradient:       0.000056377323
MG BCs: +ve charge blocks (gridpoints):     31771 (   17583415).
MG BCs: -ve charge blocks (gridpoints):      8384 (    1118562).
MG BCs:     Elided blocks (gridpoints):    183447 (  192001568).
MG BCs: Computational effort saved:  99.9809%.
MG BCs: Charge after coarse-graining:           -9.0010452.
MG DL_MG: Calling solver with defect correction order = 8
MG DL_MG: Solver finished
MG Hartree energy from (\int phi*rho dr):              1438.579548
MG Hartree energy from (\int eps (grad phi)^2 dr):     1437.943135
MG Discrepancy due to finite box and discretization:     -0.636413 (  -0.04424%)
MG Correction to account for finite box:                  0.461461
MG Remaining discrepancy, due to discretization:         -0.174952 (  -0.01216%)
     Trial step:       0.563990784146
             Q1:  -11603.090295252856
 Quadratic coef:       0.017011312157
 Linear coef   :      -0.076491778106
           Qmin:  -11603.116801571228
Quadratic minimum step length (  1.267999126617) accepted
    Initial Ne1:    7233.99996359
      Final Ne1:    7234.00000000

=================== Penalty functional idempotency correction ==================
 RMS occupancy error at iteration   1:  0.002524 (step -0.3708 Ne1=   7234.0000)
 RMS occupancy error at iteration   2:  0.000169 (step -0.4943 Ne1=   7234.0000)
 RMS occupancy error at iteration   3:  0.000002 (step -0.5000 Ne1=   7234.0000)
            Final RMS occupancy error   :  0.000000 (Ne1=   7234.0000)
               Final occupancy bounds   : [  0.0000,  1.0000]
================================================================================

    6        -1.160303081479E+04     5.6377E-05     5.0992E-05    -5.5634E-02
MG BCs: +ve charge blocks (gridpoints):     31771 (   17582451).
MG BCs: -ve charge blocks (gridpoints):      8386 (    1119101).
MG BCs:     Elided blocks (gridpoints):    183447 (  192001993).
MG BCs: Computational effort saved:  99.9809%.
MG BCs: Charge after coarse-graining:           -9.0010451.
MG DL_MG: Calling solver with defect correction order = 8
MG DL_MG: Solver finished
MG Hartree energy from (\int phi*rho dr):              1437.151893
MG Hartree energy from (\int eps (grad phi)^2 dr):     1436.515543
MG Discrepancy due to finite box and discretization:     -0.636350 (  -0.04428%)
MG Correction to account for finite box:                  0.461410
MG Remaining discrepancy, due to discretization:         -0.174940 (  -0.01217%)
      ideal mu1:      -0.767660286834
             Q0:  -11603.101764377207
             G0:      -0.286279536388
   RMS gradient:       0.000081774563
MG BCs: +ve charge blocks (gridpoints):     31767 (   17585467).
MG BCs: -ve charge blocks (gridpoints):      8379 (    1117544).
MG BCs:     Elided blocks (gridpoints):    183450 (  192000534).
MG BCs: Computational effort saved:  99.9809%.
MG BCs: Charge after coarse-graining:           -9.0010456.
MG DL_MG: Calling solver with defect correction order = 8
MG DL_MG: Solver finished
MG Hartree energy from (\int phi*rho dr):              1440.661967
MG Hartree energy from (\int eps (grad phi)^2 dr):     1440.025898
MG Discrepancy due to finite box and discretization:     -0.636068 (  -0.04415%)
MG Correction to account for finite box:                  0.461289
MG Remaining discrepancy, due to discretization:         -0.174779 (  -0.01213%)
     Trial step:       0.845659400537
             Q1:  -11603.154772064532
 Quadratic coef:       0.189087293802
 Linear coef   :      -0.242094981128
           Qmin:  -11603.179255014875
Quadratic minimum step length (  0.541363442507) accepted
    Initial Ne1:    7233.99999975
      Final Ne1:    7234.00000000

=================== Penalty functional idempotency correction ==================
 RMS occupancy error at iteration   1:  0.000120 (step -0.4920 Ne1=   7234.0000)
 RMS occupancy error at iteration   2:  0.000001 (step -0.5000 Ne1=   7234.0000)
            Final RMS occupancy error   :  0.000000 (Ne1=   7234.0000)
               Final occupancy bounds   : [  0.0000,  1.0000]
================================================================================

    7        -1.160310176438E+04     8.1775E-05     7.3963E-05    -7.0950E-02
MG BCs: +ve charge blocks (gridpoints):     31768 (   17584328).
MG BCs: -ve charge blocks (gridpoints):      8384 (    1118133).
MG BCs:     Elided blocks (gridpoints):    183449 (  192001084).
MG BCs: Computational effort saved:  99.9809%.
MG BCs: Charge after coarse-graining:           -9.0010454.
MG DL_MG: Calling solver with defect correction order = 8
MG DL_MG: Solver finished
MG Hartree energy from (\int phi*rho dr):              1439.390630
MG Hartree energy from (\int eps (grad phi)^2 dr):     1438.754460
MG Discrepancy due to finite box and discretization:     -0.636169 (  -0.04420%)
MG Correction to account for finite box:                  0.461334
MG Remaining discrepancy, due to discretization:         -0.174835 (  -0.01215%)
      ideal mu1:      -0.768740963577
             Q0:  -11603.179482821259
             G0:      -0.187879576175
   RMS gradient:       0.000066166423
MG BCs: +ve charge blocks (gridpoints):     31766 (   17584578).
MG BCs: -ve charge blocks (gridpoints):      8380 (    1117939).
MG BCs:     Elided blocks (gridpoints):    183452 (  192001028).
MG BCs: Computational effort saved:  99.9809%.
MG BCs: Charge after coarse-graining:           -9.0010455.
MG DL_MG: Calling solver with defect correction order = 8
MG DL_MG: Solver finished
MG Hartree energy from (\int phi*rho dr):              1439.677347
MG Hartree energy from (\int eps (grad phi)^2 dr):     1439.041372
MG Discrepancy due to finite box and discretization:     -0.635975 (  -0.04417%)
MG Correction to account for finite box:                  0.461273
MG Remaining discrepancy, due to discretization:         -0.174702 (  -0.01213%)
     Trial step:       0.676615906008
             Q1:  -11603.256223106990
 Quadratic coef:       0.050382023923
 Linear coef   :      -0.127122309654
           Qmin:  -11603.259670556654
Quadratic minimum step length (  0.853607795237) accepted
    Initial Ne1:    7233.99999970
      Final Ne1:    7234.00000000

=================== Penalty functional idempotency correction ==================
 RMS occupancy error at iteration   1:  0.001087 (step -0.4306 Ne1=   7234.0000)
 RMS occupancy error at iteration   2:  0.000036 (step -0.4983 Ne1=   7234.0000)
            Final RMS occupancy error   :  0.000000 (Ne1=   7234.0000)
               Final occupancy bounds   : [ -0.0000,  1.0000]
================================================================================

    8        -1.160317948282E+04     6.6166E-05     5.9846E-05    -7.7718E-02
MG BCs: +ve charge blocks (gridpoints):     31766 (   17584598).
MG BCs: -ve charge blocks (gridpoints):      8379 (    1117936).
MG BCs:     Elided blocks (gridpoints):    183452 (  192001011).
MG BCs: Computational effort saved:  99.9809%.
MG BCs: Charge after coarse-graining:           -9.0010456.
MG DL_MG: Calling solver with defect correction order = 8
MG DL_MG: Solver finished
MG Hartree energy from (\int phi*rho dr):              1439.754547
MG Hartree energy from (\int eps (grad phi)^2 dr):     1439.118621
MG Discrepancy due to finite box and discretization:     -0.635926 (  -0.04417%)
MG Correction to account for finite box:                  0.461258
MG Remaining discrepancy, due to discretization:         -0.174668 (  -0.01213%)
      ideal mu1:      -0.768776310234
             Q0:  -11603.258100851788
             G0:      -0.228554867618
   RMS gradient:       0.000073709031
MG BCs: +ve charge blocks (gridpoints):     31770 (   17583534).
MG BCs: -ve charge blocks (gridpoints):      8383 (    1118580).
MG BCs:     Elided blocks (gridpoints):    183447 (  192001431).
MG BCs: Computational effort saved:  99.9809%.
MG BCs: Charge after coarse-graining:           -9.0010454.
MG DL_MG: Calling solver with defect correction order = 8
MG DL_MG: Solver finished
MG Hartree energy from (\int phi*rho dr):              1438.184788
MG Hartree energy from (\int eps (grad phi)^2 dr):     1437.549329
MG Discrepancy due to finite box and discretization:     -0.635458 (  -0.04418%)
MG Correction to account for finite box:                  0.460931
MG Remaining discrepancy, due to discretization:         -0.174527 (  -0.01214%)
     Trial step:       0.759976717900
             Q1:  -11603.328243714874
 Quadratic coef:       0.103553515068
 Linear coef   :      -0.173696378153
           Qmin:  -11603.330938629830
Quadratic minimum step length (  0.637376738458) accepted
    Initial Ne1:    7234.00061228
      Final Ne1:    7234.00000000

=================== Penalty functional idempotency correction ==================
 RMS occupancy error at iteration   1:  0.003145 (step -0.3415 Ne1=   7234.0000)
 RMS occupancy error at iteration   2:  0.000206 (step -0.4877 Ne1=   7234.0000)
 RMS occupancy error at iteration   3:  0.000003 (step -0.5000 Ne1=   7234.0000)
            Final RMS occupancy error   :  0.000000 (Ne1=   7234.0000)
               Final occupancy bounds   : [  0.0000,  1.0000]
================================================================================

    9        -1.160325810085E+04     7.3709E-05     6.6668E-05    -7.8618E-02
MG BCs: +ve charge blocks (gridpoints):     31769 (   17583684).
MG BCs: -ve charge blocks (gridpoints):      8382 (    1118433).
MG BCs:     Elided blocks (gridpoints):    183448 (  192001428).
MG BCs: Computational effort saved:  99.9809%.
MG BCs: Charge after coarse-graining:           -9.0010455.
MG DL_MG: Calling solver with defect correction order = 8
MG DL_MG: Solver finished
MG Hartree energy from (\int phi*rho dr):              1438.439640
MG Hartree energy from (\int eps (grad phi)^2 dr):     1437.804071
MG Discrepancy due to finite box and discretization:     -0.635568 (  -0.04418%)
MG Correction to account for finite box:                  0.461024
MG Remaining discrepancy, due to discretization:         -0.174545 (  -0.01213%)
      ideal mu1:      -0.768246650560
   10        -1.160333502779E+04     6.7020E-05     6.0618E-05    -7.6927E-02
Finished density kernel iterations (  10)

Writing density kernel to file "complex_10361.vacuum_dkn" ... done


>>> Density kernel optimised for the current NGWF basis:
     ~~~~~~~~~~~~~~~~~~~~~~~~~~~~~~~~~~~~~~~~~~~~~~~~~~~~~~~~~~~
     Total energy                =  -1.16033350277948E+04  Eh
     Estimated bandgap           =  -3.6974E-01  Eh
     RMS occupancy error         =   5.9484E-10
     [H,K] commutator            =   6.0618E-05
     Occupancy bounds            = [  0.000:  1.000]
     ~~~~~~~~~~~~~~~~~~~~~~~~~~~~~~~~~~~~~~~~~~~~~~~~~~~~~~~~~~~




################################################################################
########################### NGWF CG iteration  001 #############################
################################################################################
****** Reciprocal space K.E. preconditioning with k_zero =  3.5000 a0^-1 *******

>>> Checking for convergence of NGWFs:   NOT CONVERGED
  ========================================================================
         NGWF RMS gradient =  1.5592E-03 >  2.0000E-06  | above tolerance
  ========================================================================

>>> Improving NGWFs using line search:
============ Calculation of NGWF S^-1 using Hotelling algorithm ================ 
         Iteration  |  Frobenius norm and Maximum abs value    (of I-S*S_n^-1)   
               1       0.19113080E+00     0.50065485E-02
               2       0.84097434E-03     0.36566479E-04
               3       0.27931152E-07     0.24087584E-08
               4       0.12550674E-12     0.55511151E-14
================================================================================
MG BCs: +ve charge blocks (gridpoints):     31215 (   17524552).
MG BCs: -ve charge blocks (gridpoints):      8389 (    1118431).
MG BCs:     Elided blocks (gridpoints):    184006 (  192060562).
MG BCs: Computational effort saved:  99.9812%.
MG BCs: Charge after coarse-graining:           -9.0010431.
MG DL_MG: Calling solver with defect correction order = 8
MG DL_MG: Solver finished
MG Hartree energy from (\int phi*rho dr):              1407.087335
MG Hartree energy from (\int eps (grad phi)^2 dr):     1406.452347
MG Discrepancy due to finite box and discretization:     -0.634988 (  -0.04513%)
MG Correction to account for finite box:                  0.460993
MG Remaining discrepancy, due to discretization:         -0.173996 (  -0.01237%)
============ Calculation of NGWF S^-1 using Hotelling algorithm ================ 
         Iteration  |  Frobenius norm and Maximum abs value    (of I-S*S_n^-1)   
               1       0.18497418E+01     0.40311317E-01
               2       0.70724319E-01     0.21002766E-02
               3       0.13920243E-03     0.99886946E-05
               4       0.12022106E-08     0.26076255E-09
               5       0.10849900E-12     0.44408921E-14
================================================================================
------------------------------- NGWF line search -------------------------------
RMS gradient                =       0.00155918743770
Trial step length           =               0.122474
Gradient along search dir.  =       -270.15217906831
Functional at step 0        =  -11603.33502779481933
Functional at step 1        =  -11633.94688242825214
Functional predicted        =  -11713.91881226445366
Selected quadratic step     =               0.818678
--------------------------- NGWF line search finished --------------------------
                                               
Writing NGWFs to file "complex_10361.vacuum_tightbox_ngwfs"....  done

>>> Optimising kernel for current NGWFs:
   Initial electron number for spin 1:    7268.11450000
     Final electron number for spin 1:    7234.00000000

=================== Penalty functional idempotency correction ==================
 RMS occupancy error at iteration   1:  0.004184 (step -0.4865 Ne1=   7234.0000)
 RMS occupancy error at iteration   2:  0.000068 (step -0.5003 Ne1=   7234.0000)
            Final RMS occupancy error   :  0.000000 (Ne1=   7234.0000)
               Final occupancy bounds   : [  0.0000,  1.0000]
================================================================================

................................................................................
<<<<<<<<<<<<<< LNV (Original version) density kernel optimisation >>>>>>>>>>>>>>
~~~~~~~~~~~~~~~~~~~~~~~~~~~~~~~~~~~~~~~~~~~~~~~~~~~~~~~~~~~~~~~~~~~~~~~~~~~~~~~~
   iter  |      energy (Eh)       | rms gradient |  commutator  |   dE (Eh)
MG BCs: +ve charge blocks (gridpoints):     25177 (   17266759).
MG BCs: -ve charge blocks (gridpoints):      8536 (    1102493).
MG BCs:     Elided blocks (gridpoints):    190055 (  192334293).
MG BCs: Computational effort saved:  99.9840%.
MG BCs: Charge after coarse-graining:           -9.0006812.
MG DL_MG: Calling solver with defect correction order = 8
MG DL_MG: Solver finished
MG Hartree energy from (\int phi*rho dr):              1251.307518
MG Hartree energy from (\int eps (grad phi)^2 dr):     1250.671472
MG Discrepancy due to finite box and discretization:     -0.636046 (  -0.05083%)
MG Correction to account for finite box:                  0.460877
MG Remaining discrepancy, due to discretization:         -0.175169 (  -0.01400%)
      ideal mu1:      -0.708133442447
             Q0:  -11713.097307126620
             G0:      -9.880882925764
   RMS gradient:       0.000480419865
MG BCs: +ve charge blocks (gridpoints):     25244 (   17281720).
MG BCs: -ve charge blocks (gridpoints):      8513 (    1099185).
MG BCs:     Elided blocks (gridpoints):    189988 (  192322640).
MG BCs: Computational effort saved:  99.9840%.
MG BCs: Charge after coarse-graining:           -9.0006776.
MG DL_MG: Calling solver with defect correction order = 8
MG DL_MG: Solver finished
MG Hartree energy from (\int phi*rho dr):              1266.408928
MG Hartree energy from (\int eps (grad phi)^2 dr):     1265.768295
MG Discrepancy due to finite box and discretization:     -0.640633 (  -0.05059%)
MG Correction to account for finite box:                  0.459814
MG Remaining discrepancy, due to discretization:         -0.180819 (  -0.01428%)
     Trial step:       0.695982386098
             Q1:  -11712.761103028664
 Quadratic coef:       7.213124573387
 Linear coef   :      -6.876920475431
           Qmin:  -11714.736403843453
Quadratic minimum step length (  0.331771306096) accepted
    Initial Ne1:    7233.99961073
      Final Ne1:    7234.00000000

=================== Penalty functional idempotency correction ==================
 RMS occupancy error at iteration   1:  0.000360 (step -0.4985 Ne1=   7234.0000)
 RMS occupancy error at iteration   2:  0.000000 (step -0.5000 Ne1=   7234.0000)
            Final RMS occupancy error   :  0.000000 (Ne1=   7234.0000)
               Final occupancy bounds   : [  0.0000,  1.0000]
================================================================================

    1        -1.171309730713E+04     4.8042E-04     4.3453E-04
MG BCs: +ve charge blocks (gridpoints):     25207 (   17274046).
MG BCs: -ve charge blocks (gridpoints):      8519 (    1100895).
MG BCs:     Elided blocks (gridpoints):    190025 (  192328604).
MG BCs: Computational effort saved:  99.9840%.
MG BCs: Charge after coarse-graining:           -9.0006794.
MG DL_MG: Calling solver with defect correction order = 8
MG DL_MG: Solver finished
MG Hartree energy from (\int phi*rho dr):              1257.610125
MG Hartree energy from (\int eps (grad phi)^2 dr):     1256.971985
MG Discrepancy due to finite box and discretization:     -0.638139 (  -0.05074%)
MG Correction to account for finite box:                  0.460345
MG Remaining discrepancy, due to discretization:         -0.177794 (  -0.01414%)
      ideal mu1:      -0.714874672205
             Q0:  -11714.712782851071
             G0:      -1.093307490229
   RMS gradient:       0.000160392613
MG BCs: +ve charge blocks (gridpoints):     25211 (   17273397).
MG BCs: -ve charge blocks (gridpoints):      8521 (    1101797).
MG BCs:     Elided blocks (gridpoints):    190021 (  192328351).
MG BCs: Computational effort saved:  99.9840%.
MG BCs: Charge after coarse-graining:           -9.0006794.
MG DL_MG: Calling solver with defect correction order = 8
MG DL_MG: Solver finished
MG Hartree energy from (\int phi*rho dr):              1258.580363
MG Hartree energy from (\int eps (grad phi)^2 dr):     1257.942093
MG Discrepancy due to finite box and discretization:     -0.638270 (  -0.05071%)
MG Correction to account for finite box:                  0.460051
MG Remaining discrepancy, due to discretization:         -0.178220 (  -0.01416%)
     Trial step:       0.480527819440
             Q1:  -11714.961594117805
 Quadratic coef:       0.276553397523
 Linear coef   :      -0.525364664257
           Qmin:  -11714.962289847659
Quadratic minimum step length (  0.456426026198) accepted
    Initial Ne1:    7233.99994029
      Final Ne1:    7234.00000000

=================== Penalty functional idempotency correction ==================
 RMS occupancy error at iteration   1:  0.000231 (step -0.4933 Ne1=   7234.0000)
 RMS occupancy error at iteration   2:  0.000003 (step -0.5000 Ne1=   7234.0000)
            Final RMS occupancy error   :  0.000000 (Ne1=   7234.0000)
               Final occupancy bounds   : [  0.0000,  1.0000]
================================================================================

    2        -1.171471278285E+04     1.6039E-04     1.4507E-04    -1.6155E+00
MG BCs: +ve charge blocks (gridpoints):     25207 (   17273423).
MG BCs: -ve charge blocks (gridpoints):      8521 (    1101745).
MG BCs:     Elided blocks (gridpoints):    190025 (  192328377).
MG BCs: Computational effort saved:  99.9840%.
MG BCs: Charge after coarse-graining:           -9.0006794.
MG DL_MG: Calling solver with defect correction order = 8
MG DL_MG: Solver finished
MG Hartree energy from (\int phi*rho dr):              1258.531916
MG Hartree energy from (\int eps (grad phi)^2 dr):     1257.893652
MG Discrepancy due to finite box and discretization:     -0.638265 (  -0.05072%)
MG Correction to account for finite box:                  0.460067
MG Remaining discrepancy, due to discretization:         -0.178198 (  -0.01416%)
      ideal mu1:      -0.716008887340
             Q0:  -11714.962789946352
             G0:      -0.261656347752
   RMS gradient:       0.000078106263
MG BCs: +ve charge blocks (gridpoints):     25206 (   17272516).
MG BCs: -ve charge blocks (gridpoints):      8523 (    1102204).
MG BCs:     Elided blocks (gridpoints):    190026 (  192328825).
MG BCs: Computational effort saved:  99.9840%.
MG BCs: Charge after coarse-graining:           -9.0006795.
MG DL_MG: Calling solver with defect correction order = 8
MG DL_MG: Solver finished
MG Hartree energy from (\int phi*rho dr):              1257.907197
MG Hartree energy from (\int eps (grad phi)^2 dr):     1257.269351
MG Discrepancy due to finite box and discretization:     -0.637846 (  -0.05071%)
MG Correction to account for finite box:                  0.459645
MG Remaining discrepancy, due to discretization:         -0.178201 (  -0.01417%)
     Trial step:       0.468321901159
             Q1:  -11715.060390899307
 Quadratic coef:       0.024938445275
 Linear coef   :      -0.122539398230
           Qmin:  -11715.113319620046
Quadratic minimum step length (  1.150590650579) accepted
    Initial Ne1:    7233.99996273
      Final Ne1:    7234.00000000

=================== Penalty functional idempotency correction ==================
 RMS occupancy error at iteration   1:  0.001751 (step -0.3886 Ne1=   7234.0000)
 RMS occupancy error at iteration   2:  0.000044 (step -0.4998 Ne1=   7234.0000)
            Final RMS occupancy error   :  0.000000 (Ne1=   7234.0000)
               Final occupancy bounds   : [ -0.0000,  1.0000]
================================================================================

    3        -1.171496278995E+04     7.8106E-05     7.0645E-05    -2.5001E-01
MG BCs: +ve charge blocks (gridpoints):     25208 (   17271200).
MG BCs: -ve charge blocks (gridpoints):      8522 (    1102962).
MG BCs:     Elided blocks (gridpoints):    190024 (  192329383).
MG BCs: Computational effort saved:  99.9840%.
MG BCs: Charge after coarse-graining:           -9.0006796.
MG DL_MG: Calling solver with defect correction order = 8
MG DL_MG: Solver finished
MG Hartree energy from (\int phi*rho dr):              1257.004112
MG Hartree energy from (\int eps (grad phi)^2 dr):     1256.366863
MG Discrepancy due to finite box and discretization:     -0.637250 (  -0.05070%)
MG Correction to account for finite box:                  0.459039
MG Remaining discrepancy, due to discretization:         -0.178211 (  -0.01418%)
      ideal mu1:      -0.715904736855
             Q0:  -11715.095941441134
             G0:      -0.332282753938
   RMS gradient:       0.000093981443
MG BCs: +ve charge blocks (gridpoints):     25203 (   17270895).
MG BCs: -ve charge blocks (gridpoints):      8523 (    1103175).
MG BCs:     Elided blocks (gridpoints):    190029 (  192329475).
MG BCs: Computational effort saved:  99.9840%.
MG BCs: Charge after coarse-graining:           -9.0006797.
MG DL_MG: Calling solver with defect correction order = 8
MG DL_MG: Solver finished
MG Hartree energy from (\int phi*rho dr):              1256.907751
MG Hartree energy from (\int eps (grad phi)^2 dr):     1256.271695
MG Discrepancy due to finite box and discretization:     -0.636057 (  -0.05060%)
MG Correction to account for finite box:                  0.458035
MG Remaining discrepancy, due to discretization:         -0.178022 (  -0.01416%)
     Trial step:       0.734061850891
             Q1:  -11715.162262633094
 Quadratic coef:       0.177594901415
 Linear coef   :      -0.243916093375
           Qmin:  -11715.179692523137
Quadratic minimum step length (  0.504095268327) accepted
    Initial Ne1:    7234.00003930
      Final Ne1:    7234.00000000

=================== Penalty functional idempotency correction ==================
 RMS occupancy error at iteration   1:  0.003410 (step -0.3216 Ne1=   7234.0000)
 RMS occupancy error at iteration   2:  0.000067 (step -0.4997 Ne1=   7234.0000)
            Final RMS occupancy error   :  0.000000 (Ne1=   7234.0000)
               Final occupancy bounds   : [ -0.0000,  1.0000]
================================================================================

    4        -1.171509594144E+04     9.3981E-05     8.5004E-05    -1.3315E-01
MG BCs: +ve charge blocks (gridpoints):     25203 (   17270901).
MG BCs: -ve charge blocks (gridpoints):      8523 (    1103128).
MG BCs:     Elided blocks (gridpoints):    190029 (  192329516).
MG BCs: Computational effort saved:  99.9840%.
MG BCs: Charge after coarse-graining:           -9.0006797.
MG DL_MG: Calling solver with defect correction order = 8
MG DL_MG: Solver finished
MG Hartree energy from (\int phi*rho dr):              1256.913829
MG Hartree energy from (\int eps (grad phi)^2 dr):     1256.277615
MG Discrepancy due to finite box and discretization:     -0.636214 (  -0.05062%)
MG Correction to account for finite box:                  0.458138
MG Remaining discrepancy, due to discretization:         -0.178076 (  -0.01417%)
      ideal mu1:      -0.717877903287
             Q0:  -11715.193843336659
             G0:      -0.429018214680
   RMS gradient:       0.000088521560
MG BCs: +ve charge blocks (gridpoints):     25203 (   17273378).
MG BCs: -ve charge blocks (gridpoints):      8521 (    1102132).
MG BCs:     Elided blocks (gridpoints):    190029 (  192328035).
MG BCs: Computational effort saved:  99.9840%.
MG BCs: Charge after coarse-graining:           -9.0006793.
MG DL_MG: Calling solver with defect correction order = 8
MG DL_MG: Solver finished
MG Hartree energy from (\int phi*rho dr):              1258.593519
MG Hartree energy from (\int eps (grad phi)^2 dr):     1257.957593
MG Discrepancy due to finite box and discretization:     -0.635926 (  -0.05053%)
MG Correction to account for finite box:                  0.458017
MG Remaining discrepancy, due to discretization:         -0.177909 (  -0.01414%)
     Trial step:       0.608306752958
             Q1:  -11715.212891883450
 Quadratic coef:       0.241926130342
 Linear coef   :      -0.260974677132
           Qmin:  -11715.264224099175
Quadratic minimum step length (  0.328101512279) accepted
    Initial Ne1:    7234.00026987
      Final Ne1:    7234.00000000

=================== Penalty functional idempotency correction ==================
 RMS occupancy error at iteration   1:  0.003160 (step -0.3297 Ne1=   7234.0000)
 RMS occupancy error at iteration   2:  0.000045 (step -0.4996 Ne1=   7234.0000)
            Final RMS occupancy error   :  0.000000 (Ne1=   7234.0000)
               Final occupancy bounds   : [ -0.0000,  1.0000]
================================================================================

    5        -1.171519384334E+04     8.8522E-05     8.0066E-05    -9.7902E-02
MG BCs: +ve charge blocks (gridpoints):     25204 (   17272277).
MG BCs: -ve charge blocks (gridpoints):      8522 (    1102538).
MG BCs:     Elided blocks (gridpoints):    190028 (  192328730).
MG BCs: Computational effort saved:  99.9840%.
MG BCs: Charge after coarse-graining:           -9.0006795.
MG DL_MG: Calling solver with defect correction order = 8
MG DL_MG: Solver finished
MG Hartree energy from (\int phi*rho dr):              1257.788150
MG Hartree energy from (\int eps (grad phi)^2 dr):     1257.152570
MG Discrepancy due to finite box and discretization:     -0.635580 (  -0.05053%)
MG Correction to account for finite box:                  0.457592
MG Remaining discrepancy, due to discretization:         -0.177988 (  -0.01415%)
      ideal mu1:      -0.720120113321
             Q0:  -11715.288866197225
             G0:      -0.374395231165
   RMS gradient:       0.000073492913
MG BCs: +ve charge blocks (gridpoints):     25204 (   17274539).
MG BCs: -ve charge blocks (gridpoints):      8518 (    1101654).
MG BCs:     Elided blocks (gridpoints):    190028 (  192327352).
MG BCs: Computational effort saved:  99.9840%.
MG BCs: Charge after coarse-graining:           -9.0006791.
MG DL_MG: Calling solver with defect correction order = 8
MG DL_MG: Solver finished
MG Hartree energy from (\int phi*rho dr):              1259.094785
MG Hartree energy from (\int eps (grad phi)^2 dr):     1258.459390
MG Discrepancy due to finite box and discretization:     -0.635395 (  -0.05046%)
MG Correction to account for finite box:                  0.457443
MG Remaining discrepancy, due to discretization:         -0.177953 (  -0.01413%)
     Trial step:       0.446750898796
             Q1:  -11715.341704535065
 Quadratic coef:       0.114423068188
 Linear coef   :      -0.167261406028
           Qmin:  -11715.349991061270
Quadratic minimum step length (  0.326525868693) accepted
    Initial Ne1:    7234.00040830
      Final Ne1:    7234.00000000

=================== Penalty functional idempotency correction ==================
 RMS occupancy error at iteration   1:  0.002928 (step -0.3378 Ne1=   7234.0000)
 RMS occupancy error at iteration   2:  0.000036 (step -0.4996 Ne1=   7234.0000)
            Final RMS occupancy error   :  0.000000 (Ne1=   7234.0000)
               Final occupancy bounds   : [ -0.0000,  1.0000]
================================================================================

    6        -1.171528886620E+04     7.3493E-05     6.6473E-05    -9.5023E-02
MG BCs: +ve charge blocks (gridpoints):     25205 (   17273950).
MG BCs: -ve charge blocks (gridpoints):      8519 (    1101886).
MG BCs:     Elided blocks (gridpoints):    190027 (  192327709).
MG BCs: Computational effort saved:  99.9840%.
MG BCs: Charge after coarse-graining:           -9.0006792.
MG DL_MG: Calling solver with defect correction order = 8
MG DL_MG: Solver finished
MG Hartree energy from (\int phi*rho dr):              1258.732267
MG Hartree energy from (\int eps (grad phi)^2 dr):     1258.097094
MG Discrepancy due to finite box and discretization:     -0.635174 (  -0.05046%)
MG Correction to account for finite box:                  0.457209
MG Remaining discrepancy, due to discretization:         -0.177965 (  -0.01414%)
      ideal mu1:      -0.721961832978
             Q0:  -11715.370583773009
             G0:      -0.128231861781
   RMS gradient:       0.000054729446
MG BCs: +ve charge blocks (gridpoints):     25205 (   17273334).
MG BCs: -ve charge blocks (gridpoints):      8522 (    1102100).
MG BCs:     Elided blocks (gridpoints):    190027 (  192328111).
MG BCs: Computational effort saved:  99.9840%.
MG BCs: Charge after coarse-graining:           -9.0006793.
MG DL_MG: Calling solver with defect correction order = 8
MG DL_MG: Solver finished
MG Hartree energy from (\int phi*rho dr):              1258.169107
MG Hartree energy from (\int eps (grad phi)^2 dr):     1257.534078
MG Discrepancy due to finite box and discretization:     -0.635029 (  -0.05047%)
MG Correction to account for finite box:                  0.457025
MG Remaining discrepancy, due to discretization:         -0.178004 (  -0.01415%)
     Trial step:       0.381936808017
             Q1:  -11715.409611263894
 Quadratic coef:       0.009948977089
 Linear coef   :      -0.048976467975
           Qmin:  -11715.430858673479
Quadratic minimum step length (  0.940092417475) accepted
    Initial Ne1:    7234.00065677
      Final Ne1:    7234.00000000

=================== Penalty functional idempotency correction ==================
 RMS occupancy error at iteration   1:  0.000422 (step -0.4666 Ne1=   7234.0000)
 RMS occupancy error at iteration   2:  0.000001 (step -0.5000 Ne1=   7234.0000)
            Final RMS occupancy error   :  0.000000 (Ne1=   7234.0000)
               Final occupancy bounds   : [  0.0000,  1.0000]
================================================================================

    7        -1.171537058377E+04     5.4729E-05     4.9502E-05    -8.1718E-02
MG BCs: +ve charge blocks (gridpoints):     25205 (   17272502).
MG BCs: -ve charge blocks (gridpoints):      8522 (    1102382).
MG BCs:     Elided blocks (gridpoints):    190027 (  192328661).
MG BCs: Computational effort saved:  99.9840%.
MG BCs: Charge after coarse-graining:           -9.0006795.
MG DL_MG: Calling solver with defect correction order = 8
MG DL_MG: Solver finished
MG Hartree energy from (\int phi*rho dr):              1257.350881
MG Hartree energy from (\int eps (grad phi)^2 dr):     1256.716017
MG Discrepancy due to finite box and discretization:     -0.634863 (  -0.05049%)
MG Correction to account for finite box:                  0.456804
MG Remaining discrepancy, due to discretization:         -0.178060 (  -0.01416%)
      ideal mu1:      -0.721771078039
             Q0:  -11715.430650179042
             G0:      -0.116148917935
   RMS gradient:       0.000051880052
MG BCs: +ve charge blocks (gridpoints):     25205 (   17272002).
MG BCs: -ve charge blocks (gridpoints):      8522 (    1102413).
MG BCs:     Elided blocks (gridpoints):    190027 (  192329130).
MG BCs: Computational effort saved:  99.9840%.
MG BCs: Charge after coarse-graining:           -9.0006797.
MG DL_MG: Calling solver with defect correction order = 8
MG DL_MG: Solver finished
MG Hartree energy from (\int phi*rho dr):              1257.167387
MG Hartree energy from (\int eps (grad phi)^2 dr):     1256.532648
[...]
MG Discrepancy due to finite box and discretization:     -0.182935 (  -0.01504%)
MG Correction to account for finite box:                  0.006227
MG Remaining discrepancy, due to discretization:         -0.176709 (  -0.01453%)
     Trial step:       0.863193929285
             Q1:  -11749.539286324871
 Quadratic coef:       0.000000011880
 Linear coef   :      -0.000000016304
           Qmin:  -11749.539286326040
Quadratic minimum step length (  0.592315336473) accepted
    Initial Ne1:    7234.00000000
      Final Ne1:    7234.00000000

=================== Penalty functional idempotency correction ==================
 RMS occupancy error at iteration   1:  0.000000 (step -0.5000 Ne1=   7234.0000)
            Final RMS occupancy error   :  0.000000 (Ne1=   7234.0000)
               Final occupancy bounds   : [  0.0000,  1.0000]
================================================================================

    7        -1.174953928632E+04     2.1004E-08     1.8998E-08    -7.2177E-09

Reusing previously generated solute cavity.
MG BCs: +ve charge blocks (gridpoints):     29371 (   19532799).
MG BCs: -ve charge blocks (gridpoints):      8510 (    1070391).
MG BCs:     Elided blocks (gridpoints):    185861 (  190100355).
MG BCs: Computational effort saved:  99.9820%.
MG BCs: Charge after coarse-graining:           -9.0009875.
MG DL_MG: Calling solver with defect correction order = 8
MG DL_MG: Solver finished
MG Hartree energy from (\int phi*rho dr):              1216.240757
MG Hartree energy from (\int eps (grad phi)^2 dr):     1216.057821
MG Discrepancy due to finite box and discretization:     -0.182935 (  -0.01504%)
MG Correction to account for finite box:                  0.006227
MG Remaining discrepancy, due to discretization:         -0.176709 (  -0.01453%)
      ideal mu1:      -0.480935578619
             Q0:  -11749.539286326850
             G0:      -0.000000006645
   RMS gradient:       0.000000014892

Reusing previously generated solute cavity.
MG BCs: +ve charge blocks (gridpoints):     29371 (   19532798).
MG BCs: -ve charge blocks (gridpoints):      8510 (    1070390).
MG BCs:     Elided blocks (gridpoints):    185861 (  190100357).
MG BCs: Computational effort saved:  99.9820%.
MG BCs: Charge after coarse-graining:           -9.0009875.
MG DL_MG: Calling solver with defect correction order = 8
MG DL_MG: Solver finished
MG Hartree energy from (\int phi*rho dr):              1216.240781
MG Hartree energy from (\int eps (grad phi)^2 dr):     1216.057846
MG Discrepancy due to finite box and discretization:     -0.182935 (  -0.01504%)
MG Correction to account for finite box:                  0.006227
MG Remaining discrepancy, due to discretization:         -0.176709 (  -0.01453%)
     Trial step:       0.715040560154
             Q1:  -11749.539286327083
 Quadratic coef:       0.000000004518
 Linear coef   :      -0.000000004752
           Qmin:  -11749.539286328099
Quadratic minimum step length (  0.375982261875) accepted
    Initial Ne1:    7234.00000000
      Final Ne1:    7234.00000000

=================== Penalty functional idempotency correction ==================
 RMS occupancy error at iteration   1:  0.000000 (step -0.5000 Ne1=   7234.0000)
            Final RMS occupancy error   :  0.000000 (Ne1=   7234.0000)
               Final occupancy bounds   : [  0.0000,  1.0000]
================================================================================

    8        -1.174953928633E+04     1.4892E-08     1.3469E-08    -6.4028E-09

Reusing previously generated solute cavity.
MG BCs: +ve charge blocks (gridpoints):     29371 (   19532798).
MG BCs: -ve charge blocks (gridpoints):      8510 (    1070391).
MG BCs:     Elided blocks (gridpoints):    185861 (  190100356).
MG BCs: Computational effort saved:  99.9820%.
MG BCs: Charge after coarse-graining:           -9.0009875.
MG DL_MG: Calling solver with defect correction order = 8
MG DL_MG: Solver finished
MG Hartree energy from (\int phi*rho dr):              1216.240770
MG Hartree energy from (\int eps (grad phi)^2 dr):     1216.057834
MG Discrepancy due to finite box and discretization:     -0.182935 (  -0.01504%)
MG Correction to account for finite box:                  0.006227
MG Remaining discrepancy, due to discretization:         -0.176709 (  -0.01453%)
      ideal mu1:      -0.480935561456
             Q0:  -11749.539286327548
             G0:      -0.000000004811
   RMS gradient:       0.000000009205

Reusing previously generated solute cavity.
MG BCs: +ve charge blocks (gridpoints):     29371 (   19532799).
MG BCs: -ve charge blocks (gridpoints):      8510 (    1070389).
MG BCs:     Elided blocks (gridpoints):    185861 (  190100357).
MG BCs: Computational effort saved:  99.9820%.
MG BCs: Charge after coarse-graining:           -9.0009875.
MG DL_MG: Calling solver with defect correction order = 8
MG DL_MG: Solver finished
MG Hartree energy from (\int phi*rho dr):              1216.240715
MG Hartree energy from (\int eps (grad phi)^2 dr):     1216.057780
MG Discrepancy due to finite box and discretization:     -0.182935 (  -0.01504%)
MG Correction to account for finite box:                  0.006227
MG Remaining discrepancy, due to discretization:         -0.176709 (  -0.01453%)
     Trial step:       0.518500305824
             Q1:  -11749.539286327548
 Quadratic coef:       0.000000002494
 Linear coef   :      -0.000000002495
           Qmin:  -11749.539286328172
Quadratic minimum step length (  0.259341453627) accepted
    Initial Ne1:    7234.00000000
      Final Ne1:    7234.00000000

=================== Penalty functional idempotency correction ==================
 RMS occupancy error at iteration   1:  0.000000 (step -0.5000 Ne1=   7234.0000)
            Final RMS occupancy error   :  0.000000 (Ne1=   7234.0000)
               Final occupancy bounds   : [  0.0000,  1.0000]
================================================================================

    9        -1.174953928633E+04     9.2052E-09     8.3259E-09    -6.9849E-10

Reusing previously generated solute cavity.
MG BCs: +ve charge blocks (gridpoints):     29371 (   19532798).
MG BCs: -ve charge blocks (gridpoints):      8510 (    1070389).
MG BCs:     Elided blocks (gridpoints):    185861 (  190100358).
MG BCs: Computational effort saved:  99.9820%.
MG BCs: Charge after coarse-graining:           -9.0009875.
MG DL_MG: Calling solver with defect correction order = 8
MG DL_MG: Solver finished
MG Hartree energy from (\int phi*rho dr):              1216.240743
MG Hartree energy from (\int eps (grad phi)^2 dr):     1216.057807
MG Discrepancy due to finite box and discretization:     -0.182935 (  -0.01504%)
MG Correction to account for finite box:                  0.006227
MG Remaining discrepancy, due to discretization:         -0.176709 (  -0.01453%)
      ideal mu1:      -0.480935527130
   10        -1.174953928633E+04     5.6822E-09     5.1395E-09    -4.6566E-10
Finished density kernel iterations (  10)

Writing density kernel to file "complex_10361.dkn" ... done


>>> Density kernel optimised for the current NGWF basis:
     ~~~~~~~~~~~~~~~~~~~~~~~~~~~~~~~~~~~~~~~~~~~~~~~~~~~~~~~~~~~
     Total energy                =  -1.17495392863280E+04  Eh
     Estimated bandgap           =   7.9240E-02  Eh
     RMS occupancy error         =   4.0946E-16
     [H,K] commutator            =   5.1395E-09
     Occupancy bounds            = [  0.000:  1.000]
     ~~~~~~~~~~~~~~~~~~~~~~~~~~~~~~~~~~~~~~~~~~~~~~~~~~~~~~~~~~~




################################################################################
########################### NGWF CG iteration  004 #############################
################################################################################
****** Reciprocal space K.E. preconditioning with k_zero =  3.5000 a0^-1 *******

>>> Checking for convergence of NGWFs: 
           ........................................................
           |         *** NGWF optimisation converged ***          |
           | RMS NGWF gradient =    0.00000191489789              |
           | Criteria satisfied:                                  |
           | -> RMS NGWF gradient lower than set threshold.       |
           ========================================================

Reusing previously generated solute cavity.
MG BCs: +ve charge blocks (gridpoints):     29371 (   19532798).
MG BCs: -ve charge blocks (gridpoints):      8510 (    1070389).
MG BCs:     Elided blocks (gridpoints):    185861 (  190100358).
MG BCs: Computational effort saved:  99.9820%.
MG BCs: Charge after coarse-graining:           -9.0009875.
MG DL_MG: Calling solver with defect correction order = 8
MG DL_MG: Solver finished
MG Hartree energy from (\int phi*rho dr):              1216.240743
MG Hartree energy from (\int eps (grad phi)^2 dr):     1216.057807
MG Discrepancy due to finite box and discretization:     -0.182935 (  -0.01504%)
MG Correction to account for finite box:                  0.006227
MG Remaining discrepancy, due to discretization:         -0.176709 (  -0.01453%)

================================================================================
           ---------------- ENERGY COMPONENTS (Eh) ----------------
           | Kinetic                    :     8580.24618456831558 |
           | Pseudo. (local,OBC,corr'd) :    -5082.26480728476599 |
           | Pseudopotential (non-local):     1411.48192546855125 |
           | Hartree (molecular)        :     1216.24074257852385 |
           | Exchange-correlation       :    -3376.81783749511851 |
           | Ion-ion (open BC)          :   829703.85344994394109 |
           | Dispersion Correction      :       -3.27728492209504 |
           | Smeared ion non-self corr. :  -829655.72146396117751 |
           | Smeared ion self corr.     :   -14543.93950988473262 |
           | Solvent cavitation energy  :        2.34568944431037 |
           | Solute-solvent dis-rep en. :       -1.68637478375083 |
           | Total                      :   -11749.53928632805946 |
           --------------------------------------------------------
           ------ LOCAL ENERGY COMPONENTS FROM MATRIX TRACES ------
           | Pseudopotential (local)    :    -5082.26480728476963 |
           | Hartree                    :    -2001.14877102641844 |
           --------------------------------------------------------
           Integrated density           :     7233.99999999879765
           Integrated density tr(KS)    :     7233.99999999999909
================================================================================


                        <<<<< CALCULATION SUMMARY >>>>>                         
|ITER|    RMS GRADIENT   |     TOTAL ENERGY    |   step   |     Epredicted              
   0     0.00003900892469 -11749.47750198026188   0.629155 -11749.53069658936329        
   1     0.00000982706506 -11749.53869831282645   0.090791 -11749.53918547323156        
   2     0.00000430494599 -11749.53926697606221   0.016362 -11749.53928382448976        
   3     0.00000191489789 -11749.53928632801399  <-- CG                                 

=================== Finished the calculation in solvent ========================
= Adjusting the following parameters: 
= read_denskern: F
= read_tightbox_ngwfs: F
= maxit_pen: 0 (restored to user-specified value)
= restart read filename prefix: ""
= restart write filename prefix: ""
================================================================================

================================================================================
IS: Calculation in solvent completed (NGWFs converged).      

Individual components of total energy in solvent:     hartree           kcal/mol
- Usual non-electrostatic DFT terms:    -12966.43934356709724    -8136563.356429
- Electrostatic fixed charge energy:      1216.24074257852385      763202.572152
- Apolar cavitation energy:                  2.34568944431037        1471.942318
- Apolar dispersion-repulsion energy:       -1.68637478375083       -1058.216131
 -------------------------------------------------------------------------------
- Total energy in solvent:              -11749.53928632801399    -7372947.058091

Components of total energy in solvent:                hartree           kcal/mol
- Usual non-electrostatic DFT terms:    -12966.43934356709724    -8136563.356429
- Electrostatic energy:                   1216.24074257852385      763202.572152
- Apolar energy terms:                       0.65931466055954         413.726187
 -------------------------------------------------------------------------------
- Total energy in solvent:              -11749.53928632801399    -7372947.058091

Calculation of free energy of solvation:              hartree           kcal/mol
- Total energy in solvent:         (+)  -11749.53928632801399    -7372947.058091
- Total energy in vacuum:          (-)  -11745.64973814086989    -7370506.329806
 -------------------------------------------------------------------------------
- Total free energy of solvation:           -3.88954818714410       -2440.728284

Components of polar term in f.e. of solvation:        hartree           kcal/mol
- Electrostatic:                            -4.68653492371595       -2940.845001
- Change in nonelectrostatic DFT terms:      0.13767207601268          86.390530
 -------------------------------------------------------------------------------
- Polar term in f.e. of solvation:          -4.54886284770328       -2854.454471

Components of free energy of solvation:               hartree           kcal/mol
- Polar term in f.e. of solvation: (+)      -4.54886284770328       -2854.454471
- Apolar (cavitation, dis., rep.): (+)       0.65931466055954         413.726187
 -------------------------------------------------------------------------------
- Total free energy of solvation:           -3.88954818714374       -2440.728284
================================================================================


------------------------------ TIMING INFORMATION ------------------------------
AVERAGE TIME:   34052.207s on     60 node(s)                                    
TOTAL TIME:     34053.889s on     60 node(s)                                    
================= AVERAGE TIMINGS FROM ALL NODES (CUMULATIVE) ==================
|| TAG                                    #calls    cpu time   %total  Gflops ||
|| work_imbalance                       :     1        0.00s   0.000%  ------ ||
|| sparse_set_to_garbage                :   176        0.03s   0.000%  ------ ||
|| parallel_prepare_fd_halos_request    :  1941        0.03s   0.000%  ------ ||
|| parallel_prepare_fd_halos_alloc      :  1941        0.09s   0.000%  ------ ||
|| ngwfs_initialise_from_radial         :     1        0.11s   0.000%  ------ ||
|| basis_extract_function_from_box      :  3598        0.16s   0.000%  ------ ||
|| parallel_prepare_fd_halos_satisfy    :  1941        0.58s   0.002%  ------ ||
|| pseudopotentials_nonlocal_mat        :    30        1.20s   0.004%  ------ ||
|| density_init_guess_real              :     1        3.47s   0.010%  ------ ||
|| restart_kernel_read                  :     1        4.42s   0.013%  ------ ||
|| openbc_locps_radial                  :     1        4.73s   0.014%  ------ ||
|| parallel_prepare_fd_halos_comms_imbal:  1941        9.89s   0.029%  ------ ||
|| restart_ngwfs_tightbox_input         :     1       10.69s   0.031%  ------ ||
|| parallel_prepare_fd_halos_clear      :  1941       20.61s   0.061%  ------ ||
|| sparse_init                          :     2       22.74s   0.067%  ------ ||
|| projectors_func_ovlp_box             :    30       28.55s   0.084%  ------ ||
|| parallel_prepare_fd_halos_comms_wait :  1941       29.00s   0.085%  ------ ||
|| projectors_init_fftbox_recip         :   142       29.53s   0.087%  ------ ||
|| function_ops_brappd_ketppd           :    30       33.02s   0.097%  ------ ||
|| palser_mano_kernel_optimise          :     1       42.52s   0.125%  ------ ||
|| basis_copy_function_to_box           : 58341       44.77s   0.131%  ------ ||
|| ngwf_gradient_coeffs                 :    16       48.16s   0.141%  ------ ||
|| pseudo_make_structure_factor         :     2       54.44s   0.160%  ------ ||
|| fourier_apply_box_pair               :  5139       56.64s   0.166% 595.944 ||
|| parallel_prepare_fd_halos            :  1941       60.23s   0.177%  ------ ||
|| sparse_embed_hotelling_invert_embed  :    30       75.53s   0.222%  ------ ||
|| restart_kernel_write                 :    17       97.13s   0.285%  ------ ||
|| finite_difference_derivative         :  1941      149.30s   0.438%  ------ ||
|| integrals_kinetic                    :    30      158.42s   0.465%  ------ ||
|| projectors_gradient_batch            :   112      160.30s   0.471%  ------ ||
|| basis_dot_function_with_box          : 8.911M     169.39s   0.497%  ------ ||
|| sparse_trace                         :  5359      179.34s   0.527%  ------ ||
|| fourier_apply_cell_backward          :  1295      186.34s   0.547% 103.769 ||
|| fourier_apply_cell_forward           :  1293      221.64s   0.651%  87.107 ||
|| kernel_purify                        :   494      288.15s   0.846%  ------ ||
|| openbc_locps_on_grid                 :     2      290.85s   0.854%  ------ ||
|| basis_add_function_to_box            : 18.53M     408.79s   1.200%  ------ ||
|| lnv_gradient_norm                    :   160      427.84s   1.256%  ------ ||
|| xc_energy_potential                  :   323      475.94s   1.398%  ------ ||
|| kernel_fix                           :   160      527.53s   1.549%  ------ ||
|| hamiltonian_energy_components        :     4      530.49s   1.558%  ------ ||
|| integrals_locpot_mat_els_batch       :  1183      791.60s   2.325%  ------ ||
|| ngwf_gradient_build_batch            :   112      880.34s   2.585%  ------ ||
|| ngwf_gradient_batch                  :   112     1214.48s   3.567%  ------ ||
|| density_batch_row_sums               :  2254     1262.37s   3.707%  ------ ||
|| cell_grid_deposit_box_real           : 37404     1336.47s   3.925%  ------ ||
|| restart_ngwfs_tightbox_output        :    14     1345.89s   3.952%  ------ ||
|| ngwf_gradient_lnv                    :    16     1376.92s   4.044%  ------ ||
|| sparse_product                       :  6696     1838.67s   5.400%  ------ ||
|| cell_grid_extract_box_real           : 41022     1973.78s   5.796%  ------ ||
|| density_fftbox_deposit_to_cell       : 35420     2184.72s   6.416%  ------ ||
|| density_fftbox_interpolate_multiply  : 35420     4070.96s  11.955%  ------ ||
|| potential_apply_to_ngwf_batch        :  1183     4143.58s  12.168%  ------ ||
|| fourier_apply_box                    : 122.0k    4881.56s  14.336% 794.801 ||
|| multigrid_prepare_bound_cond         :   323     4912.99s  14.428%  ------ ||
|| integrals_locpot_dbl_grid            :   169     4955.28s  14.552%  ------ ||
|| density_batch_interp_deposit         :  2254     7353.37s  21.594%  ------ ||
|| dl_mg_solver_calls                   :   323     8035.57s  23.598%  ------ ||
|| density_on_dbl_grid                  :   322     9072.29s  26.642%  ------ ||
|| multigrid_calculate_hartree          :   323    13152.25s  38.624%  ------ ||
|| hamiltonian_lhxc_calculate           :   318    22637.77s  66.480%  ------ ||
|| lnv_denskernel_optimise_cg           :    16    28357.30s  83.276%  ------ ||
|| ngwf_cg_optimise                     :     2    33018.69s  96.965%  ------ ||
|| total_time                           :     1    34052.21s 100.000%  ------ ||
================================================================================
Overhead of generating timer report: 
- 0 ms averaging over threads,
- 15 ms ensuring consistency across MPI ranks,
- 0 ms printing in order.

Job completed: 06-03-2020 02:57 (-0000)

Application 39335303 resources: utime ~6949480s, stime ~327088s, Rss ~4219020, inblocks ~328308557, outblocks ~69160304
