 +---------------------------------------------------------------+
 |                                                               |
 |        ####### #     # ####### ####### ####### ######         |
 |        #     # ##    # #          #    #       #     #        |
 |        #     # # #   # #          #    #       #     #        |
 |        #     # #  #  # #####      #    #####   ######         |
 |        #     # #   # # #          #    #       #              |
 |        #     # #    ## #          #    #       #              |
 |        ####### #     # #######    #    ####### #              |
 |                                                               |
 |        Linear-Scaling Ab Initio Total Energy Program          |
 |                                                               |
 |          Release for academic collaborators of ODG            |
 |                                             Version 5.3.2.6.  |
 |                                                               |
 +---------------------------------------------------------------+
 |                                                               |
 |  Authors:                                                     |
 |  Jacek Dziedzic, Peter D. Haynes, Nicholas D. M. Hine,        |
 |  Arash. A. Mostofi, Mike C. Payne and Chris-Kriton Skylaris   |
 |                                                               |
 |  Contributors:                                                |
 |  J. Aarons, L. Andrinopoulos, P. W. Avraam, R. A. Bell,       |
 |  A. Bhandari, G. A. Bramley, R. J. Charlton, S. J. Clark,     |
 |  R. J. Clements, G. C. Constantinescu, F. Corsetti,           |
 |  N. Corsini, O. Dieguez, S. M. M. Dubois, K. K. B. Duff,      |
 |  J. M. Escartin, A. Greco, H. Helal, Q. O. Hill, L. P. Lee,   |
 |  J.-H. Li, E. B. Linscott, G. Moynihan, D. D. O`Regan,        |
 |  O. K. Okan, M. J. S. Phipps, C. J. Pickard,                  |
 |  J. C. A. Prentice, M. I. J. Probert, L. E. Ratcliff,         |
 |  M. Robinson, A. Ruiz Serrano, J. S. Spencer, E. W. Tait,     |
 |  G. Teobaldi, D. Turban, V. Vitale, K. A. Wilkinson,          |
 |  C. Weber, J. C. Womack, N. Yeung and T. J. Zuehlsdorff       |
 |                                                               |
 |                                   Copyright (c) 2004-2019     |
 |                                                               |
 |  Please cite:                                                 |
 |  "Introducing ONETEP: Linear-scaling density functional       |
 |   simulations on parallel computers".                         |
 |   C.-K. Skylaris, P. D. Haynes, A. A. Mostofi, M. C. Payne.   |
 |   J. Chem. Phys. 122 084119 (2005).                           |
 |                                                               |
 |          in all publications arising from your use of ONETEP. |
 |                                                               |
 +---------------------------------------------------------------+
 |                                                               |
 |   ONETEP is based on developments described in the following  |
 |   publications:                                               |
 |                                                               |
 |  "Nonorthogonal generalized Wannier function pseudopotential  |
 |   plane-wave method".                                         |
 |   C.-K. Skylaris, A. A. Mostofi, P. D. Haynes, O. Dieguez,    |
 |   M. C. Payne.                                                |
 |   Phys. Rev. B 66 035119 (2002).                              |
 |                                                               |
 |  "Preconditioned iterative minimization for linear-scaling    |
 |   electronic structure calculations".                         |
 |   A. A. Mostofi, P. D. Haynes, C.-K. Skylaris, M. C. Payne.   |
 |   J. Chem. Phys. 119(17), pp.8842-8848 (2003).                |
 |                                                               |
 |  "Total-energy calculations on a real space grid with         |
 |   localized functions and a plane-wave basis".                |
 |   A. A. Mostofi, C.-K. Skylaris, P. D. Haynes, M. C. Payne.   |
 |   Comput. Phys. Commun. 147, pp.788-802 (2002).               |
 |                                                               |
 |  "Accurate kinetic energy evaluation in electronic structure  |
 |   calculations with localized functions on real space grids"  |
 |   C.-K. Skylaris, A. A. Mostofi, P. D. Haynes, C. J. Pickard, |
 |   M. C. Payne.                                                |
 |   Comput. Phys. Commun. 140, pp.315-322 (2001).               |
 |                                                               |
 |  "Accurate ionic forces and geometry optimization in linear-  |
 |   scaling density-functional theory with local orbitals"      |
 |   N. D. M. Hine, M. Robinson, P. D. Haynes, C.-K. Skylaris,   |
 |   M. C. Payne, and A. A. Mostofi.                             |
 |   Phys. Rev. B 83 195102 (2011).                              |
 |                                                               |
 +---------------------------------------------------------------+

Job started: 30-03-2020 06:44 (+0100)
 
Reading parameters from file "complex_37721.dat" ...... done

If your calculation crashes here, before "Checking processes and threads..."
is displayed, then your stack size is insufficient.
If so, use "ulimit -s unlimited" at runtime.
You can disable this check with "check_stack_size F".

Checking processes and threads...
   Determining the default number of threads...
      No default threads set at compilation time: defaulting to 1.
      OpenMP library call suggests 4 threads.
      Hybrid MPI-OpenMP compilation detected.
      Number of MPI processes > 1.
      OMP_NUM_THREADS environment variable present and
      its value matches the one obtained from the OpenMP library call.
      Using this value as default.
      Default threads: 4
      Default applies to threads_max and threads_num_fftboxes.
      Settings in the input file override this default.
   ... done

   Running with 60 MPI processes.
   There are 6 MPI processes running on the same node as the root process.
   Each MPI process is using: 
               1 threads for simulation cell FFTs.
               1 threads for parallel FFT box operations.
               4 threads for loops over batched FFT box operations.
               4 threads in other parallel regions.
... done

Basic input checks...... done

Reading geometry and species blocks from file "complex_37721.dat" ...
  <species_atomic_set> block not found: NGWF initialisation set to SOLVE
IS: Dielectric excluded regions:
    - NONE.
    
  Number of PPD points along a3 set to 1.  This is 
  the default value, it may have been provided also in the input file.
... done
 Writing xyz coordinates to file "complex_37721.xyz" ... done


--------------------------------------------------------------------------------
---------------------------------- INPUT FILE ----------------------------------
--------------------------------------------------------------------------------

cutoff_energy       : 800 eV                                                    
xc_functional PBE                                                               
task SINGLEPOINT                                                                
write_xyz true                                                                  
output_detail VERBOSE                                                           
ngwf_threshold_orig : 0.000002                                                  
kernel_cutoff       : 1000                                                      
k_zero              : 3.5                                                       
elec_cg_max 0                                                                   
occ_mix 1.0                                                                     
dispersion 1                                                                    
maxit_ngwf_cg 40                                                                
minit_lnv 10                                                                    
maxit_lnv 10                                                                    
write_denskern T                                                                
write_tightbox_ngwfs T                                                          
charge 9                                                                        
is_implicit_solvent T                                                           
is_auto_solvation T                                                             
is_include_apolar T                                                             
is_smeared_ion_rep T                                                            
is_solvent_surf_tension 4.7624E-5 Ha/bohr**2                                    
is_apolar_scaling_factor 0.281075                                               
is_solvation_beta 1.3                                                           
is_density_threshold 0.00035                                                    
is_bulk_permittivity 78.54                                                      
is_dielectric_model fix_initial                                                 
is_smeared_ion_width 0.8                                                        
mg_defco_fd_order 8                                                             
is_bc_coarseness 10                                                             
is_bc_surface_coarseness 1                                                      
fine_grid_scale 2.0                                                             
%block species                                                                  
N   N   7 4 8.0                                                                 
H   H   1 1 8.0                                                                 
C   C   6 4 8.0                                                                 
S   S  16 9 8.0                                                                 
O   O   8 4 8.0                                                                 
%endblock species                                                               
%block species_pot                                                              
N   N_00.recpot                                                                 
H   H_04.recpot                                                                 
C   C_01.recpot                                                                 
S   S_00.recpot                                                                 
O   O_02.recpot                                                                 
%endblock species_pot                                                           
%block lattice_cart                                                             
142.669   0.000   0.000                                                         
0.000 146.65   0.000                                                            
0.000   0.000   162.396                                                         
%endblock lattice_cart                                                          
%block positions_abs                                                            
     Hash =  -000006557413381397324560
%endblock positions_abs                                                         

--------------------------------------------------------------------------------
-------------------------------- END INPUT FILE --------------------------------
--------------------------------------------------------------------------------


 
 ESDF WARNING(1): "kernelcutoff" (esdf_physical) has no units. Assume "bohr".
 ESDF WARNING(2): "kzero" (esdf_physical) has no units. Assume "1/bohr".
 ESDF WARNING(3
 ): "issmearedionwidth" (esdf_physical) has no units. Assume "bohr".
<<<<<<<<<<<<<<<<<<<<<<<<<<<<<<<<< Full system >>>>>>>>>>>>>>>>>>>>>>>>>>>>>>>>>>
<<<<<<<<<<<<<<<<<<<<<<<<< Pseudopotential information >>>>>>>>>>>>>>>>>>>>>>>>>>
File: N_00.recpot [ 2001 points up to Gmax=  52.9 (1/bohr)]
  Atomic number:  7;  ionic charge:  5.000000
    Shell 1: l = 0; rc = 1.48 bohr
File: H_04.recpot [ 2001 points up to Gmax=  52.9 (1/bohr)]
  Atomic number:  1;  ionic charge:  1.000000
    Local potential
File: C_01.recpot [ 2001 points up to Gmax=  52.9 (1/bohr)]
  Atomic number:  6;  ionic charge:  4.000000
    Shell 1: l = 0; rc = 1.48 bohr
File: S_00.recpot [ 2001 points up to Gmax=  52.9 (1/bohr)]
  Atomic number: 16;  ionic charge:  6.000000
    Shell 1: l = 0; rc = 1.90 bohr
    Shell 2: l = 2; rc = 1.84 bohr
File: O_02.recpot [ 2001 points up to Gmax=  52.9 (1/bohr)]
  Atomic number:  8;  ionic charge:  6.000000
    Shell 1: l = 0; rc = 1.31 bohr
<<<<<<<<<<<<<<<<<<<<<<<<<<<<<<<<<<<<<<<<>>>>>>>>>>>>>>>>>>>>>>>>>>>>>>>>>>>>>>>>

-------------------------- Atom counting information ---------------------------
Symbol    Natoms    Nngwfs    Nprojs
  N        236       944       236
  H       1317      1317         0
  C        816      3264       816
  S          6        54        36
  O        241       964       241
.......   ......    ......    ......
Totals:   2616      6543      1329
--------------------------------------------------------------------------------

=============================== PSINC grid sizes ===============================
                      Simulation cell:  286 x 294 x 320
                              FFT-box:  105 x 105 x  99
                                  PPD:   11 x   6 x   1
Grid space d1=  0.498842657343a0 (KE cutoff=  30.52649Eh = 830.66799eV)
Grid space d2=  0.498809523810a0 (KE cutoff=  30.53054Eh = 830.77835eV)
Grid space d3=  0.507487500000a0 (KE cutoff=  29.49533Eh = 802.60885eV)
================================================================================

********************* Fourier parallelisation information **********************
       Coarse grid (whole simulation cell) dimensions:    286   294   320
          Real-space ('12') slabs/node (min max mean):      5     6     5
         Recip-space ('23') slabs/node (min max mean):      2     3     2
********************************************************************************

********************* Fourier parallelisation information **********************
       Double grid (whole simulation cell) dimensions:    572   588   640
          Real-space ('12') slabs/node (min max mean):     10    11    10
         Recip-space ('23') slabs/node (min max mean):      4     5     4
********************************************************************************
ONETEP fine grid is 572 x 588 x 640 gridpoints, 142.6690 x 146.6500 x 162.3960 bohr.
FD multigrid is     569 x 585 x 633 gridpoints, 141.9207 x 145.9018 x 160.6198 bohr.


Calculating local pseudopotential in open BC on a radial grid ...
Discrepancy between calculated realspace psloc and -Z/x on [5a0,261.215a0]:
max |rel. diff| # avg |rel. diff| #  avg rel. diff #  f # pseudopotential file
 0.000261901569    0.000004963664   0.000000071970   55  'N_00.recpot'
 0.000422260137    0.000017549664  -0.000000063361   55  'H_04.recpot'
 0.000361991046    0.000016543264   0.000000134927   55  'C_01.recpot'
 0.000447743184    0.000019132268   0.000000438157   55  'S_00.recpot'
 0.000711628927    0.000028437426   0.000000135877   55  'O_02.recpot'
... done

Atom SCF Calculation for N  : Z (AE atom) =   7 : Z (PS atom) =   5
Config String:
Orbitals (num,occ):  2     2.00 3.00
Orbitals   (num,l):  2        0    1
Real-space Grid (nr,dr,rmax): 1203    0.0066555740    8.0000000000
Spherical Bessel Basis (nsws,lmax,cutoff):   47    1  176.3951722778
Confining potential (l,width,scale):  0    3.0000000000  100.0000000000
Confining potential (l,width,scale):  1    3.0000000000  100.0000000000
  1         -4.7312375307   -3.4155304497    7.0523828109   -1.9351020946
  2         -9.7309464766   -2.0532547791    8.2966052865   -2.2494486027
  3         -9.6627394379   -2.1124926340    8.2327997121   -2.2369778124
  4         -9.6814993499   -2.1215521045    8.2229805960   -2.2365178421
  5         -9.6843326483   -2.1250939529    8.2191374534   -2.2362718126
  6         -9.6859628709   -2.1267894855    8.2172963573   -2.2362066344
  7         -9.6867347035   -2.1276425665    8.2163697352   -2.2361903369
  8         -9.6870802100   -2.1280764625    8.2158983890   -2.2361891460
  9         -9.6872290423   -2.1282977424    8.2156580222   -2.2361920435
 10         -9.6872901988   -2.1284107021    8.2155353368   -2.2361953393
 11         -9.6873135296   -2.1284684031    8.2154726809   -2.2361979819
 12         -9.6873212476   -2.1284978948    8.2154406648   -2.2361998431
 13         -9.6873229586   -2.1285129774    8.2154242957   -2.2362010676
 14         -9.6873226456   -2.1285206957    8.2154159216   -2.2362018403
 15         -9.6873218534   -2.1285246479    8.2154116349   -2.2362023142
 16         -9.6873212599   -2.1285262679    8.2154098784   -2.2362025420
 17         -9.6873207834   -2.1285272564    8.2154088068   -2.2362026955
 18         -9.6873204210   -2.1285278596    8.2154081529   -2.2362027982
 19         -9.6873201550   -2.1285282280    8.2154077538   -2.2362028667
 20         -9.6873199645   -2.1285284529    8.2154075102   -2.2362029121
 21         -9.6873198305   -2.1285285903    8.2154073614   -2.2362029421
 22         -9.6873197377   -2.1285286742    8.2154072705   -2.2362029618
Atom SCF converged after  22 iterations to a total energy of     -9.68731974

Atom SCF Calculation for H  : Z (AE atom) =   1 : Z (PS atom) =   1
Config String:
Orbitals (num,occ):  1     1.00
Orbitals   (num,l):  1        0
Real-space Grid (nr,dr,rmax): 1203    0.0066555740    8.0000000000
Spherical Bessel Basis (nsws,lmax,cutoff):   47    0  176.3951722778
Confining potential (l,width,scale):  0    3.0000000000  100.0000000000
  1         -0.3194257691   -0.2393854593    0.2820953124   -0.2424203209
  2         -0.3951823392   -0.2377116493    0.2886404059   -0.2475147891
  3         -0.4317044583   -0.2352244387    0.2921333887   -0.2514046172
  4         -0.4470703708   -0.2341892222    0.2934391879   -0.2531009782
  5         -0.4532132900   -0.2338556667    0.2938388426   -0.2537313520
  6         -0.4556579251   -0.2337612552    0.2939448584   -0.2539550462
  7         -0.4566418315   -0.2337377355    0.2939680120   -0.2540342273
  8         -0.4570437922   -0.2337331116    0.2939708287   -0.2540627372
  9         -0.4572102946   -0.2337328328    0.2939698291   -0.2540732650
 10         -0.4572800424   -0.2337332404    0.2939687193   -0.2540772588
 11         -0.4573095100   -0.2337335791    0.2939680317   -0.2540788122
 12         -0.4573220379   -0.2337337762    0.2939676699   -0.2540794294
 13         -0.4573273880   -0.2337338775    0.2939674931   -0.2540796787
 14         -0.4573296803   -0.2337339266    0.2939674099   -0.2540797808
 15         -0.4573306647   -0.2337339495    0.2939673718   -0.2540798230
 16         -0.4573310882   -0.2337339601    0.2939673545   -0.2540798406
 17         -0.4573312706   -0.2337339649    0.2939673467   -0.2540798479
 18         -0.4573313493   -0.2337339670    0.2939673433   -0.2540798510
Atom SCF converged after  18 iterations to a total energy of     -0.45733135

Atom SCF Calculation for C  : Z (AE atom) =   6 : Z (PS atom) =   4
Config String:
Orbitals (num,occ):  2     2.00 2.00
Orbitals   (num,l):  2        0    1
Real-space Grid (nr,dr,rmax): 1203    0.0066555740    8.0000000000
Spherical Bessel Basis (nsws,lmax,cutoff):   47    1  176.3951722778
Confining potential (l,width,scale):  0    3.0000000000  100.0000000000
Confining potential (l,width,scale):  1    3.0000000000  100.0000000000
  1         -5.2976922011   -1.3069684169    4.5135249990   -1.4493313817
  2         -5.3721716256   -1.3429755895    4.4750154450   -1.4361613026
  3         -5.3809959565   -1.3617365618    4.4541655428   -1.4305930207
  4         -5.3918938866   -1.3667928461    4.4484735100   -1.4294652294
  5         -5.3956096428   -1.3688539142    4.4461376126   -1.4290734646
  6         -5.3968271862   -1.3696852393    4.4451910874   -1.4289366866
  7         -5.3972028401   -1.3700178062    4.4448112275   -1.4288900460
  8         -5.3973067903   -1.3701500158    4.4446598370   -1.4288749220
  9         -5.3973286940   -1.3702023868    4.4445997329   -1.4288704293
 10         -5.3973289850   -1.3702230869    4.4445759233   -1.4288693188
 11         -5.3973254264   -1.3702312560    4.4445665049   -1.4288691775
 12         -5.3973224003   -1.3702344755    4.4445627836   -1.4288692549
 13         -5.3973208708   -1.3702354890    4.4445616088   -1.4288693270
 14         -5.3973198783   -1.3702360102    4.4445610034   -1.4288693814
 15         -5.3973192535   -1.3702362780    4.4445606917   -1.4288694190
 16         -5.3973188684   -1.3702364155    4.4445605313   -1.4288694437
 17         -5.3973186349   -1.3702364860    4.4445604489   -1.4288694595
 18         -5.3973184951   -1.3702365221    4.4445604065   -1.4288694693
 19         -5.3973184122   -1.3702365405    4.4445603848   -1.4288694753
Atom SCF converged after  19 iterations to a total energy of     -5.39731841

Atom SCF Calculation for S  : Z (AE atom) =  16 : Z (PS atom) =   6
Config String:
Orbitals (num,occ):  3     2.00 4.00 0.00
Orbitals   (num,l):  3        0    1    2
Real-space Grid (nr,dr,rmax): 1203    0.0066555740    8.0000000000
Spherical Bessel Basis (nsws,lmax,cutoff):   47    2  176.3951722778
Confining potential (l,width,scale):  0    3.0000000000  100.0000000000
Confining potential (l,width,scale):  1    3.0000000000  100.0000000000
Confining potential (l,width,scale):  2    3.0000000000  100.0000000000
  1        -12.4735062396   -1.0328741412   10.1554312477   -2.4512393157
  2         -9.9458301913   -2.4607392455    8.3041325857   -2.0306994528
  3        -10.1450417646   -2.2931184565    8.4831893826   -2.0812538287
  4        -10.1528335592   -2.2733105793    8.5050388867   -2.0896035179
  5        -10.1571940363   -2.2633716629    8.5160794258   -2.0939370707
  6        -10.1594380571   -2.2584938667    8.5215163935   -2.0961289008
  7        -10.1605856507   -2.2561081821    8.5241804044   -2.0972291378
  8        -10.1611799191   -2.2549395235    8.5254868240   -2.0977806248
  9        -10.1614918752   -2.2543658586    8.5261285885   -2.0980571586
 10        -10.1616572884   -2.2540839121    8.5264441898   -2.0981959233
 11        -10.1617455602   -2.2539453058    8.5265994231   -2.0982656006
 12        -10.1617928447   -2.2538772062    8.5266757320   -2.0983006047
 13        -10.1618182292   -2.2538437891    8.5267131983   -2.0983181961
 14        -10.1618318741   -2.2538274201    8.5267315620   -2.0983270391
 15        -10.1618392144   -2.2538194197    8.5267405433   -2.0983314852
 16        -10.1618431651   -2.2538155200    8.5267449245   -2.0983337210
 17        -10.1618452923   -2.2538136252    8.5267470551   -2.0983348455
 18        -10.1618464380   -2.2538127080    8.5267480875   -2.0983354110
 19        -10.1618470552   -2.2538122659    8.5267485856   -2.0983356955
 20        -10.1618473878   -2.2538120540    8.5267488248   -2.0983358386
 21        -10.1618475670   -2.2538119530    8.5267489389   -2.0983359106
 22        -10.1618476637   -2.2538119053    8.5267489929   -2.0983359468
Atom SCF converged after  22 iterations to a total energy of    -10.16184766

Atom SCF Calculation for O  : Z (AE atom) =   8 : Z (PS atom) =   6
Config String:
Orbitals (num,occ):  2     2.00 4.00
Orbitals   (num,l):  2        0    1
Real-space Grid (nr,dr,rmax): 1203    0.0066555740    8.0000000000
Spherical Bessel Basis (nsws,lmax,cutoff):   47    1  176.3951722778
Confining potential (l,width,scale):  0    3.0000000000  100.0000000000
Confining potential (l,width,scale):  1    3.0000000000  100.0000000000
  1         -1.8735052164   -7.5539365035   10.1554312477   -2.4512393157
  2        -16.0318313751   -3.1285771268   13.6395848164   -3.2358799643
  3        -15.9524020423   -3.0762819706   13.6967272503   -3.2536856837
  4        -15.8521515939   -3.0781493909   13.6951909330   -3.2561700440
  5        -15.8357139793   -3.0748501933   13.6988803334   -3.2580493133
  6        -15.8246052853   -3.0740779781   13.6997881576   -3.2588327446
  7        -15.8189019501   -3.0737449687   13.7001869911   -3.2592378801
  8        -15.8159785510   -3.0736026016   13.7003615168   -3.2594475790
  9        -15.8144776168   -3.0735437994   13.7004360379   -3.2595560735
 10        -15.8137058024   -3.0735207882   13.7004667348   -3.2596122456
 11        -15.8133083127   -3.0735125946   13.7004786868   -3.2596413656
 12        -15.8131032938   -3.0735102195   13.7004828997   -3.2596564858
 13        -15.8129973902   -3.0735099286   13.7004840891   -3.2596643505
 14        -15.8129426040   -3.0735102506   13.7004842061   -3.2596684489
 15        -15.8129142203   -3.0735106556   13.7004840157   -3.2596705887
 16        -15.8128994940   -3.0735109855   13.7004837906   -3.2596717080
 17        -15.8128918425   -3.0735112169   13.7004836103   -3.2596722946
 18        -15.8128878614   -3.0735113674   13.7004834848   -3.2596726026
 19        -15.8128857871   -3.0735114608   13.7004834035   -3.2596727646
 20        -15.8128847048   -3.0735115170   13.7004833533   -3.2596728500
 21        -15.8128841394   -3.0735115501   13.7004833231   -3.2596728951
 22        -15.8128838436   -3.0735115693   13.7004833054   -3.2596729190
 23        -15.8128836887   -3.0735115802   13.7004832951   -3.2596729316
 24        -15.8128836074   -3.0735115864   13.7004832893   -3.2596729383
Atom SCF converged after  24 iterations to a total energy of    -15.81288361

========================== Calculation in vacuum ==============================
= Adjusting the following parameters: 
= is_implicit_solvent: F
= is_include_apolar: F
= write_denskern: T
= write_tightbox_ngwfs: T
= restart read filename prefix: ""
= restart write filename prefix: "vacuum_"
===============================================================================

Determining parallel strategy ...
... using space-filling curve
... NGWF load balancing: max    110;  min    109;  average    109
... Projector load balancing: max     26;  min     21;  average     22
... done
Calculating direct Ion-Ion energy ...
Ion-Ion Energy        :    831051.94714989280328
======================= Empirical dispersion information =======================
Model : Elstner
Dispersion Correction Energy: -0.32105693E+01 Hartree
================================================================================
Basis initialisation ...... NGWF spheres initialised
... Projector spheres initialised
... NGWF tight boxes initialised
... Tight-boxes gathered
... NGWF basis size (local,global):     985759  59005653
... Nonlocal pseudopotential projector initialisation
... done

========================== Sparse matrix information ===========================
                        Overlap matrix filling:   6.59%
                        Density kernel filling: 100.00%
              NGWF-Proj overlap matrix filling:   1.73%
                    Hamiltonian matrix filling:   7.41%
                  NGWF diagonal matrix filling:   0.05%
                             KS matrix filling: 100.00% 
                           KSKS matrix filling: 100.00% 
================================================================================

Sparse matrix initialisation ... done

Generating smeared ion density ... done
Smeared ion self correction:     -14543.939510
Smeared ion non-self correction: -831003.659850
NGWF initialisation ...... done
============ Calculation of NGWF S^-1 using Hotelling algorithm ================ 
         Iteration  |  Frobenius norm and Maximum abs value    (of I-S*S_n^-1)   
               1       0.78719043E+02     0.98257973E+00
               2       0.76868976E+02     0.96559661E+00
               3       0.73869137E+02     0.93287685E+00
               4       0.69598174E+02     0.87235762E+00
               5       0.64272164E+02     0.76962562E+00
               6       0.58283610E+02     0.70319509E+00
               7       0.52259495E+02     0.67291872E+00
               8       0.46693016E+02     0.64778928E+00
               9       0.40615682E+02     0.60736535E+00
              10       0.32341060E+02     0.53728607E+00
              11       0.21754353E+02     0.42373438E+00
              12       0.11127524E+02     0.28228159E+00
              13       0.36730642E+01     0.12650162E+00
              14       0.58288219E+00     0.35783308E-01
              15       0.28338045E-01     0.33202883E-02
              16       0.16679023E-03     0.31294722E-04
              17       0.10641215E-07     0.28675311E-08
              18       0.94305548E-13     0.49960036E-14
================================================================================
Calculating local pseudopotential in open BC on the fine real space grid ...
... done

MG BCs: +ve charge blocks (gridpoints):     21012 (   16549309).
MG BCs: -ve charge blocks (gridpoints):      8170 (    1102643).
MG BCs:     Elided blocks (gridpoints):    194220 (  193051593).
MG BCs: Computational effort saved:  99.9862%.
MG BCs: Charge after coarse-graining:           -9.0002312.
MG DL_MG: Calling solver with defect correction order = 8
MG DL_MG: Solver finished
MG Hartree energy from (\int phi*rho dr):              1471.527681
MG Hartree energy from (\int eps (grad phi)^2 dr):     1470.926588
MG Discrepancy due to finite box and discretization:     -0.601093 (  -0.04085%)
MG Correction to account for finite box:                  0.453391
MG Remaining discrepancy, due to discretization:         -0.147702 (  -0.01004%)
Up spin density kernel initialisation ... 
======= Optimisation of K by Palser-Manolopoulos canonical purification ======== 
         Iteration  |  Band structure energy |    c_n   
               1       -2575.27925543636593    0.5285754
               2       -2751.30858016021602    0.5182357
               3       -2933.81790761010961    0.5154622
               4       -3088.91579022553015    0.5275788
               5       -3186.73157224026818    0.5617074
               6       -3228.75784406428329    0.6073823
               7       -3243.02310628371379    0.6214657
               8       -3249.07780674198057    0.6189236
               9       -3252.03030987951342    0.6308952
              10       -3253.26698065660639    0.6592678
              11       -3253.73475606272632    0.6808928
              12       -3253.93096024137049    0.6696315
              13       -3254.03706639115762    0.6327910
              14       -3254.10022127120510    0.5754143
              15       -3254.13510021044385    0.4979261
              16       -3254.14962872988053    0.4254044
              17       -3254.15132321591818    0.4343832
              18       -3254.15217739503669    0.4740371
              19       -3254.15258604521387    0.4960176
              20       -3254.15266354735058    0.4999007
              21       -3254.15266583492303    0.5000052
              22       -3254.15266583685207    0.5000052
Termination criterion satisfied: band energy change below threshold.
Final occupancy bounds: [   -0.00000000000000:    1.00000000000000]
Closest occupancy to 0.5:     1.00000000000000
================================================================================
... done

Writing density kernel to file "complex_37721.vacuum_dkn" ... done

>>> Optimising kernel for current NGWFs:
   Initial electron number for spin 1:    7234.00000000
     Final electron number for spin 1:    7234.00000000

=================== Penalty functional idempotency correction ==================
 RMS occupancy error at iteration   1:  0.000000 (step -0.5000 Ne1=   7234.0000)
            Final RMS occupancy error   :  0.000000 (Ne1=   7234.0000)
               Final occupancy bounds   : [ -0.0000,  1.0000]
================================================================================

................................................................................
<<<<<<<<<<<<<< LNV (Original version) density kernel optimisation >>>>>>>>>>>>>>
~~~~~~~~~~~~~~~~~~~~~~~~~~~~~~~~~~~~~~~~~~~~~~~~~~~~~~~~~~~~~~~~~~~~~~~~~~~~~~~~
   iter  |      energy (Eh)       | rms gradient |  commutator  |   dE (Eh)
MG BCs: +ve charge blocks (gridpoints):     32025 (   17722450).
MG BCs: -ve charge blocks (gridpoints):      8501 (    1136739).
MG BCs:     Elided blocks (gridpoints):    183202 (  191844356).
MG BCs: Computational effort saved:  99.9808%.
MG BCs: Charge after coarse-graining:           -9.0010051.
MG DL_MG: Calling solver with defect correction order = 8
MG DL_MG: Solver finished
MG Hartree energy from (\int phi*rho dr):              1428.501977
MG Hartree energy from (\int eps (grad phi)^2 dr):     1427.845809
MG Discrepancy due to finite box and discretization:     -0.656169 (  -0.04593%)
MG Correction to account for finite box:                  0.467053
MG Remaining discrepancy, due to discretization:         -0.189115 (  -0.01324%)
      ideal mu1:      -0.698663137332
             Q0:  -11575.845043729292
             G0:    -146.717308729052
   RMS gradient:       0.001851244391
MG BCs: +ve charge blocks (gridpoints):     31969 (   17805851).
MG BCs: -ve charge blocks (gridpoints):      8393 (    1115754).
MG BCs:     Elided blocks (gridpoints):    183260 (  191781940).
MG BCs: Computational effort saved:  99.9808%.
MG BCs: Charge after coarse-graining:           -9.0010249.
MG DL_MG: Calling solver with defect correction order = 8
MG DL_MG: Solver finished
MG Hartree energy from (\int phi*rho dr):              1452.977358
MG Hartree energy from (\int eps (grad phi)^2 dr):     1452.336171
MG Discrepancy due to finite box and discretization:     -0.641187 (  -0.04413%)
MG Correction to account for finite box:                  0.467435
MG Remaining discrepancy, due to discretization:         -0.173752 (  -0.01196%)
     Trial step:       0.500000000000
             Q1:  -11587.635279316339
 Quadratic coef:      61.568418777479
 Linear coef   :     -73.358654364526
           Qmin:  -11597.696718163323
Quadratic minimum step length (  0.297874526507) accepted
    Initial Ne1:    7234.00000000
      Final Ne1:    7234.00000000

=================== Penalty functional idempotency correction ==================
 RMS occupancy error at iteration   1:  0.003468 (step -0.4882 Ne1=   7234.0000)
 RMS occupancy error at iteration   2:  0.000028 (step -0.5001 Ne1=   7234.0000)
            Final RMS occupancy error   :  0.000000 (Ne1=   7234.0000)
               Final occupancy bounds   : [  0.0000,  1.0000]
================================================================================

    1        -1.157584504373E+04     1.8512E-03     1.6744E-03
MG BCs: +ve charge blocks (gridpoints):     32000 (   17773661).
MG BCs: -ve charge blocks (gridpoints):      8430 (    1124611).
MG BCs:     Elided blocks (gridpoints):    183228 (  191805273).
MG BCs: Computational effort saved:  99.9808%.
MG BCs: Charge after coarse-graining:           -9.0010169.
MG DL_MG: Calling solver with defect correction order = 8
MG DL_MG: Solver finished
MG Hartree energy from (\int phi*rho dr):              1435.075258
MG Hartree energy from (\int eps (grad phi)^2 dr):     1434.428949
MG Discrepancy due to finite box and discretization:     -0.646309 (  -0.04504%)
MG Correction to account for finite box:                  0.467156
MG Remaining discrepancy, due to discretization:         -0.179153 (  -0.01248%)
      ideal mu1:      -0.742866319418
             Q0:  -11598.113030384295
             G0:     -12.464115949390
   RMS gradient:       0.000535871604
MG BCs: +ve charge blocks (gridpoints):     31993 (   17790396).
MG BCs: -ve charge blocks (gridpoints):      8422 (    1119237).
MG BCs:     Elided blocks (gridpoints):    183235 (  191793912).
MG BCs: Computational effort saved:  99.9808%.
MG BCs: Charge after coarse-graining:           -9.0010204.
MG DL_MG: Calling solver with defect correction order = 8
MG DL_MG: Solver finished
MG Hartree energy from (\int phi*rho dr):              1440.149128
MG Hartree energy from (\int eps (grad phi)^2 dr):     1439.506436
MG Discrepancy due to finite box and discretization:     -0.642693 (  -0.04463%)
MG Correction to account for finite box:                  0.466699
MG Remaining discrepancy, due to discretization:         -0.175993 (  -0.01222%)
     Trial step:       0.385923908632
             Q1:  -11601.039219362428
 Quadratic coef:       1.884011366694
 Linear coef   :      -4.810200344827
           Qmin:  -11601.183344577512
Quadratic minimum step length (  0.492664574958) accepted
    Initial Ne1:    7233.99988154
      Final Ne1:    7234.00000000

=================== Penalty functional idempotency correction ==================
 RMS occupancy error at iteration   1:  0.001868 (step -0.4928 Ne1=   7234.0000)
 RMS occupancy error at iteration   2:  0.000012 (step -0.5001 Ne1=   7234.0000)
            Final RMS occupancy error   :  0.000000 (Ne1=   7234.0000)
               Final occupancy bounds   : [  0.0000,  1.0000]
================================================================================

    2        -1.159811303038E+04     5.3587E-04     4.8468E-04    -2.2268E+01
MG BCs: +ve charge blocks (gridpoints):     31991 (   17794991).
MG BCs: -ve charge blocks (gridpoints):      8421 (    1117670).
MG BCs:     Elided blocks (gridpoints):    183237 (  191790884).
MG BCs: Computational effort saved:  99.9808%.
MG BCs: Charge after coarse-graining:           -9.0010215.
MG DL_MG: Calling solver with defect correction order = 8
MG DL_MG: Solver finished
MG Hartree energy from (\int phi*rho dr):              1441.603173
MG Hartree energy from (\int eps (grad phi)^2 dr):     1440.961404
MG Discrepancy due to finite box and discretization:     -0.641770 (  -0.04452%)
MG Correction to account for finite box:                  0.466588
MG Remaining discrepancy, due to discretization:         -0.175182 (  -0.01215%)
      ideal mu1:      -0.767030116813
             Q0:  -11601.222529843100
             G0:      -1.993090935076
   RMS gradient:       0.000214361026
MG BCs: +ve charge blocks (gridpoints):     31997 (   17794214).
MG BCs: -ve charge blocks (gridpoints):      8424 (    1118690).
MG BCs:     Elided blocks (gridpoints):    183231 (  191790641).
MG BCs: Computational effort saved:  99.9808%.
MG BCs: Charge after coarse-graining:           -9.0010213.
MG DL_MG: Calling solver with defect correction order = 8
MG DL_MG: Solver finished
MG Hartree energy from (\int phi*rho dr):              1439.365208
MG Hartree energy from (\int eps (grad phi)^2 dr):     1438.723939
MG Discrepancy due to finite box and discretization:     -0.641269 (  -0.04455%)
MG Correction to account for finite box:                  0.466289
MG Remaining discrepancy, due to discretization:         -0.174980 (  -0.01216%)
     Trial step:       0.436040179814
             Q1:  -11601.739035802428
 Quadratic coef:       0.352561770389
 Linear coef   :      -0.869067729716
           Qmin:  -11601.758094659161
Quadratic minimum step length (  0.537421355579) accepted
    Initial Ne1:    7233.99993314
      Final Ne1:    7234.00000000

=================== Penalty functional idempotency correction ==================
 RMS occupancy error at iteration   1:  0.000693 (step -0.4958 Ne1=   7234.0000)
 RMS occupancy error at iteration   2:  0.000006 (step -0.5004 Ne1=   7234.0000)
            Final RMS occupancy error   :  0.000000 (Ne1=   7234.0000)
               Final occupancy bounds   : [  0.0000,  1.0000]
================================================================================

    3        -1.160122252984E+04     2.1436E-04     1.9389E-04    -3.1095E+00
MG BCs: +ve charge blocks (gridpoints):     31998 (   17793888).
MG BCs: -ve charge blocks (gridpoints):      8424 (    1119055).
MG BCs:     Elided blocks (gridpoints):    183229 (  191790602).
MG BCs: Computational effort saved:  99.9808%.
MG BCs: Charge after coarse-graining:           -9.0010214.
MG DL_MG: Calling solver with defect correction order = 8
MG DL_MG: Solver finished
MG Hartree energy from (\int phi*rho dr):              1438.854893
MG Hartree energy from (\int eps (grad phi)^2 dr):     1438.213727
MG Discrepancy due to finite box and discretization:     -0.641166 (  -0.04456%)
MG Correction to account for finite box:                  0.466222
MG Remaining discrepancy, due to discretization:         -0.174944 (  -0.01216%)
      ideal mu1:      -0.767913528394
             Q0:  -11601.763135636924
             G0:      -0.592919217812
   RMS gradient:       0.000117084343
MG BCs: +ve charge blocks (gridpoints):     31998 (   17795010).
MG BCs: -ve charge blocks (gridpoints):      8418 (    1118772).
MG BCs:     Elided blocks (gridpoints):    183229 (  191789763).
MG BCs: Computational effort saved:  99.9808%.
MG BCs: Charge after coarse-graining:           -9.0010214.
MG DL_MG: Calling solver with defect correction order = 8
MG DL_MG: Solver finished
MG Hartree energy from (\int phi*rho dr):              1440.060645
MG Hartree energy from (\int eps (grad phi)^2 dr):     1439.419487
MG Discrepancy due to finite box and discretization:     -0.641158 (  -0.04452%)
MG Correction to account for finite box:                  0.466134
MG Remaining discrepancy, due to discretization:         -0.175024 (  -0.01215%)
     Trial step:       0.484083984989
             Q1:  -11601.928125887644
 Quadratic coef:       0.122032447016
 Linear coef   :      -0.287022697735
           Qmin:  -11601.931906384027
Quadratic minimum step length (  0.569287491562) accepted
    Initial Ne1:    7233.99992845
      Final Ne1:    7234.00000000

=================== Penalty functional idempotency correction ==================
 RMS occupancy error at iteration   1:  0.000552 (step -0.4775 Ne1=   7234.0000)
 RMS occupancy error at iteration   2:  0.000018 (step -0.5003 Ne1=   7234.0000)
            Final RMS occupancy error   :  0.000000 (Ne1=   7234.0000)
               Final occupancy bounds   : [  0.0000,  1.0000]
================================================================================

    4        -1.160176313564E+04     1.1708E-04     1.0590E-04    -5.4061E-01
MG BCs: +ve charge blocks (gridpoints):     31998 (   17795183).
MG BCs: -ve charge blocks (gridpoints):      8416 (    1118715).
MG BCs:     Elided blocks (gridpoints):    183229 (  191789647).
MG BCs: Computational effort saved:  99.9808%.
MG BCs: Charge after coarse-graining:           -9.0010214.
MG DL_MG: Calling solver with defect correction order = 8
MG DL_MG: Solver finished
MG Hartree energy from (\int phi*rho dr):              1440.274365
MG Hartree energy from (\int eps (grad phi)^2 dr):     1439.633205
MG Discrepancy due to finite box and discretization:     -0.641160 (  -0.04452%)
MG Correction to account for finite box:                  0.466120
MG Remaining discrepancy, due to discretization:         -0.175040 (  -0.01215%)
      ideal mu1:      -0.767876654285
             Q0:  -11601.931677865912
             G0:      -0.372797995487
   RMS gradient:       0.000093586308
MG BCs: +ve charge blocks (gridpoints):     31997 (   17795665).
MG BCs: -ve charge blocks (gridpoints):      8416 (    1118446).
MG BCs:     Elided blocks (gridpoints):    183231 (  191789434).
MG BCs: Computational effort saved:  99.9808%.
MG BCs: Charge after coarse-graining:           -9.0010213.
MG DL_MG: Calling solver with defect correction order = 8
MG DL_MG: Solver finished
MG Hartree energy from (\int phi*rho dr):              1440.878271
MG Hartree energy from (\int eps (grad phi)^2 dr):     1440.236808
MG Discrepancy due to finite box and discretization:     -0.641463 (  -0.04452%)
MG Correction to account for finite box:                  0.466244
MG Remaining discrepancy, due to discretization:         -0.175219 (  -0.01216%)
     Trial step:       0.524959958015
             Q1:  -11602.070099470904
 Quadratic coef:       0.057282415068
 Linear coef   :      -0.195704020059
           Qmin:  -11602.098832408114
Quadratic minimum step length (  0.896756657627) accepted
    Initial Ne1:    7233.99964879
      Final Ne1:    7234.00000000

=================== Penalty functional idempotency correction ==================
 RMS occupancy error at iteration   1:  0.003060 (step -0.3417 Ne1=   7234.0000)
 RMS occupancy error at iteration   2:  0.000209 (step -0.4942 Ne1=   7234.0000)
 RMS occupancy error at iteration   3:  0.000002 (step -0.5000 Ne1=   7234.0000)
            Final RMS occupancy error   :  0.000000 (Ne1=   7234.0000)
               Final occupancy bounds   : [  0.0000,  1.0000]
================================================================================

    5        -1.160193167787E+04     9.3586E-05     8.4647E-05    -1.6854E-01
MG BCs: +ve charge blocks (gridpoints):     31997 (   17796013).
MG BCs: -ve charge blocks (gridpoints):      8414 (    1118263).
MG BCs:     Elided blocks (gridpoints):    183231 (  191789269).
MG BCs: Computational effort saved:  99.9808%.
MG BCs: Charge after coarse-graining:           -9.0010213.
MG DL_MG: Calling solver with defect correction order = 8
MG DL_MG: Solver finished
MG Hartree energy from (\int phi*rho dr):              1441.334802
MG Hartree energy from (\int eps (grad phi)^2 dr):     1440.693142
MG Discrepancy due to finite box and discretization:     -0.641661 (  -0.04452%)
MG Correction to account for finite box:                  0.466310
MG Remaining discrepancy, due to discretization:         -0.175351 (  -0.01217%)
      ideal mu1:      -0.766916999873
             Q0:  -11602.072643716121
             G0:      -0.434170592018
   RMS gradient:       0.000110410878
MG BCs: +ve charge blocks (gridpoints):     32002 (   17795278).
MG BCs: -ve charge blocks (gridpoints):      8419 (    1118886).
MG BCs:     Elided blocks (gridpoints):    183226 (  191789381).
MG BCs: Computational effort saved:  99.9808%.
MG BCs: Charge after coarse-graining:           -9.0010211.
MG DL_MG: Calling solver with defect correction order = 8
MG DL_MG: Solver finished
MG Hartree energy from (\int phi*rho dr):              1438.967674
MG Hartree energy from (\int eps (grad phi)^2 dr):     1438.325938
MG Discrepancy due to finite box and discretization:     -0.641736 (  -0.04460%)
MG Correction to account for finite box:                  0.466427
MG Remaining discrepancy, due to discretization:         -0.175309 (  -0.01218%)
     Trial step:       0.686120497681
             Q1:  -11602.129745247657
 Quadratic coef:       0.240791811138
 Linear coef   :      -0.297893342674
           Qmin:  -11602.164777708542
Quadratic minimum step length (  0.424413786260) accepted
    Initial Ne1:    7233.99976804
      Final Ne1:    7234.00000000

=================== Penalty functional idempotency correction ==================
 RMS occupancy error at iteration   1:  0.004417 (step -0.3001 Ne1=   7234.0000)
 RMS occupancy error at iteration   2:  0.000329 (step -0.4830 Ne1=   7234.0000)
 RMS occupancy error at iteration   3:  0.000007 (step -0.5001 Ne1=   7234.0000)
            Final RMS occupancy error   :  0.000000 (Ne1=   7234.0000)
               Final occupancy bounds   : [  0.0000,  1.0000]
================================================================================

    6        -1.160207264372E+04     1.1041E-04     9.9864E-05    -1.4097E-01
MG BCs: +ve charge blocks (gridpoints):     32001 (   17795525).
MG BCs: -ve charge blocks (gridpoints):      8419 (    1118656).
MG BCs:     Elided blocks (gridpoints):    183227 (  191789364).
MG BCs: Computational effort saved:  99.9808%.
MG BCs: Charge after coarse-graining:           -9.0010211.
MG DL_MG: Calling solver with defect correction order = 8
MG DL_MG: Solver finished
MG Hartree energy from (\int phi*rho dr):              1439.844678
MG Hartree energy from (\int eps (grad phi)^2 dr):     1439.202762
MG Discrepancy due to finite box and discretization:     -0.641915 (  -0.04458%)
MG Correction to account for finite box:                  0.466601
MG Remaining discrepancy, due to discretization:         -0.175314 (  -0.01218%)
      ideal mu1:      -0.766181626467
             Q0:  -11602.168258276884
             G0:      -0.386682180597
   RMS gradient:       0.000095038628
MG BCs: +ve charge blocks (gridpoints):     32000 (   17795351).
MG BCs: -ve charge blocks (gridpoints):      8418 (    1118849).
MG BCs:     Elided blocks (gridpoints):    183227 (  191789345).
MG BCs: Computational effort saved:  99.9808%.
MG BCs: Charge after coarse-graining:           -9.0010213.
MG DL_MG: Calling solver with defect correction order = 8
MG DL_MG: Solver finished
MG Hartree energy from (\int phi*rho dr):              1439.242809
MG Hartree energy from (\int eps (grad phi)^2 dr):     1438.601063
MG Discrepancy due to finite box and discretization:     -0.641746 (  -0.04459%)
MG Correction to account for finite box:                  0.466721
MG Remaining discrepancy, due to discretization:         -0.175025 (  -0.01216%)
     Trial step:       0.539628574346
             Q1:  -11602.287555029267
 Quadratic coef:       0.089368001458
 Linear coef   :      -0.208664753841
           Qmin:  -11602.290060764310
Quadratic minimum step length (  0.629987589487) accepted
    Initial Ne1:    7233.99997483
      Final Ne1:    7234.00000000

=================== Penalty functional idempotency correction ==================
 RMS occupancy error at iteration   1:  0.000119 (step -0.4946 Ne1=   7234.0000)
 RMS occupancy error at iteration   2:  0.000001 (step -0.5000 Ne1=   7234.0000)
            Final RMS occupancy error   :  0.000000 (Ne1=   7234.0000)
               Final occupancy bounds   : [  0.0000,  1.0000]
================================================================================

    7        -1.160216825828E+04     9.5039E-05     8.5960E-05    -9.5615E-02
MG BCs: +ve charge blocks (gridpoints):     32000 (   17795318).
MG BCs: -ve charge blocks (gridpoints):      8418 (    1118863).
MG BCs:     Elided blocks (gridpoints):    183227 (  191789364).
MG BCs: Computational effort saved:  99.9808%.
MG BCs: Charge after coarse-graining:           -9.0010213.
MG DL_MG: Calling solver with defect correction order = 8
MG DL_MG: Solver finished
MG Hartree energy from (\int phi*rho dr):              1439.143063
MG Hartree energy from (\int eps (grad phi)^2 dr):     1438.501344
MG Discrepancy due to finite box and discretization:     -0.641719 (  -0.04459%)
MG Correction to account for finite box:                  0.466742
MG Remaining discrepancy, due to discretization:         -0.174978 (  -0.01216%)
      ideal mu1:      -0.767017552522
             Q0:  -11602.290045466158
             G0:      -0.214126687860
   RMS gradient:       0.000070738023
MG BCs: +ve charge blocks (gridpoints):     31997 (   17795621).
MG BCs: -ve charge blocks (gridpoints):      8418 (    1118449).
MG BCs:     Elided blocks (gridpoints):    183230 (  191789475).
MG BCs: Computational effort saved:  99.9808%.
MG BCs: Charge after coarse-graining:           -9.0010214.
MG DL_MG: Calling solver with defect correction order = 8
MG DL_MG: Solver finished
MG Hartree energy from (\int phi*rho dr):              1439.825801
MG Hartree energy from (\int eps (grad phi)^2 dr):     1439.183954
MG Discrepancy due to finite box and discretization:     -0.641847 (  -0.04458%)
MG Correction to account for finite box:                  0.466902
MG Remaining discrepancy, due to discretization:         -0.174945 (  -0.01215%)
     Trial step:       0.583060292569
             Q1:  -11602.354023780324
 Quadratic coef:       0.060870455103
 Linear coef   :      -0.124848769271
           Qmin:  -11602.354063449768
Quadratic minimum step length (  0.597944929230) accepted
    Initial Ne1:    7233.99998674
      Final Ne1:    7234.00000000

=================== Penalty functional idempotency correction ==================
 RMS occupancy error at iteration   1:  0.000348 (step -0.4819 Ne1=   7234.0000)
 RMS occupancy error at iteration   2:  0.000003 (step -0.5000 Ne1=   7234.0000)
            Final RMS occupancy error   :  0.000000 (Ne1=   7234.0000)
               Final occupancy bounds   : [  0.0000,  1.0000]
================================================================================

    8        -1.160229004547E+04     7.0738E-05     6.3981E-05    -1.2179E-01
MG BCs: +ve charge blocks (gridpoints):     31997 (   17795613).
MG BCs: -ve charge blocks (gridpoints):      8418 (    1118439).
MG BCs:     Elided blocks (gridpoints):    183230 (  191789493).
MG BCs: Computational effort saved:  99.9808%.
MG BCs: Charge after coarse-graining:           -9.0010215.
MG DL_MG: Calling solver with defect correction order = 8
MG DL_MG: Solver finished
MG Hartree energy from (\int phi*rho dr):              1439.843621
MG Hartree energy from (\int eps (grad phi)^2 dr):     1439.201770
MG Discrepancy due to finite box and discretization:     -0.641850 (  -0.04458%)
MG Correction to account for finite box:                  0.466906
MG Remaining discrepancy, due to discretization:         -0.174945 (  -0.01215%)
      ideal mu1:      -0.767109845449
             Q0:  -11602.354203422554
             G0:      -0.104459100566
   RMS gradient:       0.000049282156
MG BCs: +ve charge blocks (gridpoints):     31997 (   17795396).
MG BCs: -ve charge blocks (gridpoints):      8414 (    1118479).
MG BCs:     Elided blocks (gridpoints):    183231 (  191789670).
MG BCs: Computational effort saved:  99.9808%.
MG BCs: Charge after coarse-graining:           -9.0010215.
MG DL_MG: Calling solver with defect correction order = 8
MG DL_MG: Solver finished
MG Hartree energy from (\int phi*rho dr):              1439.980806
MG Hartree energy from (\int eps (grad phi)^2 dr):     1439.338809
MG Discrepancy due to finite box and discretization:     -0.641996 (  -0.04458%)
MG Correction to account for finite box:                  0.467025
MG Remaining discrepancy, due to discretization:         -0.174972 (  -0.01215%)
     Trial step:       0.590455709920
             Q1:  -11602.390710093314
 Quadratic coef:       0.025171801622
 Linear coef   :      -0.061678472382
           Qmin:  -11602.391986116980
Quadratic minimum step length (  0.723396893543) accepted
    Initial Ne1:    7233.99999100
      Final Ne1:    7234.00000000

=================== Penalty functional idempotency correction ==================
 RMS occupancy error at iteration   1:  0.000653 (step -0.4638 Ne1=   7234.0000)
 RMS occupancy error at iteration   2:  0.000010 (step -0.4999 Ne1=   7234.0000)
            Final RMS occupancy error   :  0.000000 (Ne1=   7234.0000)
               Final occupancy bounds   : [ -0.0000,  1.0000]
================================================================================

    9        -1.160235420342E+04     4.9282E-05     4.4575E-05    -6.4158E-02
MG BCs: +ve charge blocks (gridpoints):     31997 (   17795365).
MG BCs: -ve charge blocks (gridpoints):      8416 (    1118455).
MG BCs:     Elided blocks (gridpoints):    183231 (  191789725).
MG BCs: Computational effort saved:  99.9808%.
MG BCs: Charge after coarse-graining:           -9.0010215.
MG DL_MG: Calling solver with defect correction order = 8
MG DL_MG: Solver finished
MG Hartree energy from (\int phi*rho dr):              1440.013112
MG Hartree energy from (\int eps (grad phi)^2 dr):     1439.371085
MG Discrepancy due to finite box and discretization:     -0.642027 (  -0.04458%)
MG Correction to account for finite box:                  0.467049
MG Remaining discrepancy, due to discretization:         -0.174978 (  -0.01215%)
      ideal mu1:      -0.766147366028
   10        -1.160239212086E+04     4.2792E-05     3.8704E-05    -3.7917E-02
Finished density kernel iterations (  10)

Writing density kernel to file "complex_37721.vacuum_dkn" ... done


>>> Density kernel optimised for the current NGWF basis:
     ~~~~~~~~~~~~~~~~~~~~~~~~~~~~~~~~~~~~~~~~~~~~~~~~~~~~~~~~~~~
     Total energy                =  -1.16023921208601E+04  Eh
     Estimated bandgap           =  -4.6104E-01  Eh
     RMS occupancy error         =   5.8296E-09
     [H,K] commutator            =   3.8704E-05
     Occupancy bounds            = [ -0.000:  1.000]
     ~~~~~~~~~~~~~~~~~~~~~~~~~~~~~~~~~~~~~~~~~~~~~~~~~~~~~~~~~~~




################################################################################
########################### NGWF CG iteration  001 #############################
################################################################################
****** Reciprocal space K.E. preconditioning with k_zero =  3.5000 a0^-1 *******

>>> Checking for convergence of NGWFs:   NOT CONVERGED
  ========================================================================
         NGWF RMS gradient =  1.5617E-03 >  2.0000E-06  | above tolerance
  ========================================================================

>>> Improving NGWFs using line search:
============ Calculation of NGWF S^-1 using Hotelling algorithm ================ 
         Iteration  |  Frobenius norm and Maximum abs value    (of I-S*S_n^-1)   
               1       0.19018516E+00     0.54248685E-02
               2       0.83188409E-03     0.44616602E-04
               3       0.27935828E-07     0.30688854E-08
               4       0.12742600E-12     0.66613381E-14
================================================================================
MG BCs: +ve charge blocks (gridpoints):     31444 (   17736390).
MG BCs: -ve charge blocks (gridpoints):      8410 (    1118529).
MG BCs:     Elided blocks (gridpoints):    183785 (  191848626).
MG BCs: Computational effort saved:  99.9811%.
MG BCs: Charge after coarse-graining:           -9.0010226.
MG DL_MG: Calling solver with defect correction order = 8
MG DL_MG: Solver finished
MG Hartree energy from (\int phi*rho dr):              1408.500451
MG Hartree energy from (\int eps (grad phi)^2 dr):     1407.859094
MG Discrepancy due to finite box and discretization:     -0.641357 (  -0.04553%)
MG Correction to account for finite box:                  0.466974
MG Remaining discrepancy, due to discretization:         -0.174383 (  -0.01238%)
============ Calculation of NGWF S^-1 using Hotelling algorithm ================ 
         Iteration  |  Frobenius norm and Maximum abs value    (of I-S*S_n^-1)   
               1       0.18470440E+01     0.44849374E-01
               2       0.70591791E-01     0.27793912E-02
               3       0.14112384E-03     0.12138688E-04
               4       0.12061054E-08     0.24125957E-09
               5       0.11167672E-12     0.59952043E-14
================================================================================
------------------------------- NGWF line search -------------------------------
RMS gradient                =       0.00156167538210
Trial step length           =               0.122474
Gradient along search dir.  =       -271.01501291088
Functional at step 0        =  -11602.39212086005136
Functional at step 1        =  -11633.10169283137657
Functional predicted        =  -11713.32671634902363
Selected quadratic step     =               0.818660
--------------------------- NGWF line search finished --------------------------
                                               
Writing NGWFs to file "complex_37721.vacuum_tightbox_ngwfs"....  done

>>> Optimising kernel for current NGWFs:
   Initial electron number for spin 1:    7268.26741429
     Final electron number for spin 1:    7234.00000000

=================== Penalty functional idempotency correction ==================
 RMS occupancy error at iteration   1:  0.004194 (step -0.4864 Ne1=   7234.0000)
 RMS occupancy error at iteration   2:  0.000068 (step -0.5003 Ne1=   7234.0000)
            Final RMS occupancy error   :  0.000000 (Ne1=   7234.0000)
               Final occupancy bounds   : [  0.0000,  1.0000]
================================================================================

................................................................................
<<<<<<<<<<<<<< LNV (Original version) density kernel optimisation >>>>>>>>>>>>>>
~~~~~~~~~~~~~~~~~~~~~~~~~~~~~~~~~~~~~~~~~~~~~~~~~~~~~~~~~~~~~~~~~~~~~~~~~~~~~~~~
   iter  |      energy (Eh)       | rms gradient |  commutator  |   dE (Eh)
MG BCs: +ve charge blocks (gridpoints):     25320 (   17440565).
MG BCs: -ve charge blocks (gridpoints):      8594 (    1102774).
MG BCs:     Elided blocks (gridpoints):    189912 (  192160206).
MG BCs: Computational effort saved:  99.9839%.
MG BCs: Charge after coarse-graining:           -9.0006798.
MG DL_MG: Calling solver with defect correction order = 8
MG DL_MG: Solver finished
MG Hartree energy from (\int phi*rho dr):              1251.940021
MG Hartree energy from (\int eps (grad phi)^2 dr):     1251.297989
MG Discrepancy due to finite box and discretization:     -0.642032 (  -0.05128%)
MG Correction to account for finite box:                  0.466635
MG Remaining discrepancy, due to discretization:         -0.175397 (  -0.01401%)
      ideal mu1:      -0.706608731014
             Q0:  -11712.505112765939
             G0:     -10.163091211907
   RMS gradient:       0.000487232210
MG BCs: +ve charge blocks (gridpoints):     25391 (   17454445).
MG BCs: -ve charge blocks (gridpoints):      8578 (    1100139).
MG BCs:     Elided blocks (gridpoints):    189841 (  192148961).
MG BCs: Computational effort saved:  99.9839%.
MG BCs: Charge after coarse-graining:           -9.0006761.
MG DL_MG: Calling solver with defect correction order = 8
MG DL_MG: Solver finished
MG Hartree energy from (\int phi*rho dr):              1265.109241
MG Hartree energy from (\int eps (grad phi)^2 dr):     1264.463244
MG Discrepancy due to finite box and discretization:     -0.645996 (  -0.05106%)
MG Correction to account for finite box:                  0.465348
MG Remaining discrepancy, due to discretization:         -0.180649 (  -0.01428%)
     Trial step:       0.653554761540
             Q1:  -11712.460476909531
 Quadratic coef:       6.686772509909
 Linear coef   :      -6.642136653502
           Qmin:  -11714.154562454052
Quadratic minimum step length (  0.324596061124) accepted
    Initial Ne1:    7233.99963095
      Final Ne1:    7234.00000000

=================== Penalty functional idempotency correction ==================
 RMS occupancy error at iteration   1:  0.000352 (step -0.4986 Ne1=   7234.0000)
 RMS occupancy error at iteration   2:  0.000000 (step -0.5000 Ne1=   7234.0000)
            Final RMS occupancy error   :  0.000000 (Ne1=   7234.0000)
               Final occupancy bounds   : [  0.0000,  1.0000]
================================================================================

    1        -1.171250511277E+04     4.8723E-04     4.4069E-04
MG BCs: +ve charge blocks (gridpoints):     25350 (   17447624).
MG BCs: -ve charge blocks (gridpoints):      8583 (    1101436).
MG BCs:     Elided blocks (gridpoints):    189882 (  192154485).
MG BCs: Computational effort saved:  99.9839%.
MG BCs: Charge after coarse-graining:           -9.0006779.
MG DL_MG: Calling solver with defect correction order = 8
MG DL_MG: Solver finished
MG Hartree energy from (\int phi*rho dr):              1257.634587
MG Hartree energy from (\int eps (grad phi)^2 dr):     1256.990683
MG Discrepancy due to finite box and discretization:     -0.643904 (  -0.05120%)
MG Correction to account for finite box:                  0.465966
MG Remaining discrepancy, due to discretization:         -0.177938 (  -0.01415%)
      ideal mu1:      -0.712423839246
             Q0:  -11714.134950271575
             G0:      -0.967008326634
   RMS gradient:       0.000150697078
MG BCs: +ve charge blocks (gridpoints):     25352 (   17447695).
MG BCs: -ve charge blocks (gridpoints):      8582 (    1102167).
MG BCs:     Elided blocks (gridpoints):    189880 (  192153683).
MG BCs: Computational effort saved:  99.9839%.
MG BCs: Charge after coarse-graining:           -9.0006777.
MG DL_MG: Calling solver with defect correction order = 8
MG DL_MG: Solver finished
MG Hartree energy from (\int phi*rho dr):              1258.729369
MG Hartree energy from (\int eps (grad phi)^2 dr):     1258.085314
MG Discrepancy due to finite box and discretization:     -0.644055 (  -0.05117%)
MG Correction to account for finite box:                  0.465762
MG Remaining discrepancy, due to discretization:         -0.178293 (  -0.01416%)
     Trial step:       0.460587995202
             Q1:  -11714.343027418596
 Quadratic coef:       0.237315279486
 Linear coef   :      -0.445392426508
           Qmin:  -11714.343927980490
Quadratic minimum step length (  0.432214910999) accepted
    Initial Ne1:    7233.99995298
      Final Ne1:    7234.00000000

=================== Penalty functional idempotency correction ==================
 RMS occupancy error at iteration   1:  0.000142 (step -0.4994 Ne1=   7234.0000)
            Final RMS occupancy error   :  0.000000 (Ne1=   7234.0000)
               Final occupancy bounds   : [ -0.0000,  1.0000]
================================================================================

    2        -1.171413495027E+04     1.5070E-04     1.3630E-04    -1.6298E+00
MG BCs: +ve charge blocks (gridpoints):     25352 (   17447706).
MG BCs: -ve charge blocks (gridpoints):      8582 (    1102134).
MG BCs:     Elided blocks (gridpoints):    189880 (  192153705).
MG BCs: Computational effort saved:  99.9839%.
MG BCs: Charge after coarse-graining:           -9.0006777.
MG DL_MG: Calling solver with defect correction order = 8
MG DL_MG: Solver finished
MG Hartree energy from (\int phi*rho dr):              1258.662078
MG Hartree energy from (\int eps (grad phi)^2 dr):     1258.018034
MG Discrepancy due to finite box and discretization:     -0.644045 (  -0.05117%)
MG Correction to account for finite box:                  0.465774
MG Remaining discrepancy, due to discretization:         -0.178270 (  -0.01416%)
      ideal mu1:      -0.713566135764
             Q0:  -11714.344331052969
             G0:      -0.156676565312
   RMS gradient:       0.000060433627
MG BCs: +ve charge blocks (gridpoints):     25349 (   17447244).
MG BCs: -ve charge blocks (gridpoints):      8581 (    1102422).
MG BCs:     Elided blocks (gridpoints):    189883 (  192153879).
MG BCs: Computational effort saved:  99.9839%.
MG BCs: Charge after coarse-graining:           -9.0006778.
MG DL_MG: Calling solver with defect correction order = 8
MG DL_MG: Solver finished
MG Hartree energy from (\int phi*rho dr):              1258.328346
MG Hartree energy from (\int eps (grad phi)^2 dr):     1257.684452
MG Discrepancy due to finite box and discretization:     -0.643894 (  -0.05117%)
MG Correction to account for finite box:                  0.465643
MG Remaining discrepancy, due to discretization:         -0.178250 (  -0.01417%)
     Trial step:       0.446175973528
             Q1:  -11714.392677056720
 Quadratic coef:       0.021559315306
 Linear coef   :      -0.069905319057
           Qmin:  -11714.400997435494
Quadratic minimum step length (  0.723354924359) accepted
    Initial Ne1:    7234.00087319
      Final Ne1:    7234.00000000

=================== Penalty functional idempotency correction ==================
 RMS occupancy error at iteration   1:  0.000110 (step -0.4966 Ne1=   7234.0000)
 RMS occupancy error at iteration   2:  0.000001 (step -0.5000 Ne1=   7234.0000)
            Final RMS occupancy error   :  0.000000 (Ne1=   7234.0000)
               Final occupancy bounds   : [  0.0000,  1.0000]
================================================================================

    3        -1.171434433105E+04     6.0434E-05     5.4661E-05    -2.0938E-01
MG BCs: +ve charge blocks (gridpoints):     25348 (   17446900).
MG BCs: -ve charge blocks (gridpoints):      8581 (    1102636).
MG BCs:     Elided blocks (gridpoints):    189884 (  192154009).
MG BCs: Computational effort saved:  99.9839%.
MG BCs: Charge after coarse-graining:           -9.0006778.
MG DL_MG: Calling solver with defect correction order = 8
MG DL_MG: Solver finished
MG Hartree energy from (\int phi*rho dr):              1258.121159
MG Hartree energy from (\int eps (grad phi)^2 dr):     1257.477361
MG Discrepancy due to finite box and discretization:     -0.643798 (  -0.05117%)
MG Correction to account for finite box:                  0.465559
MG Remaining discrepancy, due to discretization:         -0.178239 (  -0.01417%)
      ideal mu1:      -0.712890861877
             Q0:  -11714.401080768905
             G0:      -0.058055334067
   RMS gradient:       0.000036781822
MG BCs: +ve charge blocks (gridpoints):     25347 (   17446654).
MG BCs: -ve charge blocks (gridpoints):      8580 (    1102686).
MG BCs:     Elided blocks (gridpoints):    189885 (  192154205).
MG BCs: Computational effort saved:  99.9839%.
MG BCs: Charge after coarse-graining:           -9.0006779.
MG DL_MG: Calling solver with defect correction order = 8
MG DL_MG: Solver finished
MG Hartree energy from (\int phi*rho dr):              1258.018051
MG Hartree energy from (\int eps (grad phi)^2 dr):     1257.374478
MG Discrepancy due to finite box and discretization:     -0.643573 (  -0.05116%)
MG Correction to account for finite box:                  0.465460
MG Remaining discrepancy, due to discretization:         -0.178113 (  -0.01416%)
     Trial step:       0.568105261005
             Q1:  -11714.420780187007
 Quadratic coef:       0.013282122611
 Linear coef   :      -0.032981540713
           Qmin:  -11714.421555320670
Quadratic minimum step length (  0.705346101084) accepted
    Initial Ne1:    7234.00031534
      Final Ne1:    7234.00000000

=================== Penalty functional idempotency correction ==================
 RMS occupancy error at iteration   1:  0.000152 (step -0.4909 Ne1=   7234.0000)
 RMS occupancy error at iteration   2:  0.000001 (step -0.5000 Ne1=   7234.0000)
            Final RMS occupancy error   :  0.000000 (Ne1=   7234.0000)
               Final occupancy bounds   : [  0.0000,  1.0000]
================================================================================

    4        -1.171440108077E+04     3.6782E-05     3.3268E-05    -5.6750E-02
MG BCs: +ve charge blocks (gridpoints):     25347 (   17446635).
MG BCs: -ve charge blocks (gridpoints):      8580 (    1102677).
MG BCs:     Elided blocks (gridpoints):    189885 (  192154233).
MG BCs: Computational effort saved:  99.9839%.
MG BCs: Charge after coarse-graining:           -9.0006779.
MG DL_MG: Calling solver with defect correction order = 8
MG DL_MG: Solver finished
MG Hartree energy from (\int phi*rho dr):              1257.993703
MG Hartree energy from (\int eps (grad phi)^2 dr):     1257.350186
MG Discrepancy due to finite box and discretization:     -0.643517 (  -0.05115%)
MG Correction to account for finite box:                  0.465434
MG Remaining discrepancy, due to discretization:         -0.178083 (  -0.01416%)
      ideal mu1:      -0.713100292572
             Q0:  -11714.421535427915
             G0:      -0.047627938194
   RMS gradient:       0.000033373662
MG BCs: +ve charge blocks (gridpoints):     25348 (   17447645).
MG BCs: -ve charge blocks (gridpoints):      8580 (    1102304).
MG BCs:     Elided blocks (gridpoints):    189884 (  192153596).
MG BCs: Computational effort saved:  99.9839%.
MG BCs: Charge after coarse-graining:           -9.0006777.
MG DL_MG: Calling solver with defect correction order = 8
MG DL_MG: Solver finished
MG Hartree energy from (\int phi*rho dr):              1258.643151
MG Hartree energy from (\int eps (grad phi)^2 dr):     1257.999909
MG Discrepancy due to finite box and discretization:     -0.643243 (  -0.05111%)
MG Correction to account for finite box:                  0.465221
MG Remaining discrepancy, due to discretization:         -0.178021 (  -0.01414%)
     Trial step:       0.633017243727
             Q1:  -11714.441655647475
 Quadratic coef:       0.010029086599
 Linear coef   :      -0.030149306160
           Qmin:  -11714.444194038271
Quadratic minimum step length (  0.951483990926) accepted
    Initial Ne1:    7234.00035004
      Final Ne1:    7234.00000000

=================== Penalty functional idempotency correction ==================
 RMS occupancy error at iteration   1:  0.000632 (step -0.4612 Ne1=   7234.0000)
 RMS occupancy error at iteration   2:  0.000012 (step -0.4996 Ne1=   7234.0000)
            Final RMS occupancy error   :  0.000000 (Ne1=   7234.0000)
               Final occupancy bounds   : [ -0.0000,  1.0000]
================================================================================

    5        -1.171442153543E+04     3.3374E-05     3.0186E-05    -2.0455E-02
MG BCs: +ve charge blocks (gridpoints):     25348 (   17448204).
MG BCs: -ve charge blocks (gridpoints):      8579 (    1102092).
MG BCs:     Elided blocks (gridpoints):    189884 (  192153249).
MG BCs: Computational effort saved:  99.9839%.
MG BCs: Charge after coarse-graining:           -9.0006775.
MG DL_MG: Calling solver with defect correction order = 8
MG DL_MG: Solver finished
MG Hartree energy from (\int phi*rho dr):              1258.971153
MG Hartree energy from (\int eps (grad phi)^2 dr):     1258.328057
MG Discrepancy due to finite box and discretization:     -0.643097 (  -0.05108%)
MG Correction to account for finite box:                  0.465106
MG Remaining discrepancy, due to discretization:         -0.177991 (  -0.01414%)
      ideal mu1:      -0.714260287378
             Q0:  -11714.443782287301
             G0:      -0.056145699373
   RMS gradient:       0.000036470942
MG BCs: +ve charge blocks (gridpoints):     25346 (   17448217).
MG BCs: -ve charge blocks (gridpoints):      8580 (    1102194).
MG BCs:     Elided blocks (gridpoints):    189886 (  192153134).
MG BCs: Computational effort saved:  99.9839%.
MG BCs: Charge after coarse-graining:           -9.0006775.
MG DL_MG: Calling solver with defect correction order = 8
MG DL_MG: Solver finished
MG Hartree energy from (\int phi*rho dr):              1258.873434
MG Hartree energy from (\int eps (grad phi)^2 dr):     1258.230869
MG Discrepancy due to finite box and discretization:     -0.642565 (  -0.05104%)
MG Correction to account for finite box:                  0.464581
MG Remaining discrepancy, due to discretization:         -0.177983 (  -0.01414%)
     Trial step:       0.776083612368
             Q1:  -11714.471848065034
 Quadratic coef:       0.015507979455
 Linear coef   :      -0.043573757189
           Qmin:  -11714.474390277224
Quadratic minimum step length (  1.090305767481) accepted
    Initial Ne1:    7234.00060339
      Final Ne1:    7234.00000000

=================== Penalty functional idempotency correction ==================
 RMS occupancy error at iteration   1:  0.002515 (step -0.3748 Ne1=   7234.0000)
 RMS occupancy error at iteration   2:  0.000137 (step -0.4937 Ne1=   7234.0000)
 RMS occupancy error at iteration   3:  0.000002 (step -0.5000 Ne1=   7234.0000)
            Final RMS occupancy error   :  0.000000 (Ne1=   7234.0000)
               Final occupancy bounds   : [  0.0000,  1.0000]
================================================================================

    6        -1.171444378229E+04     3.6471E-05     3.2987E-05    -2.2247E-02
MG BCs: +ve charge blocks (gridpoints):     25347 (   17448252).
MG BCs: -ve charge blocks (gridpoints):      8580 (    1102191).
MG BCs:     Elided blocks (gridpoints):    189885 (  192153102).
MG BCs: Computational effort saved:  99.9839%.
MG BCs: Charge after coarse-graining:           -9.0006775.
MG DL_MG: Calling solver with defect correction order = 8
MG DL_MG: Solver finished
MG Hartree energy from (\int phi*rho dr):              1258.838355
MG Hartree energy from (\int eps (grad phi)^2 dr):     1258.195959
MG Discrepancy due to finite box and discretization:     -0.642396 (  -0.05103%)
MG Correction to account for finite box:                  0.464416
MG Remaining discrepancy, due to discretization:         -0.177980 (  -0.01414%)
      ideal mu1:      -0.714570923848
             Q0:  -11714.473435214371
             G0:      -0.068242638655
   RMS gradient:       0.000039925557
MG BCs: +ve charge blocks (gridpoints):     25344 (   17446360).
MG BCs: -ve charge blocks (gridpoints):      8580 (    1102856).
MG BCs:     Elided blocks (gridpoints):    189888 (  192154329).
MG BCs: Computational effort saved:  99.9839%.
MG BCs: Charge after coarse-graining:           -9.0006779.
MG DL_MG: Calling solver with defect correction order = 8
MG DL_MG: Solver finished
MG Hartree energy from (\int phi*rho dr):              1257.700843
MG Hartree energy from (\int eps (grad phi)^2 dr):     1257.058357
MG Discrepancy due to finite box and discretization:     -0.642485 (  -0.05108%)
MG Correction to account for finite box:                  0.464419
MG Remaining discrepancy, due to discretization:         -0.178066 (  -0.01416%)
     Trial step:       0.919874142811
             Q1:  -11714.491384505993
 Quadratic coef:       0.044825347115
 Linear coef   :      -0.062774638736
           Qmin:  -11714.495413043447
Quadratic minimum step length (  0.644108419838) accepted
    Initial Ne1:    7233.99999964
      Final Ne1:    7234.00000000

=================== Penalty functional idempotency correction ==================
 RMS occupancy error at iteration   1:  0.000035 (step -0.4979 Ne1=   7234.0000)
            Final RMS occupancy error   :  0.000000 (Ne1=   7234.0000)
               Final occupancy bounds   : [ -0.0000,  1.0000]
================================================================================

    7        -1.171447343521E+04     3.9926E-05     3.6112E-05    -2.9653E-02
MG BCs: +ve charge blocks (gridpoints):     25345 (   17446921).
MG BCs: -ve charge blocks (gridpoints):      8580 (    1102635).
MG BCs:     Elided blocks (gridpoints):    189887 (  192153989).
MG BCs: Computational effort saved:  99.9839%.
MG BCs: Charge after coarse-graining:           -9.0006778.
MG DL_MG: Calling solver with defect correction order = 8
MG DL_MG: Solver finished
MG Hartree energy from (\int phi*rho dr):              1258.039713
MG Hartree energy from (\int eps (grad phi)^2 dr):     1257.397253
MG Discrepancy due to finite box and discretization:     -0.642461 (  -0.05107%)
MG Correction to account for finite box:                  0.464421
MG Remaining discrepancy, due to discretization:         -0.178040 (  -0.01415%)
      ideal mu1:      -0.713660895022
             Q0:  -11714.495419595274
             G0:      -0.056370489685
   RMS gradient:       0.000036279046
MG BCs: +ve charge blocks (gridpoints):     25345 (   17446855).
MG BCs: -ve charge blocks (gridpoints):      8581 (    1102656).
MG BCs:     Elided blocks (gridpoints):    189887 (  192154034).
MG BCs: Computational effort saved:  99.9839%.
MG BCs: Charge after coarse-graining:           -9.0006778.
MG DL_MG: Calling solver with defect correction order = 8
MG DL_MG: Solver finished
MG Hartree energy from (\int phi*rho dr):              1257.758945
MG Hartree energy from (\int eps (grad phi)^2 dr):     1257.116562
MG Discrepancy due to finite box and discretization:     -0.642383 (  -0.05107%)
MG Correction to account for finite box:                  0.464263
MG Remaining discrepancy, due to discretization:         -0.178120 (  -0.01416%)
     Trial step:       0.769739358859
             Q1:  -11714.522521089879
 Quadratic coef:       0.016289089983
 Linear coef   :      -0.043390584588
           Qmin:  -11714.524315359753
Quadratic minimum step length (  1.025208921947) accepted
    Initial Ne1:    7234.00086402
      Final Ne1:    7234.00000000

[...]
MG Discrepancy due to finite box and discretization:     -0.183310 (  -0.01507%)
MG Correction to account for finite box:                  0.006233
MG Remaining discrepancy, due to discretization:         -0.177077 (  -0.01456%)
     Trial step:       0.908956487609
             Q1:  -11749.409163194825
 Quadratic coef:       0.000000013702
 Linear coef   :      -0.000000017545
           Qmin:  -11749.409163196600
Quadratic minimum step length (  0.581919629221) accepted
    Initial Ne1:    7234.00000000
      Final Ne1:    7234.00000000

=================== Penalty functional idempotency correction ==================
 RMS occupancy error at iteration   1:  0.000000 (step -0.5000 Ne1=   7234.0000)
            Final RMS occupancy error   :  0.000000 (Ne1=   7234.0000)
               Final occupancy bounds   : [  0.0000,  1.0000]
================================================================================

    7        -1.174940916319E+04     2.1234E-08     1.9205E-08    -1.0361E-08

Reusing previously generated solute cavity.
MG BCs: +ve charge blocks (gridpoints):     29660 (   19689736).
MG BCs: -ve charge blocks (gridpoints):      8560 (    1071075).
MG BCs:     Elided blocks (gridpoints):    185572 (  189942734).
MG BCs: Computational effort saved:  99.9819%.
MG BCs: Charge after coarse-graining:           -9.0009801.
MG DL_MG: Calling solver with defect correction order = 8
MG DL_MG: Solver finished
MG Hartree energy from (\int phi*rho dr):              1216.082767
MG Hartree energy from (\int eps (grad phi)^2 dr):     1215.899457
MG Discrepancy due to finite box and discretization:     -0.183310 (  -0.01507%)
MG Correction to account for finite box:                  0.006233
MG Remaining discrepancy, due to discretization:         -0.177077 (  -0.01456%)
      ideal mu1:      -0.481026480323
             Q0:  -11749.409163197153
             G0:      -0.000000007228
   RMS gradient:       0.000000014380

Reusing previously generated solute cavity.
MG BCs: +ve charge blocks (gridpoints):     29660 (   19689737).
MG BCs: -ve charge blocks (gridpoints):      8560 (    1071075).
MG BCs:     Elided blocks (gridpoints):    185572 (  189942733).
MG BCs: Computational effort saved:  99.9819%.
MG BCs: Charge after coarse-graining:           -9.0009801.
MG DL_MG: Calling solver with defect correction order = 8
MG DL_MG: Solver finished
MG Hartree energy from (\int phi*rho dr):              1216.082812
MG Hartree energy from (\int eps (grad phi)^2 dr):     1215.899503
MG Discrepancy due to finite box and discretization:     -0.183310 (  -0.01507%)
MG Correction to account for finite box:                  0.006233
MG Remaining discrepancy, due to discretization:         -0.177077 (  -0.01456%)
     Trial step:       0.727282353868
             Q1:  -11749.409163199482
 Quadratic coef:       0.000000002929
 Linear coef   :      -0.000000005257
           Qmin:  -11749.409163199512
Quadratic minimum step length (  0.652734030369) accepted
    Initial Ne1:    7234.00000000
      Final Ne1:    7234.00000000

=================== Penalty functional idempotency correction ==================
 RMS occupancy error at iteration   1:  0.000000 (step -0.5000 Ne1=   7234.0000)
            Final RMS occupancy error   :  0.000000 (Ne1=   7234.0000)
               Final occupancy bounds   : [  0.0000,  1.0000]
================================================================================

    8        -1.174940916320E+04     1.4380E-08     1.3006E-08    -6.1700E-09

Reusing previously generated solute cavity.
MG BCs: +ve charge blocks (gridpoints):     29660 (   19689736).
MG BCs: -ve charge blocks (gridpoints):      8560 (    1071075).
MG BCs:     Elided blocks (gridpoints):    185572 (  189942734).
MG BCs: Computational effort saved:  99.9819%.
MG BCs: Charge after coarse-graining:           -9.0009801.
MG DL_MG: Calling solver with defect correction order = 8
MG DL_MG: Solver finished
MG Hartree energy from (\int phi*rho dr):              1216.082808
MG Hartree energy from (\int eps (grad phi)^2 dr):     1215.899498
MG Discrepancy due to finite box and discretization:     -0.183310 (  -0.01507%)
MG Correction to account for finite box:                  0.006233
MG Remaining discrepancy, due to discretization:         -0.177077 (  -0.01456%)
      ideal mu1:      -0.481026484153
             Q0:  -11749.409163199482
             G0:      -0.000000004445
   RMS gradient:       0.000000009315

Reusing previously generated solute cavity.
MG BCs: +ve charge blocks (gridpoints):     29660 (   19689737).
MG BCs: -ve charge blocks (gridpoints):      8560 (    1071075).
MG BCs:     Elided blocks (gridpoints):    185572 (  189942733).
MG BCs: Computational effort saved:  99.9819%.
MG BCs: Charge after coarse-graining:           -9.0009801.
MG DL_MG: Calling solver with defect correction order = 8
MG DL_MG: Solver finished
MG Hartree energy from (\int phi*rho dr):              1216.082725
MG Hartree energy from (\int eps (grad phi)^2 dr):     1215.899416
MG Discrepancy due to finite box and discretization:     -0.183310 (  -0.01507%)
MG Correction to account for finite box:                  0.006233
MG Remaining discrepancy, due to discretization:         -0.177077 (  -0.01456%)
     Trial step:       0.689000683640
             Q1:  -11749.409163202159
 Quadratic coef:       0.000000000386
 Linear coef   :      -0.000000003062
           Qmin:  -11749.409163205562
Quadratic minimum step length (  2.735849858401) accepted
    Initial Ne1:    7234.00000000
      Final Ne1:    7234.00000000

=================== Penalty functional idempotency correction ==================
 RMS occupancy error at iteration   1:  0.000000 (step -0.5000 Ne1=   7234.0000)
            Final RMS occupancy error   :  0.000000 (Ne1=   7234.0000)
               Final occupancy bounds   : [  0.0000,  1.0000]
================================================================================

    9        -1.174940916320E+04     9.3149E-09     8.4251E-09    -2.3283E-09

Reusing previously generated solute cavity.
MG BCs: +ve charge blocks (gridpoints):     29660 (   19689738).
MG BCs: -ve charge blocks (gridpoints):      8560 (    1071078).
MG BCs:     Elided blocks (gridpoints):    185572 (  189942729).
MG BCs: Computational effort saved:  99.9819%.
MG BCs: Charge after coarse-graining:           -9.0009801.
MG DL_MG: Calling solver with defect correction order = 8
MG DL_MG: Solver finished
MG Hartree energy from (\int phi*rho dr):              1216.082481
MG Hartree energy from (\int eps (grad phi)^2 dr):     1215.899171
MG Discrepancy due to finite box and discretization:     -0.183310 (  -0.01507%)
MG Correction to account for finite box:                  0.006233
MG Remaining discrepancy, due to discretization:         -0.177077 (  -0.01456%)
      ideal mu1:      -0.481026309207
   10        -1.174940916320E+04     3.3452E-08     3.0257E-08     2.0955E-09
Finished density kernel iterations (  10)

Writing density kernel to file "complex_37721.dkn" ... done


>>> Density kernel optimised for the current NGWF basis:
     ~~~~~~~~~~~~~~~~~~~~~~~~~~~~~~~~~~~~~~~~~~~~~~~~~~~~~~~~~~~
     Total energy                =  -1.17494091631974E+04  Eh
     Estimated bandgap           =   5.2412E-02  Eh
     RMS occupancy error         =   3.3990E-16
     [H,K] commutator            =   3.0257E-08
     Occupancy bounds            = [  0.000:  1.000]
     ~~~~~~~~~~~~~~~~~~~~~~~~~~~~~~~~~~~~~~~~~~~~~~~~~~~~~~~~~~~




################################################################################
########################### NGWF CG iteration  004 #############################
################################################################################
****** Reciprocal space K.E. preconditioning with k_zero =  3.5000 a0^-1 *******

>>> Checking for convergence of NGWFs: 
           ........................................................
           |         *** NGWF optimisation converged ***          |
           | RMS NGWF gradient =    0.00000190343539              |
           | Criteria satisfied:                                  |
           | -> RMS NGWF gradient lower than set threshold.       |
           ========================================================

Reusing previously generated solute cavity.
MG BCs: +ve charge blocks (gridpoints):     29660 (   19689738).
MG BCs: -ve charge blocks (gridpoints):      8560 (    1071078).
MG BCs:     Elided blocks (gridpoints):    185572 (  189942729).
MG BCs: Computational effort saved:  99.9819%.
MG BCs: Charge after coarse-graining:           -9.0009801.
MG DL_MG: Calling solver with defect correction order = 8
MG DL_MG: Solver finished
MG Hartree energy from (\int phi*rho dr):              1216.082481
MG Hartree energy from (\int eps (grad phi)^2 dr):     1215.899171
MG Discrepancy due to finite box and discretization:     -0.183310 (  -0.01507%)
MG Correction to account for finite box:                  0.006233
MG Remaining discrepancy, due to discretization:         -0.177077 (  -0.01456%)

================================================================================
           ---------------- ENERGY COMPONENTS (Eh) ----------------
           | Kinetic                    :     8581.79488223156841 |
           | Pseudo. (local,OBC,corr'd) :    -5083.29132444842344 |
           | Pseudopotential (non-local):     1411.23057333646966 |
           | Hartree (molecular)        :     1216.08248111518651 |
           | Exchange-correlation       :    -3377.04390240584371 |
           | Ion-ion (open BC)          :   831051.94714989280328 |
           | Dispersion Correction      :       -3.21056929963466 |
           | Smeared ion non-self corr. :  -831003.65985012776218 |
           | Smeared ion self corr.     :   -14543.93950988473262 |
           | Solvent cavitation energy  :        2.42250784634692 |
           | Solute-solvent dis-rep en. :       -1.74160145343496 |
           | Total                      :   -11749.40916319744974 |
           --------------------------------------------------------
           ------ LOCAL ENERGY COMPONENTS FROM MATRIX TRACES ------
           | Pseudopotential (local)    :    -5083.29132444843071 |
           | Hartree                    :    -2001.47736292202103 |
           --------------------------------------------------------
           Integrated density           :     7233.99999999887314
           Integrated density tr(KS)    :     7234.00000000000000
================================================================================


                        <<<<< CALCULATION SUMMARY >>>>>                         
|ITER|    RMS GRADIENT   |     TOTAL ENERGY    |   step   |     Epredicted              
   0     0.00004262059746 -11749.33224746922497   0.657646 -11749.39862375156190        
   1     0.00000881356740 -11749.40877728094347   0.069969 -11749.40907927170701        
   2     0.00000404967631 -11749.40914865478408   0.013989 -11749.40916140187619        
   3     0.00000190343539 -11749.40916319738608  <-- CG                                 

=================== Finished the calculation in solvent ========================
= Adjusting the following parameters: 
= read_denskern: F
= read_tightbox_ngwfs: F
= maxit_pen: 0 (restored to user-specified value)
= restart read filename prefix: ""
= restart write filename prefix: ""
================================================================================

================================================================================
IS: Calculation in solvent completed (NGWFs converged).      

Individual components of total energy in solvent:     hartree           kcal/mol
- Usual non-electrostatic DFT terms:    -12966.17255070548526    -8136395.941385
- Electrostatic fixed charge energy:      1216.08248111518651      763103.261586
- Apolar cavitation energy:                  2.42250784634692        1520.146592
- Apolar dispersion-repulsion energy:       -1.74160145343496       -1092.871388
 -------------------------------------------------------------------------------
- Total energy in solvent:              -11749.40916319738608    -7372865.404595

Components of total energy in solvent:                hartree           kcal/mol
- Usual non-electrostatic DFT terms:    -12966.17255070548526    -8136395.941385
- Electrostatic energy:                   1216.08248111518651      763103.261586
- Apolar energy terms:                       0.68090639291196         427.275203
 -------------------------------------------------------------------------------
- Total energy in solvent:              -11749.40916319738608    -7372865.404595

Calculation of free energy of solvation:              hartree           kcal/mol
- Total energy in solvent:         (+)  -11749.40916319738608    -7372865.404595
- Total energy in vacuum:          (-)  -11745.32412210886832    -7370302.002666
 -------------------------------------------------------------------------------
- Total free energy of solvation:           -4.08504108851776       -2563.401929

Components of polar term in f.e. of solvation:        hartree           kcal/mol
- Electrostatic:                            -4.85114416048805       -3044.138855
- Change in nonelectrostatic DFT terms:      0.08519667905784          53.461722
 -------------------------------------------------------------------------------
- Polar term in f.e. of solvation:          -4.76594748143020       -2990.677133

Components of free energy of solvation:               hartree           kcal/mol
- Polar term in f.e. of solvation: (+)      -4.76594748143020       -2990.677133
- Apolar (cavitation, dis., rep.): (+)       0.68090639291196         427.275203
 -------------------------------------------------------------------------------
- Total free energy of solvation:           -4.08504108851824       -2563.401929
================================================================================


------------------------------ TIMING INFORMATION ------------------------------
AVERAGE TIME:   31731.899s on     60 node(s)                                    
TOTAL TIME:     31731.900s on     60 node(s)                                    
================= AVERAGE TIMINGS FROM ALL NODES (CUMULATIVE) ==================
|| TAG                                    #calls    cpu time   %total  Gflops ||
|| work_imbalance                       :     1        0.00s   0.000%  ------ ||
|| sparse_set_to_garbage                :   164        0.03s   0.000%  ------ ||
|| parallel_prepare_fd_halos_request    :  1821        0.03s   0.000%  ------ ||
|| parallel_prepare_fd_halos_alloc      :  1821        0.09s   0.000%  ------ ||
|| ngwfs_initialise_from_radial         :     1        0.11s   0.000%  ------ ||
|| basis_extract_function_from_box      :  3380        0.15s   0.000%  ------ ||
|| parallel_prepare_fd_halos_satisfy    :  1821        0.57s   0.002%  ------ ||
|| pseudopotentials_nonlocal_mat        :    28        0.93s   0.003%  ------ ||
|| density_init_guess_real              :     1        3.50s   0.011%  ------ ||
|| openbc_locps_radial                  :     1        4.66s   0.015%  ------ ||
|| restart_ngwfs_tightbox_input         :     1        7.21s   0.023%  ------ ||
|| restart_kernel_read                  :     1        7.40s   0.023%  ------ ||
|| parallel_prepare_fd_halos_comms_imbal:  1821       10.04s   0.032%  ------ ||
|| parallel_prepare_fd_halos_clear      :  1821       19.57s   0.062%  ------ ||
|| sparse_init                          :     2       23.30s   0.073%  ------ ||
|| projectors_func_ovlp_box             :    28       26.73s   0.084%  ------ ||
|| projectors_init_fftbox_recip         :   133       27.62s   0.087%  ------ ||
|| parallel_prepare_fd_halos_comms_wait :  1821       27.81s   0.088%  ------ ||
|| function_ops_brappd_ketppd           :    28       27.98s   0.088%  ------ ||
|| palser_mano_kernel_optimise          :     1       30.75s   0.097%  ------ ||
|| basis_copy_function_to_box           : 54743       42.48s   0.134%  ------ ||
|| ngwf_gradient_coeffs                 :    15       44.68s   0.141%  ------ ||
|| fourier_apply_box_pair               :  4811       53.05s   0.167% 595.703 ||
|| parallel_prepare_fd_halos            :  1821       58.13s   0.183%  ------ ||
|| pseudo_make_structure_factor         :     2       60.28s   0.190%  ------ ||
|| sparse_embed_hotelling_invert_embed  :    28       70.90s   0.223%  ------ ||
|| restart_kernel_write                 :    16      105.55s   0.333%  ------ ||
|| finite_difference_derivative         :  1821      139.76s   0.440%  ------ ||
|| integrals_kinetic                    :    28      143.51s   0.452%  ------ ||
|| projectors_gradient_batch            :   105      149.59s   0.471%  ------ ||
|| basis_dot_function_with_box          : 8.211M     154.79s   0.488%  ------ ||
|| fourier_apply_cell_backward          :  1215      174.04s   0.548% 104.235 ||
|| sparse_trace                         :  5213      181.10s   0.571%  ------ ||
|| fourier_apply_cell_forward           :  1213      208.28s   0.656%  86.959 ||
|| kernel_purify                        :   463      272.08s   0.857%  ------ ||
|| openbc_locps_on_grid                 :     2      287.83s   0.907%  ------ ||
|| basis_add_function_to_box            : 17.03M     373.42s   1.177%  ------ ||
|| lnv_gradient_norm                    :   150      403.27s   1.271%  ------ ||
|| xc_energy_potential                  :   303      446.75s   1.408%  ------ ||
|| hamiltonian_energy_components        :     4      530.82s   1.673%  ------ ||
|| kernel_fix                           :   150      537.88s   1.695%  ------ ||
|| integrals_locpot_mat_els_batch       :  1113      709.41s   2.236%  ------ ||
|| ngwf_gradient_build_batch            :   105      803.86s   2.533%  ------ ||
|| ngwf_gradient_batch                  :   105     1105.48s   3.484%  ------ ||
|| density_batch_row_sums               :  2114     1131.80s   3.567%  ------ ||
|| restart_ngwfs_tightbox_output        :    13     1195.95s   3.769%  ------ ||
|| cell_grid_deposit_box_real           : 35084     1257.64s   3.963%  ------ ||
|| ngwf_gradient_lnv                    :    15     1260.03s   3.971%  ------ ||
|| sparse_product                       :  6384     1753.32s   5.525%  ------ ||
|| cell_grid_extract_box_real           : 38532     1930.16s   6.083%  ------ ||
|| density_fftbox_deposit_to_cell       : 33220     1983.12s   6.250%  ------ ||
|| potential_apply_to_ngwf_batch        :  1113     3837.55s  12.094%  ------ ||
|| density_fftbox_interpolate_multiply  : 33220     3858.29s  12.159%  ------ ||
|| integrals_locpot_dbl_grid            :   159     4567.28s  14.393%  ------ ||
|| fourier_apply_box                    : 114.5k    4632.72s  14.600% 786.227 ||
|| multigrid_prepare_bound_cond         :   303     4779.40s  15.062%  ------ ||
|| density_batch_interp_deposit         :  2114     6854.33s  21.601%  ------ ||
|| dl_mg_solver_calls                   :   303     7340.93s  23.134%  ------ ||
|| density_on_dbl_grid                  :   302     8415.83s  26.522%  ------ ||
|| multigrid_calculate_hartree          :   303    12311.45s  38.798%  ------ ||
|| hamiltonian_lhxc_calculate           :   298    21088.31s  66.458%  ------ ||
|| lnv_denskernel_optimise_cg           :    15    26449.05s  83.352%  ------ ||
|| ngwf_cg_optimise                     :     2    30725.62s  96.829%  ------ ||
|| total_time                           :     1    31731.90s 100.000%  ------ ||
================================================================================
Overhead of generating timer report: 
- 0 ms averaging over threads,
- 15 ms ensuring consistency across MPI ranks,
- 0 ms printing in order.

Job completed: 30-03-2020 15:32 (+0100)

Application 40013357 resources: utime ~6462302s, stime ~319849s, Rss ~4213724, inblocks ~310329425, outblocks ~64544951
