 +---------------------------------------------------------------+
 |                                                               |
 |        ####### #     # ####### ####### ####### ######         |
 |        #     # ##    # #          #    #       #     #        |
 |        #     # # #   # #          #    #       #     #        |
 |        #     # #  #  # #####      #    #####   ######         |
 |        #     # #   # # #          #    #       #              |
 |        #     # #    ## #          #    #       #              |
 |        ####### #     # #######    #    ####### #              |
 |                                                               |
 |        Linear-Scaling Ab Initio Total Energy Program          |
 |                                                               |
 |          Release for academic collaborators of ODG            |
 |                                             Version 5.3.2.6.  |
 |                                                               |
 +---------------------------------------------------------------+
 |                                                               |
 |  Authors:                                                     |
 |  Jacek Dziedzic, Peter D. Haynes, Nicholas D. M. Hine,        |
 |  Arash. A. Mostofi, Mike C. Payne and Chris-Kriton Skylaris   |
 |                                                               |
 |  Contributors:                                                |
 |  J. Aarons, L. Andrinopoulos, P. W. Avraam, R. A. Bell,       |
 |  A. Bhandari, G. A. Bramley, R. J. Charlton, S. J. Clark,     |
 |  R. J. Clements, G. C. Constantinescu, F. Corsetti,           |
 |  N. Corsini, O. Dieguez, S. M. M. Dubois, K. K. B. Duff,      |
 |  J. M. Escartin, A. Greco, H. Helal, Q. O. Hill, L. P. Lee,   |
 |  J.-H. Li, E. B. Linscott, G. Moynihan, D. D. O`Regan,        |
 |  O. K. Okan, M. J. S. Phipps, C. J. Pickard,                  |
 |  J. C. A. Prentice, M. I. J. Probert, L. E. Ratcliff,         |
 |  M. Robinson, A. Ruiz Serrano, J. S. Spencer, E. W. Tait,     |
 |  G. Teobaldi, D. Turban, V. Vitale, K. A. Wilkinson,          |
 |  C. Weber, J. C. Womack, N. Yeung and T. J. Zuehlsdorff       |
 |                                                               |
 |                                   Copyright (c) 2004-2019     |
 |                                                               |
 |  Please cite:                                                 |
 |  "Introducing ONETEP: Linear-scaling density functional       |
 |   simulations on parallel computers".                         |
 |   C.-K. Skylaris, P. D. Haynes, A. A. Mostofi, M. C. Payne.   |
 |   J. Chem. Phys. 122 084119 (2005).                           |
 |                                                               |
 |          in all publications arising from your use of ONETEP. |
 |                                                               |
 +---------------------------------------------------------------+
 |                                                               |
 |   ONETEP is based on developments described in the following  |
 |   publications:                                               |
 |                                                               |
 |  "Nonorthogonal generalized Wannier function pseudopotential  |
 |   plane-wave method".                                         |
 |   C.-K. Skylaris, A. A. Mostofi, P. D. Haynes, O. Dieguez,    |
 |   M. C. Payne.                                                |
 |   Phys. Rev. B 66 035119 (2002).                              |
 |                                                               |
 |  "Preconditioned iterative minimization for linear-scaling    |
 |   electronic structure calculations".                         |
 |   A. A. Mostofi, P. D. Haynes, C.-K. Skylaris, M. C. Payne.   |
 |   J. Chem. Phys. 119(17), pp.8842-8848 (2003).                |
 |                                                               |
 |  "Total-energy calculations on a real space grid with         |
 |   localized functions and a plane-wave basis".                |
 |   A. A. Mostofi, C.-K. Skylaris, P. D. Haynes, M. C. Payne.   |
 |   Comput. Phys. Commun. 147, pp.788-802 (2002).               |
 |                                                               |
 |  "Accurate kinetic energy evaluation in electronic structure  |
 |   calculations with localized functions on real space grids"  |
 |   C.-K. Skylaris, A. A. Mostofi, P. D. Haynes, C. J. Pickard, |
 |   M. C. Payne.                                                |
 |   Comput. Phys. Commun. 140, pp.315-322 (2001).               |
 |                                                               |
 |  "Accurate ionic forces and geometry optimization in linear-  |
 |   scaling density-functional theory with local orbitals"      |
 |   N. D. M. Hine, M. Robinson, P. D. Haynes, C.-K. Skylaris,   |
 |   M. C. Payne, and A. A. Mostofi.                             |
 |   Phys. Rev. B 83 195102 (2011).                              |
 |                                                               |
 +---------------------------------------------------------------+

Job started: 04-05-2020 16:37 (+0100)
 
Reading parameters from file "complex_12261.dat" ...... done

If your calculation crashes here, before "Checking processes and threads..."
is displayed, then your stack size is insufficient.
If so, use "ulimit -s unlimited" at runtime.
You can disable this check with "check_stack_size F".

Checking processes and threads...
   Determining the default number of threads...
      No default threads set at compilation time: defaulting to 1.
      OpenMP library call suggests 4 threads.
      Hybrid MPI-OpenMP compilation detected.
      Number of MPI processes > 1.
      OMP_NUM_THREADS environment variable present and
      its value matches the one obtained from the OpenMP library call.
      Using this value as default.
      Default threads: 4
      Default applies to threads_max and threads_num_fftboxes.
      Settings in the input file override this default.
   ... done

   Running with 60 MPI processes.
   There are 6 MPI processes running on the same node as the root process.
   Each MPI process is using: 
               1 threads for simulation cell FFTs.
               1 threads for parallel FFT box operations.
               4 threads for loops over batched FFT box operations.
               4 threads in other parallel regions.
... done

Basic input checks...... done

Reading geometry and species blocks from file "complex_12261.dat" ...
  <species_atomic_set> block not found: NGWF initialisation set to SOLVE
IS: Dielectric excluded regions:
    - NONE.
    
  Number of PPD points along a3 set to 1.  This is 
  the default value, it may have been provided also in the input file.
... done
 Writing xyz coordinates to file "complex_12261.xyz" ... done


--------------------------------------------------------------------------------
---------------------------------- INPUT FILE ----------------------------------
--------------------------------------------------------------------------------

cutoff_energy       : 800 eV                                                    
xc_functional PBE                                                               
task SINGLEPOINT                                                                
write_xyz true                                                                  
output_detail VERBOSE                                                           
ngwf_threshold_orig : 0.000002                                                  
kernel_cutoff       : 1000                                                      
k_zero              : 3.5                                                       
elec_cg_max 0                                                                   
occ_mix 1.0                                                                     
dispersion 1                                                                    
maxit_ngwf_cg 40                                                                
minit_lnv 10                                                                    
maxit_lnv 10                                                                    
write_denskern T                                                                
write_tightbox_ngwfs T                                                          
charge 9                                                                        
is_implicit_solvent T                                                           
is_auto_solvation T                                                             
is_include_apolar T                                                             
is_smeared_ion_rep T                                                            
is_solvent_surf_tension 4.7624E-5 Ha/bohr**2                                    
is_apolar_scaling_factor 0.281075                                               
is_solvation_beta 1.3                                                           
is_density_threshold 0.00035                                                    
is_bulk_permittivity 78.54                                                      
is_dielectric_model fix_initial                                                 
is_smeared_ion_width 0.8                                                        
mg_defco_fd_order 8                                                             
is_bc_coarseness 10                                                             
is_bc_surface_coarseness 1                                                      
fine_grid_scale 2.0                                                             
%block species                                                                  
N   N   7 4 8.0                                                                 
H   H   1 1 8.0                                                                 
C   C   6 4 8.0                                                                 
S   S  16 9 8.0                                                                 
O   O   8 4 8.0                                                                 
%endblock species                                                               
%block species_pot                                                              
N   N_00.recpot                                                                 
H   H_04.recpot                                                                 
C   C_01.recpot                                                                 
S   S_00.recpot                                                                 
O   O_02.recpot                                                                 
%endblock species_pot                                                           
%block lattice_cart                                                             
142.669   0.000   0.000                                                         
0.000 146.65   0.000                                                            
0.000   0.000   162.396                                                         
%endblock lattice_cart                                                          
%block positions_abs                                                            
     Hash =   000001113182821417280801
%endblock positions_abs                                                         

--------------------------------------------------------------------------------
-------------------------------- END INPUT FILE --------------------------------
--------------------------------------------------------------------------------


 
 ESDF WARNING(1): "kernelcutoff" (esdf_physical) has no units. Assume "bohr".
 ESDF WARNING(2): "kzero" (esdf_physical) has no units. Assume "1/bohr".
 ESDF WARNING(3
 ): "issmearedionwidth" (esdf_physical) has no units. Assume "bohr".
<<<<<<<<<<<<<<<<<<<<<<<<<<<<<<<<< Full system >>>>>>>>>>>>>>>>>>>>>>>>>>>>>>>>>>
<<<<<<<<<<<<<<<<<<<<<<<<< Pseudopotential information >>>>>>>>>>>>>>>>>>>>>>>>>>
File: N_00.recpot [ 2001 points up to Gmax=  52.9 (1/bohr)]
  Atomic number:  7;  ionic charge:  5.000000
    Shell 1: l = 0; rc = 1.48 bohr
File: H_04.recpot [ 2001 points up to Gmax=  52.9 (1/bohr)]
  Atomic number:  1;  ionic charge:  1.000000
    Local potential
File: C_01.recpot [ 2001 points up to Gmax=  52.9 (1/bohr)]
  Atomic number:  6;  ionic charge:  4.000000
    Shell 1: l = 0; rc = 1.48 bohr
File: S_00.recpot [ 2001 points up to Gmax=  52.9 (1/bohr)]
  Atomic number: 16;  ionic charge:  6.000000
    Shell 1: l = 0; rc = 1.90 bohr
    Shell 2: l = 2; rc = 1.84 bohr
File: O_02.recpot [ 2001 points up to Gmax=  52.9 (1/bohr)]
  Atomic number:  8;  ionic charge:  6.000000
    Shell 1: l = 0; rc = 1.31 bohr
<<<<<<<<<<<<<<<<<<<<<<<<<<<<<<<<<<<<<<<<>>>>>>>>>>>>>>>>>>>>>>>>>>>>>>>>>>>>>>>>

-------------------------- Atom counting information ---------------------------
Symbol    Natoms    Nngwfs    Nprojs
  N        236       944       236
  H       1317      1317         0
  C        816      3264       816
  S          6        54        36
  O        241       964       241
.......   ......    ......    ......
Totals:   2616      6543      1329
--------------------------------------------------------------------------------

=============================== PSINC grid sizes ===============================
                      Simulation cell:  286 x 294 x 320
                              FFT-box:  105 x 105 x  99
                                  PPD:   11 x   6 x   1
Grid space d1=  0.498842657343a0 (KE cutoff=  30.52649Eh = 830.66799eV)
Grid space d2=  0.498809523810a0 (KE cutoff=  30.53054Eh = 830.77835eV)
Grid space d3=  0.507487500000a0 (KE cutoff=  29.49533Eh = 802.60885eV)
================================================================================

********************* Fourier parallelisation information **********************
       Coarse grid (whole simulation cell) dimensions:    286   294   320
          Real-space ('12') slabs/node (min max mean):      5     6     5
         Recip-space ('23') slabs/node (min max mean):      2     3     2
********************************************************************************

********************* Fourier parallelisation information **********************
       Double grid (whole simulation cell) dimensions:    572   588   640
          Real-space ('12') slabs/node (min max mean):     10    11    10
         Recip-space ('23') slabs/node (min max mean):      4     5     4
********************************************************************************
ONETEP fine grid is 572 x 588 x 640 gridpoints, 142.6690 x 146.6500 x 162.3960 bohr.
FD multigrid is     569 x 585 x 633 gridpoints, 141.9207 x 145.9018 x 160.6198 bohr.


Calculating local pseudopotential in open BC on a radial grid ...
Discrepancy between calculated realspace psloc and -Z/x on [5a0,261.215a0]:
max |rel. diff| # avg |rel. diff| #  avg rel. diff #  f # pseudopotential file
 0.000261901569    0.000004963664   0.000000071970   55  'N_00.recpot'
 0.000422260137    0.000017549664  -0.000000063361   55  'H_04.recpot'
 0.000361991046    0.000016543264   0.000000134927   55  'C_01.recpot'
 0.000447743184    0.000019132268   0.000000438157   55  'S_00.recpot'
 0.000711628927    0.000028437426   0.000000135877   55  'O_02.recpot'
... done

Atom SCF Calculation for N  : Z (AE atom) =   7 : Z (PS atom) =   5
Config String:
Orbitals (num,occ):  2     2.00 3.00
Orbitals   (num,l):  2        0    1
Real-space Grid (nr,dr,rmax): 1203    0.0066555740    8.0000000000
Spherical Bessel Basis (nsws,lmax,cutoff):   47    1  176.3951722778
Confining potential (l,width,scale):  0    3.0000000000  100.0000000000
Confining potential (l,width,scale):  1    3.0000000000  100.0000000000
  1         -4.7312375307   -3.4155304497    7.0523828109   -1.9351020946
  2         -9.7309464766   -2.0532547791    8.2966052865   -2.2494486027
  3         -9.6627394379   -2.1124926340    8.2327997121   -2.2369778124
  4         -9.6814993499   -2.1215521045    8.2229805960   -2.2365178421
  5         -9.6843326483   -2.1250939529    8.2191374534   -2.2362718126
  6         -9.6859628709   -2.1267894855    8.2172963573   -2.2362066344
  7         -9.6867347035   -2.1276425665    8.2163697352   -2.2361903369
  8         -9.6870802100   -2.1280764625    8.2158983890   -2.2361891460
  9         -9.6872290423   -2.1282977424    8.2156580222   -2.2361920435
 10         -9.6872901988   -2.1284107021    8.2155353368   -2.2361953393
 11         -9.6873135296   -2.1284684031    8.2154726809   -2.2361979819
 12         -9.6873212476   -2.1284978948    8.2154406648   -2.2361998431
 13         -9.6873229586   -2.1285129774    8.2154242957   -2.2362010676
 14         -9.6873226456   -2.1285206957    8.2154159216   -2.2362018403
 15         -9.6873218534   -2.1285246479    8.2154116349   -2.2362023142
 16         -9.6873212599   -2.1285262679    8.2154098784   -2.2362025420
 17         -9.6873207834   -2.1285272564    8.2154088068   -2.2362026955
 18         -9.6873204210   -2.1285278596    8.2154081529   -2.2362027982
 19         -9.6873201550   -2.1285282280    8.2154077538   -2.2362028667
 20         -9.6873199645   -2.1285284529    8.2154075102   -2.2362029121
 21         -9.6873198305   -2.1285285903    8.2154073614   -2.2362029421
 22         -9.6873197377   -2.1285286742    8.2154072705   -2.2362029618
Atom SCF converged after  22 iterations to a total energy of     -9.68731974

Atom SCF Calculation for H  : Z (AE atom) =   1 : Z (PS atom) =   1
Config String:
Orbitals (num,occ):  1     1.00
Orbitals   (num,l):  1        0
Real-space Grid (nr,dr,rmax): 1203    0.0066555740    8.0000000000
Spherical Bessel Basis (nsws,lmax,cutoff):   47    0  176.3951722778
Confining potential (l,width,scale):  0    3.0000000000  100.0000000000
  1         -0.3194257691   -0.2393854593    0.2820953124   -0.2424203209
  2         -0.3951823392   -0.2377116493    0.2886404059   -0.2475147891
  3         -0.4317044583   -0.2352244387    0.2921333887   -0.2514046172
  4         -0.4470703708   -0.2341892222    0.2934391879   -0.2531009782
  5         -0.4532132900   -0.2338556667    0.2938388426   -0.2537313520
  6         -0.4556579251   -0.2337612552    0.2939448584   -0.2539550462
  7         -0.4566418315   -0.2337377355    0.2939680120   -0.2540342273
  8         -0.4570437922   -0.2337331116    0.2939708287   -0.2540627372
  9         -0.4572102946   -0.2337328328    0.2939698291   -0.2540732650
 10         -0.4572800424   -0.2337332404    0.2939687193   -0.2540772588
 11         -0.4573095100   -0.2337335791    0.2939680317   -0.2540788122
 12         -0.4573220379   -0.2337337762    0.2939676699   -0.2540794294
 13         -0.4573273880   -0.2337338775    0.2939674931   -0.2540796787
 14         -0.4573296803   -0.2337339266    0.2939674099   -0.2540797808
 15         -0.4573306647   -0.2337339495    0.2939673718   -0.2540798230
 16         -0.4573310882   -0.2337339601    0.2939673545   -0.2540798406
 17         -0.4573312706   -0.2337339649    0.2939673467   -0.2540798479
 18         -0.4573313493   -0.2337339670    0.2939673433   -0.2540798510
Atom SCF converged after  18 iterations to a total energy of     -0.45733135

Atom SCF Calculation for C  : Z (AE atom) =   6 : Z (PS atom) =   4
Config String:
Orbitals (num,occ):  2     2.00 2.00
Orbitals   (num,l):  2        0    1
Real-space Grid (nr,dr,rmax): 1203    0.0066555740    8.0000000000
Spherical Bessel Basis (nsws,lmax,cutoff):   47    1  176.3951722778
Confining potential (l,width,scale):  0    3.0000000000  100.0000000000
Confining potential (l,width,scale):  1    3.0000000000  100.0000000000
  1         -5.2976922011   -1.3069684169    4.5135249990   -1.4493313817
  2         -5.3721716256   -1.3429755895    4.4750154450   -1.4361613026
  3         -5.3809959565   -1.3617365618    4.4541655428   -1.4305930207
  4         -5.3918938866   -1.3667928461    4.4484735100   -1.4294652294
  5         -5.3956096428   -1.3688539142    4.4461376126   -1.4290734646
  6         -5.3968271862   -1.3696852393    4.4451910874   -1.4289366866
  7         -5.3972028401   -1.3700178062    4.4448112275   -1.4288900460
  8         -5.3973067903   -1.3701500158    4.4446598370   -1.4288749220
  9         -5.3973286940   -1.3702023868    4.4445997329   -1.4288704293
 10         -5.3973289850   -1.3702230869    4.4445759233   -1.4288693188
 11         -5.3973254264   -1.3702312560    4.4445665049   -1.4288691775
 12         -5.3973224003   -1.3702344755    4.4445627836   -1.4288692549
 13         -5.3973208708   -1.3702354890    4.4445616088   -1.4288693270
 14         -5.3973198783   -1.3702360102    4.4445610034   -1.4288693814
 15         -5.3973192535   -1.3702362780    4.4445606917   -1.4288694190
 16         -5.3973188684   -1.3702364155    4.4445605313   -1.4288694437
 17         -5.3973186349   -1.3702364860    4.4445604489   -1.4288694595
 18         -5.3973184951   -1.3702365221    4.4445604065   -1.4288694693
 19         -5.3973184122   -1.3702365405    4.4445603848   -1.4288694753
Atom SCF converged after  19 iterations to a total energy of     -5.39731841

Atom SCF Calculation for S  : Z (AE atom) =  16 : Z (PS atom) =   6
Config String:
Orbitals (num,occ):  3     2.00 4.00 0.00
Orbitals   (num,l):  3        0    1    2
Real-space Grid (nr,dr,rmax): 1203    0.0066555740    8.0000000000
Spherical Bessel Basis (nsws,lmax,cutoff):   47    2  176.3951722778
Confining potential (l,width,scale):  0    3.0000000000  100.0000000000
Confining potential (l,width,scale):  1    3.0000000000  100.0000000000
Confining potential (l,width,scale):  2    3.0000000000  100.0000000000
  1        -12.4735062396   -1.0328741412   10.1554312477   -2.4512393157
  2         -9.9458301913   -2.4607392455    8.3041325857   -2.0306994528
  3        -10.1450417646   -2.2931184565    8.4831893826   -2.0812538287
  4        -10.1528335592   -2.2733105793    8.5050388867   -2.0896035179
  5        -10.1571940363   -2.2633716629    8.5160794258   -2.0939370707
  6        -10.1594380571   -2.2584938667    8.5215163935   -2.0961289008
  7        -10.1605856507   -2.2561081821    8.5241804044   -2.0972291378
  8        -10.1611799191   -2.2549395235    8.5254868240   -2.0977806248
  9        -10.1614918752   -2.2543658586    8.5261285885   -2.0980571586
 10        -10.1616572884   -2.2540839121    8.5264441898   -2.0981959233
 11        -10.1617455602   -2.2539453058    8.5265994231   -2.0982656006
 12        -10.1617928447   -2.2538772062    8.5266757320   -2.0983006047
 13        -10.1618182292   -2.2538437891    8.5267131983   -2.0983181961
 14        -10.1618318741   -2.2538274201    8.5267315620   -2.0983270391
 15        -10.1618392144   -2.2538194197    8.5267405433   -2.0983314852
 16        -10.1618431651   -2.2538155200    8.5267449245   -2.0983337210
 17        -10.1618452923   -2.2538136252    8.5267470551   -2.0983348455
 18        -10.1618464380   -2.2538127080    8.5267480875   -2.0983354110
 19        -10.1618470552   -2.2538122659    8.5267485856   -2.0983356955
 20        -10.1618473878   -2.2538120540    8.5267488248   -2.0983358386
 21        -10.1618475670   -2.2538119530    8.5267489389   -2.0983359106
 22        -10.1618476637   -2.2538119053    8.5267489929   -2.0983359468
Atom SCF converged after  22 iterations to a total energy of    -10.16184766

Atom SCF Calculation for O  : Z (AE atom) =   8 : Z (PS atom) =   6
Config String:
Orbitals (num,occ):  2     2.00 4.00
Orbitals   (num,l):  2        0    1
Real-space Grid (nr,dr,rmax): 1203    0.0066555740    8.0000000000
Spherical Bessel Basis (nsws,lmax,cutoff):   47    1  176.3951722778
Confining potential (l,width,scale):  0    3.0000000000  100.0000000000
Confining potential (l,width,scale):  1    3.0000000000  100.0000000000
  1         -1.8735052164   -7.5539365035   10.1554312477   -2.4512393157
  2        -16.0318313751   -3.1285771268   13.6395848164   -3.2358799643
  3        -15.9524020423   -3.0762819706   13.6967272503   -3.2536856837
  4        -15.8521515939   -3.0781493909   13.6951909330   -3.2561700440
  5        -15.8357139793   -3.0748501933   13.6988803334   -3.2580493133
  6        -15.8246052853   -3.0740779781   13.6997881576   -3.2588327446
  7        -15.8189019501   -3.0737449687   13.7001869911   -3.2592378801
  8        -15.8159785510   -3.0736026016   13.7003615168   -3.2594475790
  9        -15.8144776168   -3.0735437994   13.7004360379   -3.2595560735
 10        -15.8137058024   -3.0735207882   13.7004667348   -3.2596122456
 11        -15.8133083127   -3.0735125946   13.7004786868   -3.2596413656
 12        -15.8131032938   -3.0735102195   13.7004828997   -3.2596564858
 13        -15.8129973902   -3.0735099286   13.7004840891   -3.2596643505
 14        -15.8129426040   -3.0735102506   13.7004842061   -3.2596684489
 15        -15.8129142203   -3.0735106556   13.7004840157   -3.2596705887
 16        -15.8128994940   -3.0735109855   13.7004837906   -3.2596717080
 17        -15.8128918425   -3.0735112169   13.7004836103   -3.2596722946
 18        -15.8128878614   -3.0735113674   13.7004834848   -3.2596726026
 19        -15.8128857871   -3.0735114608   13.7004834035   -3.2596727646
 20        -15.8128847048   -3.0735115170   13.7004833533   -3.2596728500
 21        -15.8128841394   -3.0735115501   13.7004833231   -3.2596728951
 22        -15.8128838436   -3.0735115693   13.7004833054   -3.2596729190
 23        -15.8128836887   -3.0735115802   13.7004832951   -3.2596729316
 24        -15.8128836074   -3.0735115864   13.7004832893   -3.2596729383
Atom SCF converged after  24 iterations to a total energy of    -15.81288361

========================== Calculation in vacuum ==============================
= Adjusting the following parameters: 
= is_implicit_solvent: F
= is_include_apolar: F
= write_denskern: T
= write_tightbox_ngwfs: T
= restart read filename prefix: ""
= restart write filename prefix: "vacuum_"
===============================================================================

Determining parallel strategy ...
... using space-filling curve
... NGWF load balancing: max    110;  min    109;  average    109
... Projector load balancing: max     26;  min     21;  average     22
... done
Calculating direct Ion-Ion energy ...
Ion-Ion Energy        :    829155.35335423110519
======================= Empirical dispersion information =======================
Model : Elstner
Dispersion Correction Energy: -0.32625147E+01 Hartree
================================================================================
Basis initialisation ...... NGWF spheres initialised
... Projector spheres initialised
... NGWF tight boxes initialised
... Tight-boxes gathered
... NGWF basis size (local,global):     984831  59013093
... Nonlocal pseudopotential projector initialisation
... done

========================== Sparse matrix information ===========================
                        Overlap matrix filling:   6.71%
                        Density kernel filling: 100.00%
              NGWF-Proj overlap matrix filling:   1.75%
                    Hamiltonian matrix filling:   7.57%
                  NGWF diagonal matrix filling:   0.05%
                             KS matrix filling: 100.00% 
                           KSKS matrix filling: 100.00% 
================================================================================

Sparse matrix initialisation ... done

Generating smeared ion density ... done
Smeared ion self correction:     -14543.939510
Smeared ion non-self correction: -829107.184920
NGWF initialisation ...... done
============ Calculation of NGWF S^-1 using Hotelling algorithm ================ 
         Iteration  |  Frobenius norm and Maximum abs value    (of I-S*S_n^-1)   
               1       0.78742820E+02     0.98287672E+00
               2       0.76910208E+02     0.96616740E+00
               3       0.73933492E+02     0.93393066E+00
               4       0.69686197E+02     0.87381931E+00
               5       0.64379061E+02     0.77069208E+00
               6       0.58399906E+02     0.70529961E+00
               7       0.52369491E+02     0.67238504E+00
               8       0.46797784E+02     0.64597516E+00
               9       0.40747613E+02     0.60669578E+00
              10       0.32520556E+02     0.53893539E+00
              11       0.21962518E+02     0.42969043E+00
              12       0.11308650E+02     0.27976374E+00
              13       0.37793033E+01     0.12529025E+00
              14       0.61923048E+00     0.36919387E-01
              15       0.33405966E-01     0.39527993E-02
              16       0.25224788E-03     0.48046775E-04
              17       0.27757268E-07     0.72236046E-08
              18       0.96448436E-13     0.44408921E-14
================================================================================
Calculating local pseudopotential in open BC on the fine real space grid ...
... done

MG BCs: +ve charge blocks (gridpoints):     21107 (   16561971).
MG BCs: -ve charge blocks (gridpoints):      8170 (    1103167).
MG BCs:     Elided blocks (gridpoints):    194125 (  193038407).
MG BCs: Computational effort saved:  99.9861%.
MG BCs: Charge after coarse-graining:           -9.0002402.
MG DL_MG: Calling solver with defect correction order = 8
MG DL_MG: Solver finished
MG Hartree energy from (\int phi*rho dr):              1471.208836
MG Hartree energy from (\int eps (grad phi)^2 dr):     1470.607558
MG Discrepancy due to finite box and discretization:     -0.601279 (  -0.04087%)
MG Correction to account for finite box:                  0.453564
MG Remaining discrepancy, due to discretization:         -0.147715 (  -0.01004%)
Up spin density kernel initialisation ... 
======= Optimisation of K by Palser-Manolopoulos canonical purification ======== 
         Iteration  |  Band structure energy |    c_n   
               1       -2582.73739582041253    0.5274638
               2       -2759.27662920277135    0.5173479
               3       -2940.96392253600561    0.5152584
               4       -3093.54525032382298    0.5283639
               5       -3188.08884715532167    0.5637624
               6       -3227.96659918711248    0.6091771
               7       -3241.51160638181727    0.6226118
               8       -3247.33914088821666    0.6239840
               9       -3250.14684739883614    0.6426918
              10       -3251.30332269734572    0.6639337
              11       -3251.77529208401847    0.6645986
              12       -3252.00355745887282    0.6449487
              13       -3252.12492165338790    0.5947026
              14       -3252.19234145244809    0.5113322
              15       -3252.22391621366842    0.4345429
              16       -3252.22718365274341    0.4576301
              17       -3252.22837476666427    0.4842918
              18       -3252.22888168685040    0.4969273
              19       -3252.22903697796801    0.4998826
              20       -3252.22917140411937    0.4999999
              21       -3252.22931613251012    0.5000000
              22       -3252.22942362200138    0.5000000
              23       -3252.22946110674729    0.5000000
              24       -3252.22946431428318    0.5000001
              25       -3252.22946433491916    0.5000001
Termination criterion satisfied: band energy change below threshold.
Final occupancy bounds: [    0.00000000000093:    1.00000000000000]
Closest occupancy to 0.5:     0.99999999999991
================================================================================
... done

Writing density kernel to file "complex_12261.vacuum_dkn" ... done

>>> Optimising kernel for current NGWFs:
   Initial electron number for spin 1:    7234.00000000
     Final electron number for spin 1:    7234.00000000

=================== Penalty functional idempotency correction ==================
 RMS occupancy error at iteration   1:  0.000000 (step -0.5000 Ne1=   7234.0000)
            Final RMS occupancy error   :  0.000000 (Ne1=   7234.0000)
               Final occupancy bounds   : [  0.0000,  1.0000]
================================================================================

................................................................................
<<<<<<<<<<<<<< LNV (Original version) density kernel optimisation >>>>>>>>>>>>>>
~~~~~~~~~~~~~~~~~~~~~~~~~~~~~~~~~~~~~~~~~~~~~~~~~~~~~~~~~~~~~~~~~~~~~~~~~~~~~~~~
   iter  |      energy (Eh)       | rms gradient |  commutator  |   dE (Eh)
MG BCs: +ve charge blocks (gridpoints):     32099 (   17714468).
MG BCs: -ve charge blocks (gridpoints):      8468 (    1137051).
MG BCs:     Elided blocks (gridpoints):    183120 (  191852026).
MG BCs: Computational effort saved:  99.9807%.
MG BCs: Charge after coarse-graining:           -9.0010166.
MG DL_MG: Calling solver with defect correction order = 8
MG DL_MG: Solver finished
MG Hartree energy from (\int phi*rho dr):              1427.362111
MG Hartree energy from (\int eps (grad phi)^2 dr):     1426.703166
MG Discrepancy due to finite box and discretization:     -0.658945 (  -0.04617%)
MG Correction to account for finite box:                  0.469086
MG Remaining discrepancy, due to discretization:         -0.189858 (  -0.01330%)
      ideal mu1:      -0.698356777140
             Q0:  -11576.179619196802
             G0:    -146.803185834013
   RMS gradient:       0.001851786100
MG BCs: +ve charge blocks (gridpoints):     32097 (   17800342).
MG BCs: -ve charge blocks (gridpoints):      8363 (    1115665).
MG BCs:     Elided blocks (gridpoints):    183123 (  191787538).
MG BCs: Computational effort saved:  99.9808%.
MG BCs: Charge after coarse-graining:           -9.0010384.
MG DL_MG: Calling solver with defect correction order = 8
MG DL_MG: Solver finished
MG Hartree energy from (\int phi*rho dr):              1451.998255
MG Hartree energy from (\int eps (grad phi)^2 dr):     1451.355455
MG Discrepancy due to finite box and discretization:     -0.642800 (  -0.04427%)
MG Correction to account for finite box:                  0.468477
MG Remaining discrepancy, due to discretization:         -0.174323 (  -0.01201%)
     Trial step:       0.500000000000
             Q1:  -11588.007752542966
 Quadratic coef:      61.573459570844
 Linear coef   :     -73.401592917007
           Qmin:  -11598.055090708011
Quadratic minimum step length (  0.298024479332) accepted
    Initial Ne1:    7234.00000000
      Final Ne1:    7234.00000000

=================== Penalty functional idempotency correction ==================
 RMS occupancy error at iteration   1:  0.003470 (step -0.4882 Ne1=   7234.0000)
 RMS occupancy error at iteration   2:  0.000028 (step -0.5001 Ne1=   7234.0000)
            Final RMS occupancy error   :  0.000000 (Ne1=   7234.0000)
               Final occupancy bounds   : [  0.0000,  1.0000]
================================================================================

    1        -1.157617961920E+04     1.8518E-03     1.6749E-03
MG BCs: +ve charge blocks (gridpoints):     32102 (   17767562).
MG BCs: -ve charge blocks (gridpoints):      8414 (    1124523).
MG BCs:     Elided blocks (gridpoints):    183116 (  191811460).
MG BCs: Computational effort saved:  99.9808%.
MG BCs: Charge after coarse-graining:           -9.0010293.
MG DL_MG: Calling solver with defect correction order = 8
MG DL_MG: Solver finished
MG Hartree energy from (\int phi*rho dr):              1434.026674
MG Hartree energy from (\int eps (grad phi)^2 dr):     1433.378317
MG Discrepancy due to finite box and discretization:     -0.648357 (  -0.04521%)
MG Correction to account for finite box:                  0.468578
MG Remaining discrepancy, due to discretization:         -0.179779 (  -0.01254%)
      ideal mu1:      -0.742649212733
             Q0:  -11598.470674116863
             G0:     -12.378183778563
   RMS gradient:       0.000534038898
MG BCs: +ve charge blocks (gridpoints):     32096 (   17784920).
MG BCs: -ve charge blocks (gridpoints):      8384 (    1119267).
MG BCs:     Elided blocks (gridpoints):    183123 (  191799358).
MG BCs: Computational effort saved:  99.9808%.
MG BCs: Charge after coarse-graining:           -9.0010331.
MG DL_MG: Calling solver with defect correction order = 8
MG DL_MG: Solver finished
MG Hartree energy from (\int phi*rho dr):              1439.019080
MG Hartree energy from (\int eps (grad phi)^2 dr):     1438.374748
MG Discrepancy due to finite box and discretization:     -0.644332 (  -0.04478%)
MG Correction to account for finite box:                  0.467696
MG Remaining discrepancy, due to discretization:         -0.176636 (  -0.01227%)
     Trial step:       0.386021035263
             Q1:  -11601.379911874421
 Quadratic coef:       1.869001559324
 Linear coef   :      -4.778239316882
           Qmin:  -11601.524653774544
Quadratic minimum step length (  0.493445518715) accepted
    Initial Ne1:    7233.99988769
      Final Ne1:    7234.00000000

=================== Penalty functional idempotency correction ==================
 RMS occupancy error at iteration   1:  0.001856 (step -0.4928 Ne1=   7234.0000)
 RMS occupancy error at iteration   2:  0.000012 (step -0.5002 Ne1=   7234.0000)
            Final RMS occupancy error   :  0.000000 (Ne1=   7234.0000)
               Final occupancy bounds   : [  0.0000,  1.0000]
================================================================================

    2        -1.159847067412E+04     5.3404E-04     4.8303E-04    -2.2291E+01
MG BCs: +ve charge blocks (gridpoints):     32089 (   17789757).
MG BCs: -ve charge blocks (gridpoints):      8379 (    1117727).
MG BCs:     Elided blocks (gridpoints):    183130 (  191796061).
MG BCs: Computational effort saved:  99.9808%.
MG BCs: Charge after coarse-graining:           -9.0010342.
MG DL_MG: Calling solver with defect correction order = 8
MG DL_MG: Solver finished
MG Hartree energy from (\int phi*rho dr):              1440.460545
MG Hartree energy from (\int eps (grad phi)^2 dr):     1439.817251
MG Discrepancy due to finite box and discretization:     -0.643294 (  -0.04466%)
MG Correction to account for finite box:                  0.467470
MG Remaining discrepancy, due to discretization:         -0.175824 (  -0.01221%)
      ideal mu1:      -0.766716279472
             Q0:  -11601.563160850899
             G0:      -1.973382337621
   RMS gradient:       0.000213318034
MG BCs: +ve charge blocks (gridpoints):     32095 (   17788918).
MG BCs: -ve charge blocks (gridpoints):      8383 (    1118721).
MG BCs:     Elided blocks (gridpoints):    183124 (  191795906).
MG BCs: Computational effort saved:  99.9808%.
MG BCs: Charge after coarse-graining:           -9.0010341.
MG DL_MG: Calling solver with defect correction order = 8
MG DL_MG: Solver finished
MG Hartree energy from (\int phi*rho dr):              1438.204232
MG Hartree energy from (\int eps (grad phi)^2 dr):     1437.561624
MG Discrepancy due to finite box and discretization:     -0.642608 (  -0.04468%)
MG Correction to account for finite box:                  0.466981
MG Remaining discrepancy, due to discretization:         -0.175628 (  -0.01221%)
     Trial step:       0.436440545757
             Q1:  -11602.067378330277
 Quadratic coef:       0.357046585041
 Linear coef   :      -0.861264064418
           Qmin:  -11602.082543908837
Quadratic minimum step length (  0.526388675966) accepted
    Initial Ne1:    7233.99991991
      Final Ne1:    7234.00000000

=================== Penalty functional idempotency correction ==================
 RMS occupancy error at iteration   1:  0.000650 (step -0.4970 Ne1=   7234.0000)
 RMS occupancy error at iteration   2:  0.000003 (step -0.5000 Ne1=   7234.0000)
            Final RMS occupancy error   :  0.000000 (Ne1=   7234.0000)
               Final occupancy bounds   : [  0.0000,  1.0000]
================================================================================

    3        -1.160156316085E+04     2.1332E-04     1.9294E-04    -3.0925E+00
MG BCs: +ve charge blocks (gridpoints):     32096 (   17788779).
MG BCs: -ve charge blocks (gridpoints):      8385 (    1118953).
MG BCs:     Elided blocks (gridpoints):    183123 (  191795813).
MG BCs: Computational effort saved:  99.9808%.
MG BCs: Charge after coarse-graining:           -9.0010341.
MG DL_MG: Calling solver with defect correction order = 8
MG DL_MG: Solver finished
MG Hartree energy from (\int phi*rho dr):              1437.748737
MG Hartree energy from (\int eps (grad phi)^2 dr):     1437.106259
MG Discrepancy due to finite box and discretization:     -0.642478 (  -0.04469%)
MG Correction to account for finite box:                  0.466881
MG Remaining discrepancy, due to discretization:         -0.175597 (  -0.01221%)
      ideal mu1:      -0.767492344181
             Q0:  -11602.087559307227
             G0:      -0.513657102749
   RMS gradient:       0.000108948545
MG BCs: +ve charge blocks (gridpoints):     32101 (   17789863).
MG BCs: -ve charge blocks (gridpoints):      8382 (    1118690).
MG BCs:     Elided blocks (gridpoints):    183118 (  191794992).
MG BCs: Computational effort saved:  99.9808%.
MG BCs: Charge after coarse-graining:           -9.0010342.
MG DL_MG: Calling solver with defect correction order = 8
MG DL_MG: Solver finished
MG Hartree energy from (\int phi*rho dr):              1438.962351
MG Hartree energy from (\int eps (grad phi)^2 dr):     1438.319985
MG Discrepancy due to finite box and discretization:     -0.642366 (  -0.04464%)
MG Correction to account for finite box:                  0.466679
MG Remaining discrepancy, due to discretization:         -0.175687 (  -0.01221%)
     Trial step:       0.479309254051
             Q1:  -11602.211631336133
 Quadratic coef:       0.122128573850
 Linear coef   :      -0.246200602757
           Qmin:  -11602.211639067775
Quadratic minimum step length (  0.483122923383) accepted
    Initial Ne1:    7233.99998082
      Final Ne1:    7234.00000000

=================== Penalty functional idempotency correction ==================
 RMS occupancy error at iteration   1:  0.000264 (step -0.4973 Ne1=   7234.0000)
 RMS occupancy error at iteration   2:  0.000002 (step -0.5000 Ne1=   7234.0000)
            Final RMS occupancy error   :  0.000000 (Ne1=   7234.0000)
               Final occupancy bounds   : [  0.0000,  1.0000]
================================================================================

    4        -1.160208755931E+04     1.0895E-04     9.8542E-05    -5.2440E-01
MG BCs: +ve charge blocks (gridpoints):     32101 (   17789870).
MG BCs: -ve charge blocks (gridpoints):      8382 (    1118688).
MG BCs:     Elided blocks (gridpoints):    183118 (  191794987).
MG BCs: Computational effort saved:  99.9808%.
MG BCs: Charge after coarse-graining:           -9.0010342.
MG DL_MG: Calling solver with defect correction order = 8
MG DL_MG: Solver finished
MG Hartree energy from (\int phi*rho dr):              1438.972401
MG Hartree energy from (\int eps (grad phi)^2 dr):     1438.330036
MG Discrepancy due to finite box and discretization:     -0.642366 (  -0.04464%)
MG Correction to account for finite box:                  0.466678
MG Remaining discrepancy, due to discretization:         -0.175687 (  -0.01221%)
      ideal mu1:      -0.767826926942
             Q0:  -11602.212281716289
             G0:      -0.170383151486
   RMS gradient:       0.000062929158
MG BCs: +ve charge blocks (gridpoints):     32102 (   17790275).
MG BCs: -ve charge blocks (gridpoints):      8384 (    1118484).
MG BCs:     Elided blocks (gridpoints):    183117 (  191794786).
MG BCs: Computational effort saved:  99.9808%.
MG BCs: Charge after coarse-graining:           -9.0010341.
MG DL_MG: Calling solver with defect correction order = 8
MG DL_MG: Solver finished
MG Hartree energy from (\int phi*rho dr):              1439.481480
MG Hartree energy from (\int eps (grad phi)^2 dr):     1438.839088
MG Discrepancy due to finite box and discretization:     -0.642392 (  -0.04463%)
MG Correction to account for finite box:                  0.466549
MG Remaining discrepancy, due to discretization:         -0.175843 (  -0.01222%)
     Trial step:       0.481212310754
             Q1:  -11602.263283164473
 Quadratic coef:       0.030989021856
 Linear coef   :      -0.081990470040
           Qmin:  -11602.266514124854
Quadratic minimum step length (  0.636593560960) accepted
    Initial Ne1:    7233.99999162
      Final Ne1:    7234.00000000

=================== Penalty functional idempotency correction ==================
 RMS occupancy error at iteration   1:  0.000286 (step -0.4857 Ne1=   7234.0000)
 RMS occupancy error at iteration   2:  0.000005 (step -0.5000 Ne1=   7234.0000)
            Final RMS occupancy error   :  0.000000 (Ne1=   7234.0000)
               Final occupancy bounds   : [  0.0000,  1.0000]
================================================================================

    5        -1.160221228172E+04     6.2929E-05     5.6918E-05    -1.2472E-01
MG BCs: +ve charge blocks (gridpoints):     32099 (   17790390).
MG BCs: -ve charge blocks (gridpoints):      8384 (    1118402).
MG BCs:     Elided blocks (gridpoints):    183121 (  191794753).
MG BCs: Computational effort saved:  99.9808%.
MG BCs: Charge after coarse-graining:           -9.0010341.
MG DL_MG: Calling solver with defect correction order = 8
MG DL_MG: Solver finished
MG Hartree energy from (\int phi*rho dr):              1439.644853
MG Hartree energy from (\int eps (grad phi)^2 dr):     1439.002455
MG Discrepancy due to finite box and discretization:     -0.642398 (  -0.04462%)
MG Correction to account for finite box:                  0.466505
MG Remaining discrepancy, due to discretization:         -0.175893 (  -0.01222%)
      ideal mu1:      -0.768066988760
             Q0:  -11602.266459926614
             G0:      -0.124697397723
   RMS gradient:       0.000054022595
MG BCs: +ve charge blocks (gridpoints):     32098 (   17789669).
MG BCs: -ve charge blocks (gridpoints):      8387 (    1118780).
MG BCs:     Elided blocks (gridpoints):    183122 (  191795096).
MG BCs: Computational effort saved:  99.9808%.
MG BCs: Charge after coarse-graining:           -9.0010339.
MG DL_MG: Calling solver with defect correction order = 8
MG DL_MG: Solver finished
MG Hartree energy from (\int phi*rho dr):              1438.546265
MG Hartree energy from (\int eps (grad phi)^2 dr):     1437.904012
MG Discrepancy due to finite box and discretization:     -0.642253 (  -0.04465%)
MG Correction to account for finite box:                  0.466364
MG Remaining discrepancy, due to discretization:         -0.175889 (  -0.01223%)
     Trial step:       0.553476881614
             Q1:  -11602.321406373056
 Quadratic coef:       0.014070680396
 Linear coef   :      -0.069017126837
           Qmin:  -11602.351092717332
Quadratic minimum step length (  1.357410696033) accepted
    Initial Ne1:    7233.99998318
      Final Ne1:    7234.00000000

=================== Penalty functional idempotency correction ==================
 RMS occupancy error at iteration   1:  0.002518 (step -0.3622 Ne1=   7234.0000)
 RMS occupancy error at iteration   2:  0.000154 (step -0.4950 Ne1=   7234.0000)
 RMS occupancy error at iteration   3:  0.000001 (step -0.5000 Ne1=   7234.0000)
            Final RMS occupancy error   :  0.000000 (Ne1=   7234.0000)
               Final occupancy bounds   : [  0.0000,  1.0000]
================================================================================

    6        -1.160226645993E+04     5.4023E-05     4.8862E-05    -5.4178E-02
MG BCs: +ve charge blocks (gridpoints):     32098 (   17788534).
MG BCs: -ve charge blocks (gridpoints):      8390 (    1119376).
MG BCs:     Elided blocks (gridpoints):    183122 (  191795635).
MG BCs: Computational effort saved:  99.9808%.
MG BCs: Charge after coarse-graining:           -9.0010338.
MG DL_MG: Calling solver with defect correction order = 8
MG DL_MG: Solver finished
MG Hartree energy from (\int phi*rho dr):              1436.940064
MG Hartree energy from (\int eps (grad phi)^2 dr):     1436.298042
MG Discrepancy due to finite box and discretization:     -0.642023 (  -0.04468%)
MG Correction to account for finite box:                  0.466143
MG Remaining discrepancy, due to discretization:         -0.175880 (  -0.01224%)
      ideal mu1:      -0.767717821130
             Q0:  -11602.332944113994
             G0:      -0.297480172052
   RMS gradient:       0.000083358922
MG BCs: +ve charge blocks (gridpoints):     32096 (   17791676).
MG BCs: -ve charge blocks (gridpoints):      8379 (    1117855).
MG BCs:     Elided blocks (gridpoints):    183123 (  191794014).
MG BCs: Computational effort saved:  99.9808%.
MG BCs: Charge after coarse-graining:           -9.0010344.
MG DL_MG: Calling solver with defect correction order = 8
MG DL_MG: Solver finished
MG Hartree energy from (\int phi*rho dr):              1440.764656
MG Hartree energy from (\int eps (grad phi)^2 dr):     1440.122940
MG Discrepancy due to finite box and discretization:     -0.641717 (  -0.04454%)
MG Correction to account for finite box:                  0.465986
MG Remaining discrepancy, due to discretization:         -0.175731 (  -0.01220%)
     Trial step:       0.866773003219
             Q1:  -11602.394734810223
 Quadratic coef:       0.196057085899
 Linear coef   :      -0.257847782127
           Qmin:  -11602.417722328517
Quadratic minimum step length (  0.569975564676) accepted
    Initial Ne1:    7233.99999978
      Final Ne1:    7234.00000000

=================== Penalty functional idempotency correction ==================
 RMS occupancy error at iteration   1:  0.000167 (step -0.4870 Ne1=   7234.0000)
 RMS occupancy error at iteration   2:  0.000001 (step -0.5000 Ne1=   7234.0000)
            Final RMS occupancy error   :  0.000000 (Ne1=   7234.0000)
               Final occupancy bounds   : [  0.0000,  1.0000]
================================================================================

    7        -1.160233294411E+04     8.3359E-05     7.5396E-05    -6.6484E-02
MG BCs: +ve charge blocks (gridpoints):     32096 (   17790637).
MG BCs: -ve charge blocks (gridpoints):      8382 (    1118357).
MG BCs:     Elided blocks (gridpoints):    183124 (  191794551).
MG BCs: Computational effort saved:  99.9808%.
MG BCs: Charge after coarse-graining:           -9.0010341.
MG DL_MG: Calling solver with defect correction order = 8
MG DL_MG: Solver finished
MG Hartree energy from (\int phi*rho dr):              1439.447453
MG Hartree energy from (\int eps (grad phi)^2 dr):     1438.805632
MG Discrepancy due to finite box and discretization:     -0.641821 (  -0.04459%)
MG Correction to account for finite box:                  0.466041
MG Remaining discrepancy, due to discretization:         -0.175780 (  -0.01221%)
      ideal mu1:      -0.768713560321
             Q0:  -11602.418060713215
             G0:      -0.208042970425
   RMS gradient:       0.000069603657
MG BCs: +ve charge blocks (gridpoints):     32097 (   17790822).
MG BCs: -ve charge blocks (gridpoints):      8380 (    1118199).
MG BCs:     Elided blocks (gridpoints):    183122 (  191794524).
MG BCs: Computational effort saved:  99.9808%.
MG BCs: Charge after coarse-graining:           -9.0010343.
MG DL_MG: Calling solver with defect correction order = 8
MG DL_MG: Solver finished
MG Hartree energy from (\int phi*rho dr):              1439.633679
MG Hartree energy from (\int eps (grad phi)^2 dr):     1438.992174
MG Discrepancy due to finite box and discretization:     -0.641506 (  -0.04456%)
MG Correction to account for finite box:                  0.465877
MG Remaining discrepancy, due to discretization:         -0.175628 (  -0.01220%)
     Trial step:       0.702879386492
             Q1:  -11602.508922814741
 Quadratic coef:       0.055367013891
 Linear coef   :      -0.146229115416
           Qmin:  -11602.514611676925
Quadratic minimum step length (  0.928182899063) accepted
    Initial Ne1:    7233.99999961
      Final Ne1:    7234.00000000

=================== Penalty functional idempotency correction ==================
 RMS occupancy error at iteration   1:  0.001726 (step -0.3913 Ne1=   7234.0000)
 RMS occupancy error at iteration   2:  0.000054 (step -0.4971 Ne1=   7234.0000)
 RMS occupancy error at iteration   3:  0.000000 (step -0.5000 Ne1=   7234.0000)
            Final RMS occupancy error   :  0.000000 (Ne1=   7234.0000)
               Final occupancy bounds   : [  0.0000,  1.0000]
================================================================================

    8        -1.160241806071E+04     6.9604E-05     6.2955E-05    -8.5117E-02
MG BCs: +ve charge blocks (gridpoints):     32099 (   17790919).
MG BCs: -ve charge blocks (gridpoints):      8380 (    1118182).
MG BCs:     Elided blocks (gridpoints):    183120 (  191794444).
MG BCs: Computational effort saved:  99.9808%.
MG BCs: Charge after coarse-graining:           -9.0010343.
MG DL_MG: Calling solver with defect correction order = 8
MG DL_MG: Solver finished
MG Hartree energy from (\int phi*rho dr):              1439.698335
MG Hartree energy from (\int eps (grad phi)^2 dr):     1439.056926
MG Discrepancy due to finite box and discretization:     -0.641409 (  -0.04455%)
MG Correction to account for finite box:                  0.465828
MG Remaining discrepancy, due to discretization:         -0.175581 (  -0.01220%)
      ideal mu1:      -0.768418950260
             Q0:  -11602.511637076968
             G0:      -0.268689407513
   RMS gradient:       0.000079985579
MG BCs: +ve charge blocks (gridpoints):     32101 (   17789590).
MG BCs: -ve charge blocks (gridpoints):      8384 (    1118908).
MG BCs:     Elided blocks (gridpoints):    183118 (  191795047).
MG BCs: Computational effort saved:  99.9808%.
MG BCs: Charge after coarse-graining:           -9.0010342.
MG DL_MG: Calling solver with defect correction order = 8
MG DL_MG: Solver finished
MG Hartree energy from (\int phi*rho dr):              1437.759761
MG Hartree energy from (\int eps (grad phi)^2 dr):     1437.118629
MG Discrepancy due to finite box and discretization:     -0.641132 (  -0.04459%)
MG Correction to account for finite box:                  0.465705
MG Remaining discrepancy, due to discretization:         -0.175428 (  -0.01220%)
     Trial step:       0.807713208166
             Q1:  -11602.572811430320
 Quadratic coef:       0.155849629991
 Linear coef   :      -0.217023983343
           Qmin:  -11602.587189725615
Quadratic minimum step length (  0.562379063218) accepted
    Initial Ne1:    7233.99999968
      Final Ne1:    7234.00000000

=================== Penalty functional idempotency correction ==================
 RMS occupancy error at iteration   1:  0.003653 (step -0.3190 Ne1=   7234.0000)
 RMS occupancy error at iteration   2:  0.000208 (step -0.4866 Ne1=   7234.0000)
 RMS occupancy error at iteration   3:  0.000002 (step -0.5000 Ne1=   7234.0000)
            Final RMS occupancy error   :  0.000000 (Ne1=   7234.0000)
               Final occupancy bounds   : [  0.0000,  1.0000]
================================================================================

    9        -1.160251163708E+04     7.9986E-05     7.2345E-05    -9.3576E-02
MG BCs: +ve charge blocks (gridpoints):     32100 (   17789914).
MG BCs: -ve charge blocks (gridpoints):      8382 (    1118700).
MG BCs:     Elided blocks (gridpoints):    183119 (  191794931).
MG BCs: Computational effort saved:  99.9808%.
MG BCs: Charge after coarse-graining:           -9.0010343.
MG DL_MG: Calling solver with defect correction order = 8
MG DL_MG: Solver finished
MG Hartree energy from (\int phi*rho dr):              1438.336365
MG Hartree energy from (\int eps (grad phi)^2 dr):     1437.695210
MG Discrepancy due to finite box and discretization:     -0.641155 (  -0.04458%)
MG Correction to account for finite box:                  0.465694
MG Remaining discrepancy, due to discretization:         -0.175461 (  -0.01220%)
      ideal mu1:      -0.767400543579
   10        -1.160259826493E+04     6.6889E-05     6.0499E-05    -8.6628E-02
Finished density kernel iterations (  10)

Writing density kernel to file "complex_12261.vacuum_dkn" ... done


>>> Density kernel optimised for the current NGWF basis:
     ~~~~~~~~~~~~~~~~~~~~~~~~~~~~~~~~~~~~~~~~~~~~~~~~~~~~~~~~~~~
     Total energy                =  -1.16025982649282E+04  Eh
     Estimated bandgap           =  -4.1971E-01  Eh
     RMS occupancy error         =   3.0120E-10
     [H,K] commutator            =   6.0499E-05
     Occupancy bounds            = [  0.000:  1.000]
     ~~~~~~~~~~~~~~~~~~~~~~~~~~~~~~~~~~~~~~~~~~~~~~~~~~~~~~~~~~~




################################################################################
########################### NGWF CG iteration  001 #############################
################################################################################
****** Reciprocal space K.E. preconditioning with k_zero =  3.5000 a0^-1 *******

>>> Checking for convergence of NGWFs:   NOT CONVERGED
  ========================================================================
         NGWF RMS gradient =  1.5612E-03 >  2.0000E-06  | above tolerance
  ========================================================================

>>> Improving NGWFs using line search:
============ Calculation of NGWF S^-1 using Hotelling algorithm ================ 
         Iteration  |  Frobenius norm and Maximum abs value    (of I-S*S_n^-1)   
               1       0.19156206E+00     0.49769246E-02
               2       0.84052902E-03     0.38828907E-04
               3       0.27825735E-07     0.25918593E-08
               4       0.12656397E-12     0.58841820E-14
================================================================================
MG BCs: +ve charge blocks (gridpoints):     31608 (   17734837).
MG BCs: -ve charge blocks (gridpoints):      8406 (    1118842).
MG BCs:     Elided blocks (gridpoints):    183616 (  191849866).
MG BCs: Computational effort saved:  99.9810%.
MG BCs: Charge after coarse-graining:           -9.0010352.
MG DL_MG: Calling solver with defect correction order = 8
MG DL_MG: Solver finished
MG Hartree energy from (\int phi*rho dr):              1406.946908
MG Hartree energy from (\int eps (grad phi)^2 dr):     1406.306554
MG Discrepancy due to finite box and discretization:     -0.640354 (  -0.04551%)
MG Correction to account for finite box:                  0.465600
MG Remaining discrepancy, due to discretization:         -0.174755 (  -0.01242%)
============ Calculation of NGWF S^-1 using Hotelling algorithm ================ 
         Iteration  |  Frobenius norm and Maximum abs value    (of I-S*S_n^-1)   
               1       0.18508526E+01     0.41776753E-01
               2       0.70664019E-01     0.26464512E-02
               3       0.13919421E-03     0.11882316E-04
               4       0.11022027E-08     0.24595359E-09
               5       0.10878388E-12     0.53290705E-14
================================================================================
------------------------------- NGWF line search -------------------------------
RMS gradient                =       0.00156118334003
Trial step length           =               0.122474
Gradient along search dir.  =       -270.84426067746
Functional at step 0        =  -11602.59826492820866
Functional at step 1        =  -11633.28692616918124
Functional predicted        =  -11713.39320841347217
Selected quadratic step     =               0.818145
--------------------------- NGWF line search finished --------------------------
                                               
Writing NGWFs to file "complex_12261.vacuum_tightbox_ngwfs"....  done

>>> Optimising kernel for current NGWFs:
   Initial electron number for spin 1:    7268.55682779
     Final electron number for spin 1:    7234.00000000

=================== Penalty functional idempotency correction ==================
 RMS occupancy error at iteration   1:  0.004241 (step -0.4862 Ne1=   7234.0000)
 RMS occupancy error at iteration   2:  0.000069 (step -0.5003 Ne1=   7234.0000)
            Final RMS occupancy error   :  0.000000 (Ne1=   7234.0000)
               Final occupancy bounds   : [  0.0000,  1.0000]
================================================================================

................................................................................
<<<<<<<<<<<<<< LNV (Original version) density kernel optimisation >>>>>>>>>>>>>>
~~~~~~~~~~~~~~~~~~~~~~~~~~~~~~~~~~~~~~~~~~~~~~~~~~~~~~~~~~~~~~~~~~~~~~~~~~~~~~~~
   iter  |      energy (Eh)       | rms gradient |  commutator  |   dE (Eh)
MG BCs: +ve charge blocks (gridpoints):     25521 (   17484554).
MG BCs: -ve charge blocks (gridpoints):      8574 (    1102785).
MG BCs:     Elided blocks (gridpoints):    189711 (  192116206).
MG BCs: Computational effort saved:  99.9838%.
MG BCs: Charge after coarse-graining:           -9.0006856.
MG DL_MG: Calling solver with defect correction order = 8
MG DL_MG: Solver finished
MG Hartree energy from (\int phi*rho dr):              1251.081617
MG Hartree energy from (\int eps (grad phi)^2 dr):     1250.441388
MG Discrepancy due to finite box and discretization:     -0.640229 (  -0.05117%)
MG Correction to account for finite box:                  0.465152
MG Remaining discrepancy, due to discretization:         -0.175077 (  -0.01399%)
      ideal mu1:      -0.707929876176
             Q0:  -11712.577495582751
             G0:      -9.832100482939
   RMS gradient:       0.000479232468
MG BCs: +ve charge blocks (gridpoints):     25575 (   17497295).
MG BCs: -ve charge blocks (gridpoints):      8568 (    1099574).
MG BCs:     Elided blocks (gridpoints):    189657 (  192106676).
MG BCs: Computational effort saved:  99.9838%.
MG BCs: Charge after coarse-graining:           -9.0006825.
MG DL_MG: Calling solver with defect correction order = 8
MG DL_MG: Solver finished
MG Hartree energy from (\int phi*rho dr):              1265.640975
MG Hartree energy from (\int eps (grad phi)^2 dr):     1264.996409
MG Discrepancy due to finite box and discretization:     -0.644566 (  -0.05093%)
MG Correction to account for finite box:                  0.464095
MG Remaining discrepancy, due to discretization:         -0.180471 (  -0.01426%)
     Trial step:       0.673974033148
             Q1:  -11712.461262823781
 Quadratic coef:       6.742813175770
 Linear coef   :      -6.626580416800
           Qmin:  -11714.205583402911
Quadratic minimum step length (  0.331178027113) accepted
    Initial Ne1:    7233.99959818
      Final Ne1:    7234.00000000

=================== Penalty functional idempotency correction ==================
 RMS occupancy error at iteration   1:  0.000356 (step -0.4986 Ne1=   7234.0000)
 RMS occupancy error at iteration   2:  0.000000 (step -0.5000 Ne1=   7234.0000)
            Final RMS occupancy error   :  0.000000 (Ne1=   7234.0000)
               Final occupancy bounds   : [  0.0000,  1.0000]
================================================================================

    1        -1.171257749558E+04     4.7923E-04     4.3346E-04
MG BCs: +ve charge blocks (gridpoints):     25546 (   17491179).
MG BCs: -ve charge blocks (gridpoints):      8574 (    1101188).
MG BCs:     Elided blocks (gridpoints):    189686 (  192111178).
MG BCs: Computational effort saved:  99.9838%.
MG BCs: Charge after coarse-graining:           -9.0006838.
MG DL_MG: Calling solver with defect correction order = 8
MG DL_MG: Solver finished
MG Hartree energy from (\int phi*rho dr):              1257.392074
MG Hartree energy from (\int eps (grad phi)^2 dr):     1256.749808
MG Discrepancy due to finite box and discretization:     -0.642267 (  -0.05108%)
MG Correction to account for finite box:                  0.464603
MG Remaining discrepancy, due to discretization:         -0.177664 (  -0.01413%)
      ideal mu1:      -0.714577455868
             Q0:  -11714.183889538748
             G0:      -1.071263617769
   RMS gradient:       0.000158686207
MG BCs: +ve charge blocks (gridpoints):     25546 (   17490211).
MG BCs: -ve charge blocks (gridpoints):      8577 (    1102101).
MG BCs:     Elided blocks (gridpoints):    189686 (  192111233).
MG BCs: Computational effort saved:  99.9838%.
MG BCs: Charge after coarse-graining:           -9.0006839.
MG DL_MG: Calling solver with defect correction order = 8
MG DL_MG: Solver finished
MG Hartree energy from (\int phi*rho dr):              1258.356792
MG Hartree energy from (\int eps (grad phi)^2 dr):     1257.714248
MG Discrepancy due to finite box and discretization:     -0.642544 (  -0.05106%)
MG Correction to account for finite box:                  0.464472
MG Remaining discrepancy, due to discretization:         -0.178072 (  -0.01415%)
     Trial step:       0.472446177488
             Q1:  -11714.421383767738
 Quadratic coef:       0.268620172308
 Linear coef   :      -0.506114401297
           Qmin:  -11714.422285435267
Quadratic minimum step length (  0.445074195676) accepted
    Initial Ne1:    7233.99994078
      Final Ne1:    7234.00000000

=================== Penalty functional idempotency correction ==================
 RMS occupancy error at iteration   1:  0.000177 (step -0.4986 Ne1=   7234.0000)
 RMS occupancy error at iteration   2:  0.000001 (step -0.5000 Ne1=   7234.0000)
            Final RMS occupancy error   :  0.000000 (Ne1=   7234.0000)
               Final occupancy bounds   : [  0.0000,  1.0000]
================================================================================

    2        -1.171418388954E+04     1.5869E-04     1.4353E-04    -1.6064E+00
MG BCs: +ve charge blocks (gridpoints):     25546 (   17490258).
MG BCs: -ve charge blocks (gridpoints):      8576 (    1102043).
MG BCs:     Elided blocks (gridpoints):    189686 (  192111244).
MG BCs: Computational effort saved:  99.9838%.
MG BCs: Charge after coarse-graining:           -9.0006839.
MG DL_MG: Calling solver with defect correction order = 8
MG DL_MG: Solver finished
MG Hartree energy from (\int phi*rho dr):              1258.301036
MG Hartree energy from (\int eps (grad phi)^2 dr):     1257.658509
MG Discrepancy due to finite box and discretization:     -0.642527 (  -0.05106%)
MG Correction to account for finite box:                  0.464480
MG Remaining discrepancy, due to discretization:         -0.178047 (  -0.01415%)
      ideal mu1:      -0.715408753196
             Q0:  -11714.422801014152
             G0:      -0.200056391208
   RMS gradient:       0.000068284539
MG BCs: +ve charge blocks (gridpoints):     25545 (   17489293).
MG BCs: -ve charge blocks (gridpoints):      8575 (    1102530).
MG BCs:     Elided blocks (gridpoints):    189687 (  192111722).
MG BCs: Computational effort saved:  99.9838%.
MG BCs: Charge after coarse-graining:           -9.0006840.
MG DL_MG: Calling solver with defect correction order = 8
MG DL_MG: Solver finished
MG Hartree energy from (\int phi*rho dr):              1257.675059
MG Hartree energy from (\int eps (grad phi)^2 dr):     1257.032630
MG Discrepancy due to finite box and discretization:     -0.642429 (  -0.05108%)
MG Correction to account for finite box:                  0.464401
MG Remaining discrepancy, due to discretization:         -0.178029 (  -0.01416%)
     Trial step:       0.458555997067
             Q1:  -11714.488984552096
 Quadratic coef:       0.025553519996
 Linear coef   :      -0.091737057940
           Qmin:  -11714.505134952889
Quadratic minimum step length (  0.823107307301) accepted
    Initial Ne1:    7233.99997969
      Final Ne1:    7234.00000000

=================== Penalty functional idempotency correction ==================
 RMS occupancy error at iteration   1:  0.000330 (step -0.4834 Ne1=   7234.0000)
 RMS occupancy error at iteration   2:  0.000004 (step -0.5000 Ne1=   7234.0000)
            Final RMS occupancy error   :  0.000000 (Ne1=   7234.0000)
               Final occupancy bounds   : [  0.0000,  1.0000]
================================================================================

    3        -1.171442280101E+04     6.8285E-05     6.1762E-05    -2.3891E-01
MG BCs: +ve charge blocks (gridpoints):     25544 (   17488660).
MG BCs: -ve charge blocks (gridpoints):      8574 (    1102856).
MG BCs:     Elided blocks (gridpoints):    189688 (  192112029).
MG BCs: Computational effort saved:  99.9838%.
MG BCs: Charge after coarse-graining:           -9.0006840.
MG DL_MG: Calling solver with defect correction order = 8
MG DL_MG: Solver finished
MG Hartree energy from (\int phi*rho dr):              1257.176825
MG Hartree energy from (\int eps (grad phi)^2 dr):     1256.534473
MG Discrepancy due to finite box and discretization:     -0.642352 (  -0.05109%)
MG Correction to account for finite box:                  0.464337
MG Remaining discrepancy, due to discretization:         -0.178015 (  -0.01416%)
      ideal mu1:      -0.713780554087
             Q0:  -11714.504823455703
             G0:      -0.118549484432
   RMS gradient:       0.000052718838
MG BCs: +ve charge blocks (gridpoints):     25545 (   17488578).
MG BCs: -ve charge blocks (gridpoints):      8576 (    1102837).
MG BCs:     Elided blocks (gridpoints):    189687 (  192112130).
MG BCs: Computational effort saved:  99.9838%.
MG BCs: Charge after coarse-graining:           -9.0006841.
MG DL_MG: Calling solver with defect correction order = 8
MG DL_MG: Solver finished
MG Hartree energy from (\int phi*rho dr):              1257.202615
MG Hartree energy from (\int eps (grad phi)^2 dr):     1256.560529
MG Discrepancy due to finite box and discretization:     -0.642086 (  -0.05107%)
MG Correction to account for finite box:                  0.464226
MG Remaining discrepancy, due to discretization:         -0.177860 (  -0.01415%)
     Trial step:       0.614362101689
             Q1:  -11714.553981553065
 Quadratic coef:       0.023674213049
 Linear coef   :      -0.072832310410
           Qmin:  -11714.560839525051
Quadratic minimum step length (  0.945024259123) accepted
    Initial Ne1:    7233.99998393
      Final Ne1:    7234.00000000

=================== Penalty functional idempotency correction ==================
 RMS occupancy error at iteration   1:  0.001066 (step -0.4442 Ne1=   7234.0000)
 RMS occupancy error at iteration   2:  0.000013 (step -0.4999 Ne1=   7234.0000)
            Final RMS occupancy error   :  0.000000 (Ne1=   7234.0000)
               Final occupancy bounds   : [ -0.0000,  1.0000]
================================================================================

    4        -1.171450482346E+04     5.2719E-05     4.7683E-05    -8.2022E-02
MG BCs: +ve charge blocks (gridpoints):     25543 (   17488491).
MG BCs: -ve charge blocks (gridpoints):      8573 (    1102820).
MG BCs:     Elided blocks (gridpoints):    189689 (  192112234).
MG BCs: Computational effort saved:  99.9838%.
MG BCs: Charge after coarse-graining:           -9.0006841.
MG DL_MG: Calling solver with defect correction order = 8
MG DL_MG: Solver finished
MG Hartree energy from (\int phi*rho dr):              1257.221296
MG Hartree energy from (\int eps (grad phi)^2 dr):     1256.579354
MG Discrepancy due to finite box and discretization:     -0.641941 (  -0.05106%)
MG Correction to account for finite box:                  0.464164
MG Remaining discrepancy, due to discretization:         -0.177777 (  -0.01414%)
      ideal mu1:      -0.714069742194
             Q0:  -11714.559691762086
             G0:      -0.164055388753
   RMS gradient:       0.000062188923
MG BCs: +ve charge blocks (gridpoints):     25544 (   17491036).
MG BCs: -ve charge blocks (gridpoints):      8568 (    1101932).
MG BCs:     Elided blocks (gridpoints):    189688 (  192110577).
MG BCs: Computational effort saved:  99.9838%.
MG BCs: Charge after coarse-graining:           -9.0006836.
MG DL_MG: Calling solver with defect correction order = 8
MG DL_MG: Solver finished
MG Hartree energy from (\int phi*rho dr):              1258.690117
MG Hartree energy from (\int eps (grad phi)^2 dr):     1258.048624
MG Discrepancy due to finite box and discretization:     -0.641494 (  -0.05097%)
MG Correction to account for finite box:                  0.463834
MG Remaining discrepancy, due to discretization:         -0.177659 (  -0.01411%)
     Trial step:       0.761962656554
             Q1:  -11714.617733390885
 Quadratic coef:       0.066962451037
 Linear coef   :      -0.125004079836
           Qmin:  -11714.618030501684
Quadratic minimum step length (  0.711207843175) accepted
    Initial Ne1:    7234.00000247
      Final Ne1:    7234.00000000

=================== Penalty functional idempotency correction ==================
 RMS occupancy error at iteration   1:  0.003035 (step -0.3685 Ne1=   7234.0000)
 RMS occupancy error at iteration   2:  0.000070 (step -0.4995 Ne1=   7234.0000)
 RMS occupancy error at iteration   3:  0.000000 (step -0.5000 Ne1=   7234.0000)
            Final RMS occupancy error   :  0.000000 (Ne1=   7234.0000)
               Final occupancy bounds   : [  0.0000,  1.0000]
================================================================================

    5        -1.171455969176E+04     6.2189E-05     5.6249E-05    -5.4868E-02
MG BCs: +ve charge blocks (gridpoints):     25544 (   17490869).
MG BCs: -ve charge blocks (gridpoints):      8569 (    1101964).
MG BCs:     Elided blocks (gridpoints):    189688 (  192110712).
MG BCs: Computational effort saved:  99.9838%.
MG BCs: Charge after coarse-graining:           -9.0006837.
MG DL_MG: Calling solver with defect correction order = 8
MG DL_MG: Solver finished
MG Hartree energy from (\int phi*rho dr):              1258.591533
MG Hartree energy from (\int eps (grad phi)^2 dr):     1257.950000
MG Discrepancy due to finite box and discretization:     -0.641533 (  -0.05097%)
MG Correction to account for finite box:                  0.463868
MG Remaining discrepancy, due to discretization:         -0.177665 (  -0.01412%)
      ideal mu1:      -0.715457434716
             Q0:  -11714.621265329304
             G0:      -0.134163145277
   RMS gradient:       0.000052492300
MG BCs: +ve charge blocks (gridpoints):     25544 (   17491148).
MG BCs: -ve charge blocks (gridpoints):      8571 (    1102102).
MG BCs:     Elided blocks (gridpoints):    189688 (  192110295).
MG BCs: Computational effort saved:  99.9838%.
MG BCs: Charge after coarse-graining:           -9.0006836.
MG DL_MG: Calling solver with defect correction order = 8
MG DL_MG: Solver finished
MG Hartree energy from (\int phi*rho dr):              1258.402068
MG Hartree energy from (\int eps (grad phi)^2 dr):     1257.760815
MG Discrepancy due to finite box and discretization:     -0.641253 (  -0.05096%)
MG Correction to account for finite box:                  0.463503
MG Remaining discrepancy, due to discretization:         -0.177750 (  -0.01413%)
     Trial step:       0.736147959005
             Q1:  -11714.672819083557
 Quadratic coef:       0.047210171317
 Linear coef   :      -0.098763925569
           Qmin:  -11714.672918991650
Quadratic minimum step length (  0.770012692214) accepted
    Initial Ne1:    7234.00000189
      Final Ne1:    7234.00000000

=================== Penalty functional idempotency correction ==================
 RMS occupancy error at iteration   1:  0.004048 (step -0.3387 Ne1=   7234.0000)
 RMS occupancy error at iteration   2:  0.000133 (step -0.4982 Ne1=   7234.0000)
 RMS occupancy error at iteration   3:  0.000002 (step -0.5000 Ne1=   7234.0000)
            Final RMS occupancy error   :  0.000000 (Ne1=   7234.0000)
               Final occupancy bounds   : [  0.0000,  1.0000]
================================================================================

    6        -1.171462126533E+04     5.2492E-05     4.7478E-05    -6.1574E-02
MG BCs: +ve charge blocks (gridpoints):     25543 (   17491136).
MG BCs: -ve charge blocks (gridpoints):      8570 (    1102104).
MG BCs:     Elided blocks (gridpoints):    189689 (  192110305).
MG BCs: Computational effort saved:  99.9838%.
MG BCs: Charge after coarse-graining:           -9.0006836.
MG DL_MG: Calling solver with defect correction order = 8
MG DL_MG: Solver finished
MG Hartree energy from (\int phi*rho dr):              1258.389988
MG Hartree energy from (\int eps (grad phi)^2 dr):     1257.748725
MG Discrepancy due to finite box and discretization:     -0.641263 (  -0.05096%)
MG Correction to account for finite box:                  0.463513
MG Remaining discrepancy, due to discretization:         -0.177750 (  -0.01413%)
      ideal mu1:      -0.715475625569
             Q0:  -11714.679785903194
             G0:      -0.098890532905
   RMS gradient:       0.000048061845
MG BCs: +ve charge blocks (gridpoints):     25541 (   17488476).
MG BCs: -ve charge blocks (gridpoints):      8574 (    1102804).
MG BCs:     Elided blocks (gridpoints):    189691 (  192112265).
MG BCs: Computational effort saved:  99.9838%.
MG BCs: Charge after coarse-graining:           -9.0006841.
MG DL_MG: Calling solver with defect correction order = 8
MG DL_MG: Solver finished
MG Hartree energy from (\int phi*rho dr):              1257.048911
MG Hartree energy from (\int eps (grad phi)^2 dr):     1256.407692
MG Discrepancy due to finite box and discretization:     -0.641219 (  -0.05101%)
MG Correction to account for finite box:                  0.463454
MG Remaining discrepancy, due to discretization:         -0.177765 (  -0.01414%)
     Trial step:       0.752889946660
             Q1:  -11714.707036874024
 Quadratic coef:       0.047202717215
 Linear coef   :      -0.074453688044
           Qmin:  -11714.709145185829
Quadratic minimum step length (  0.593773372890) accepted
    Initial Ne1:    7233.99999966
      Final Ne1:    7234.00000000

=================== Penalty functional idempotency correction ==================
 RMS occupancy error at iteration   1:  0.000059 (step -0.4965 Ne1=   7234.0000)
            Final RMS occupancy error   :  0.000000 (Ne1=   7234.0000)
               Final occupancy bounds   : [ -0.0000,  1.0000]
================================================================================

    7        -1.171467978590E+04     4.8062E-05     4.3471E-05    -5.8521E-02
MG BCs: +ve charge blocks (gridpoints):     25542 (   17489035).
MG BCs: -ve charge blocks (gridpoints):      8574 (    1102652).
MG BCs:     Elided blocks (gridpoints):    189690 (  192111858).
MG BCs: Computational effort saved:  99.9838%.
MG BCs: Charge after coarse-graining:           -9.0006840.
MG DL_MG: Calling solver with defect correction order = 8
MG DL_MG: Solver finished
MG Hartree energy from (\int phi*rho dr):              1257.329655
MG Hartree energy from (\int eps (grad phi)^2 dr):     1256.688426
MG Discrepancy due to finite box and discretization:     -0.641229 (  -0.05100%)
MG Correction to account for finite box:                  0.463468
MG Remaining discrepancy, due to discretization:         -0.177761 (  -0.01414%)
      ideal mu1:      -0.714530478351
             Q0:  -11714.709174374235
             G0:      -0.084104936320
   RMS gradient:       0.000044317273
MG BCs: +ve charge blocks (gridpoints):     25542 (   17488703).
MG BCs: -ve charge blocks (gridpoints):      8575 (    1102683).
MG BCs:     Elided blocks (gridpoints):    189690 (  192112159).
MG BCs: Computational effort saved:  99.9838%.
MG BCs: Charge after coarse-graining:           -9.0006841.
MG DL_MG: Calling solver with defect correction order = 8
MG DL_MG: Solver finished
MG Hartree energy from (\int phi*rho dr):              1257.087329
MG Hartree energy from (\int eps (grad phi)^2 dr):     1256.446202
MG Discrepancy due to finite box and discretization:     -0.641128 (  -0.05100%)
[...]
MG Discrepancy due to finite box and discretization:     -0.183419 (  -0.01509%)
MG Correction to account for finite box:                  0.006247
MG Remaining discrepancy, due to discretization:         -0.177171 (  -0.01457%)
             Q2:  -11749.564988792525
  Cubic LS coeff:       0.907406768370
Predicted energy:  -11749.564988792552
Cubic minimum step length accepted
    Initial Ne1:    7234.00000000
      Final Ne1:    7234.00000000

=================== Penalty functional idempotency correction ==================
 RMS occupancy error at iteration   1:  0.000000 (step -0.5000 Ne1=   7234.0000)
            Final RMS occupancy error   :  0.000000 (Ne1=   7234.0000)
               Final occupancy bounds   : [  0.0000,  1.0000]
================================================================================

    7        -1.174956498879E+04     9.2874E-09     8.4002E-09    -2.3283E-09

Reusing previously generated solute cavity.
MG BCs: +ve charge blocks (gridpoints):     29704 (   19770134).
MG BCs: -ve charge blocks (gridpoints):      8565 (    1070957).
MG BCs:     Elided blocks (gridpoints):    185528 (  189862454).
MG BCs: Computational effort saved:  99.9818%.
MG BCs: Charge after coarse-graining:           -9.0009877.
MG DL_MG: Calling solver with defect correction order = 8
MG DL_MG: Solver finished
MG Hartree energy from (\int phi*rho dr):              1215.746327
MG Hartree energy from (\int eps (grad phi)^2 dr):     1215.562908
MG Discrepancy due to finite box and discretization:     -0.183419 (  -0.01509%)
MG Correction to account for finite box:                  0.006247
MG Remaining discrepancy, due to discretization:         -0.177171 (  -0.01457%)
      ideal mu1:      -0.481705859398
             Q0:  -11749.564988792408
             G0:      -0.000000004499
   RMS gradient:       0.000000009824

Reusing previously generated solute cavity.
MG BCs: +ve charge blocks (gridpoints):     29704 (   19770133).
MG BCs: -ve charge blocks (gridpoints):      8565 (    1070957).
MG BCs:     Elided blocks (gridpoints):    185528 (  189862455).
MG BCs: Computational effort saved:  99.9818%.
MG BCs: Charge after coarse-graining:           -9.0009877.
MG DL_MG: Calling solver with defect correction order = 8
MG DL_MG: Solver finished
MG Hartree energy from (\int phi*rho dr):              1215.746294
MG Hartree energy from (\int eps (grad phi)^2 dr):     1215.562875
MG Discrepancy due to finite box and discretization:     -0.183419 (  -0.01509%)
MG Correction to account for finite box:                  0.006247
MG Remaining discrepancy, due to discretization:         -0.177171 (  -0.01457%)
     Trial step:       0.660135791239
             Q1:  -11749.564988793922
 Quadratic coef:       0.000000001457
 Linear coef   :      -0.000000002970
           Qmin:  -11749.564988793922
Quadratic minimum step length (  0.672876357583) accepted
    Initial Ne1:    7234.00000000
      Final Ne1:    7234.00000000

=================== Penalty functional idempotency correction ==================
 RMS occupancy error at iteration   1:  0.000000 (step -0.5000 Ne1=   7234.0000)
            Final RMS occupancy error   :  0.000000 (Ne1=   7234.0000)
               Final occupancy bounds   : [  0.0000,  1.0000]
================================================================================

    8        -1.174956498879E+04     9.8238E-09     8.8854E-09    -3.8417E-09

Reusing previously generated solute cavity.
MG BCs: +ve charge blocks (gridpoints):     29704 (   19770133).
MG BCs: -ve charge blocks (gridpoints):      8565 (    1070957).
MG BCs:     Elided blocks (gridpoints):    185528 (  189862455).
MG BCs: Computational effort saved:  99.9818%.
MG BCs: Charge after coarse-graining:           -9.0009877.
MG DL_MG: Calling solver with defect correction order = 8
MG DL_MG: Solver finished
MG Hartree energy from (\int phi*rho dr):              1215.746294
MG Hartree energy from (\int eps (grad phi)^2 dr):     1215.562875
MG Discrepancy due to finite box and discretization:     -0.183419 (  -0.01509%)
MG Correction to account for finite box:                  0.006247
MG Remaining discrepancy, due to discretization:         -0.177171 (  -0.01457%)
      ideal mu1:      -0.481705820212
             Q0:  -11749.564988793922
             G0:      -0.000000002063
   RMS gradient:       0.000000005756

Reusing previously generated solute cavity.
MG BCs: +ve charge blocks (gridpoints):     29704 (   19770133).
MG BCs: -ve charge blocks (gridpoints):      8565 (    1070957).
MG BCs:     Elided blocks (gridpoints):    185528 (  189862455).
MG BCs: Computational effort saved:  99.9818%.
MG BCs: Charge after coarse-graining:           -9.0009877.
MG DL_MG: Calling solver with defect correction order = 8
MG DL_MG: Solver finished
MG Hartree energy from (\int phi*rho dr):              1215.746291
MG Hartree energy from (\int eps (grad phi)^2 dr):     1215.562872
MG Discrepancy due to finite box and discretization:     -0.183419 (  -0.01509%)
MG Correction to account for finite box:                  0.006247
MG Remaining discrepancy, due to discretization:         -0.177171 (  -0.01457%)
     Trial step:       0.666475631002
             Q1:  -11749.564988794038
 Quadratic coef:       0.000000001259
 Linear coef   :      -0.000000001375
           Qmin:  -11749.564988794296
Quadratic minimum step length (  0.364007252242) accepted
    Initial Ne1:    7234.00000000
      Final Ne1:    7234.00000000

=================== Penalty functional idempotency correction ==================
 RMS occupancy error at iteration   1:  0.000000 (step -0.5000 Ne1=   7234.0000)
            Final RMS occupancy error   :  0.000000 (Ne1=   7234.0000)
               Final occupancy bounds   : [ -0.0000,  1.0000]
================================================================================

    9        -1.174956498879E+04     5.7558E-09     5.2060E-09    -1.5134E-09

Reusing previously generated solute cavity.
MG BCs: +ve charge blocks (gridpoints):     29704 (   19770133).
MG BCs: -ve charge blocks (gridpoints):      8565 (    1070957).
MG BCs:     Elided blocks (gridpoints):    185528 (  189862455).
MG BCs: Computational effort saved:  99.9818%.
MG BCs: Charge after coarse-graining:           -9.0009877.
MG DL_MG: Calling solver with defect correction order = 8
MG DL_MG: Solver finished
MG Hartree energy from (\int phi*rho dr):              1215.746292
MG Hartree energy from (\int eps (grad phi)^2 dr):     1215.562873
MG Discrepancy due to finite box and discretization:     -0.183419 (  -0.01509%)
MG Correction to account for finite box:                  0.006247
MG Remaining discrepancy, due to discretization:         -0.177171 (  -0.01457%)
      ideal mu1:      -0.481705819806
   10        -1.174956498879E+04     4.0504E-09     3.6635E-09    -2.3283E-10
Finished density kernel iterations (  10)

Writing density kernel to file "complex_12261.dkn" ... done


>>> Density kernel optimised for the current NGWF basis:
     ~~~~~~~~~~~~~~~~~~~~~~~~~~~~~~~~~~~~~~~~~~~~~~~~~~~~~~~~~~~
     Total energy                =  -1.17495649887942E+04  Eh
     Estimated bandgap           =   9.1589E-02  Eh
     RMS occupancy error         =   6.1297E-16
     [H,K] commutator            =   3.6635E-09
     Occupancy bounds            = [ -0.000:  1.000]
     ~~~~~~~~~~~~~~~~~~~~~~~~~~~~~~~~~~~~~~~~~~~~~~~~~~~~~~~~~~~




################################################################################
########################### NGWF CG iteration  004 #############################
################################################################################
****** Reciprocal space K.E. preconditioning with k_zero =  3.5000 a0^-1 *******

>>> Checking for convergence of NGWFs: 
           ........................................................
           |         *** NGWF optimisation converged ***          |
           | RMS NGWF gradient =    0.00000194352546              |
           | Criteria satisfied:                                  |
           | -> RMS NGWF gradient lower than set threshold.       |
           ========================================================

Reusing previously generated solute cavity.
MG BCs: +ve charge blocks (gridpoints):     29704 (   19770133).
MG BCs: -ve charge blocks (gridpoints):      8565 (    1070957).
MG BCs:     Elided blocks (gridpoints):    185528 (  189862455).
MG BCs: Computational effort saved:  99.9818%.
MG BCs: Charge after coarse-graining:           -9.0009877.
MG DL_MG: Calling solver with defect correction order = 8
MG DL_MG: Solver finished
MG Hartree energy from (\int phi*rho dr):              1215.746292
MG Hartree energy from (\int eps (grad phi)^2 dr):     1215.562873
MG Discrepancy due to finite box and discretization:     -0.183419 (  -0.01509%)
MG Correction to account for finite box:                  0.006247
MG Remaining discrepancy, due to discretization:         -0.177171 (  -0.01457%)

================================================================================
           ---------------- ENERGY COMPONENTS (Eh) ----------------
           | Kinetic                    :     8582.31726092947429 |
           | Pseudo. (local,OBC,corr'd) :    -5083.34315342358059 |
           | Pseudopotential (non-local):     1411.36599380836469 |
           | Hartree (molecular)        :     1215.74629238209332 |
           | Exchange-correlation       :    -3377.28194748130318 |
           | Ion-ion (open BC)          :   829155.35335423110519 |
           | Dispersion Correction      :       -3.26251473371858 |
           | Smeared ion non-self corr. :  -829107.18492025043815 |
           | Smeared ion self corr.     :   -14543.93950988473262 |
           | Solvent cavitation energy  :        2.36291249141849 |
           | Solute-solvent dis-rep en. :       -1.69875686289304 |
           | Total                      :   -11749.56498879417086 |
           --------------------------------------------------------
           ------ LOCAL ENERGY COMPONENTS FROM MATRIX TRACES ------
           | Pseudopotential (local)    :    -5083.34315342357786 |
           | Hartree                    :    -2004.07355293144383 |
           --------------------------------------------------------
           Integrated density           :     7233.99999999881766
           Integrated density tr(KS)    :     7234.00000000000000
================================================================================


                        <<<<< CALCULATION SUMMARY >>>>>                         
|ITER|    RMS GRADIENT   |     TOTAL ENERGY    |   step   |     Epredicted              
   0     0.00004099539529 -11749.49568959092721   0.641669 -11749.55560842076375        
   1     0.00000936124404 -11749.56451518600807   0.080374 -11749.56490653513356        
   2     0.00000424266313 -11749.56497101986315   0.015554 -11749.56498657548946        
   3     0.00000194352546 -11749.56498879415449  <-- CG                                 

=================== Finished the calculation in solvent ========================
= Adjusting the following parameters: 
= read_denskern: F
= read_tightbox_ngwfs: F
= maxit_pen: 0 (restored to user-specified value)
= restart read filename prefix: ""
= restart write filename prefix: ""
================================================================================

================================================================================
IS: Calculation in solvent completed (NGWFs converged).      

Individual components of total energy in solvent:     hartree           kcal/mol
- Usual non-electrostatic DFT terms:    -12965.97543680477247    -8136272.250547
- Electrostatic fixed charge energy:      1215.74629238209332      762892.299976
- Apolar cavitation energy:                  2.36291249141849        1482.749943
- Apolar dispersion-repulsion energy:       -1.69875686289304       -1065.986002
 -------------------------------------------------------------------------------
- Total energy in solvent:              -11749.56498879415449    -7372963.186631

Components of total energy in solvent:                hartree           kcal/mol
- Usual non-electrostatic DFT terms:    -12965.97543680477247    -8136272.250547
- Electrostatic energy:                   1215.74629238209332      762892.299976
- Apolar energy terms:                       0.66415562852545         416.763940
 -------------------------------------------------------------------------------
- Total energy in solvent:              -11749.56498879415449    -7372963.186631

Calculation of free energy of solvation:              hartree           kcal/mol
- Total energy in solvent:         (+)  -11749.56498879415449    -7372963.186631
- Total energy in vacuum:          (-)  -11745.48435234010685    -7370402.548652
 -------------------------------------------------------------------------------
- Total free energy of solvation:           -4.08063645404764       -2560.637980

Components of polar term in f.e. of solvation:        hartree           kcal/mol
- Electrostatic:                            -4.81564959152638       -3021.865677
- Change in nonelectrostatic DFT terms:      0.07085750895385          44.463757
 -------------------------------------------------------------------------------
- Polar term in f.e. of solvation:          -4.74479208257253       -2977.401920

Components of free energy of solvation:               hartree           kcal/mol
- Polar term in f.e. of solvation: (+)      -4.74479208257253       -2977.401920
- Apolar (cavitation, dis., rep.): (+)       0.66415562852545         416.763940
 -------------------------------------------------------------------------------
- Total free energy of solvation:           -4.08063645404708       -2560.637980
================================================================================


------------------------------ TIMING INFORMATION ------------------------------
AVERAGE TIME:   33950.048s on     60 node(s)                                    
TOTAL TIME:     33950.048s on     60 node(s)                                    
================= AVERAGE TIMINGS FROM ALL NODES (CUMULATIVE) ==================
|| TAG                                    #calls    cpu time   %total  Gflops ||
|| work_imbalance                       :     1        0.00s   0.000%  ------ ||
|| sparse_set_to_garbage                :   182        0.03s   0.000%  ------ ||
|| parallel_prepare_fd_halos_request    :  1953        0.03s   0.000%  ------ ||
|| parallel_prepare_fd_halos_alloc      :  1953        0.10s   0.000%  ------ ||
|| ngwfs_initialise_from_radial         :     1        0.12s   0.000%  ------ ||
|| basis_extract_function_from_box      :  3598        0.16s   0.000%  ------ ||
|| parallel_prepare_fd_halos_satisfy    :  1953        0.61s   0.002%  ------ ||
|| pseudopotentials_nonlocal_mat        :    31        1.19s   0.003%  ------ ||
|| openbc_locps_radial                  :     1        3.13s   0.009%  ------ ||
|| density_init_guess_real              :     1        3.87s   0.011%  ------ ||
|| restart_kernel_read                  :     1        4.50s   0.013%  ------ ||
|| restart_ngwfs_tightbox_input         :     1        6.62s   0.019%  ------ ||
|| parallel_prepare_fd_halos_comms_imbal:  1953        9.75s   0.029%  ------ ||
|| parallel_prepare_fd_halos_clear      :  1953       20.65s   0.061%  ------ ||
|| sparse_init                          :     2       22.31s   0.066%  ------ ||
|| parallel_prepare_fd_halos_comms_wait :  1953       29.27s   0.086%  ------ ||
|| projectors_func_ovlp_box             :    31       29.44s   0.087%  ------ ||
|| projectors_init_fftbox_recip         :   143       29.57s   0.087%  ------ ||
|| function_ops_brappd_ketppd           :    31       31.24s   0.092%  ------ ||
|| palser_mano_kernel_optimise          :     1       34.12s   0.100%  ------ ||
|| basis_copy_function_to_box           : 58668       45.05s   0.133%  ------ ||
|| ngwf_gradient_coeffs                 :    16       48.67s   0.143%  ------ ||
|| pseudo_make_structure_factor         :     2       55.71s   0.164%  ------ ||
|| fourier_apply_box_pair               :  5194       57.83s   0.170% 590.001 ||
|| parallel_prepare_fd_halos            :  1953       60.43s   0.178%  ------ ||
|| sparse_embed_hotelling_invert_embed  :    31       76.78s   0.226%  ------ ||
|| restart_kernel_write                 :    17      101.10s   0.298%  ------ ||
|| finite_difference_derivative         :  1953      137.68s   0.406%  ------ ||
|| integrals_kinetic                    :    31      158.49s   0.467%  ------ ||
|| basis_dot_function_with_box          : 8.910M     169.43s   0.499%  ------ ||
|| projectors_gradient_batch            :   112      184.93s   0.545%  ------ ||
|| sparse_trace                         :  5558      192.60s   0.567%  ------ ||
|| fourier_apply_cell_backward          :  1303      203.89s   0.601%  95.423 ||
|| fourier_apply_cell_forward           :  1301      234.35s   0.690%  82.893 ||
|| openbc_locps_on_grid                 :     2      284.75s   0.839%  ------ ||
|| kernel_purify                        :   496      296.55s   0.873%  ------ ||
|| basis_add_function_to_box            : 18.57M     400.80s   1.181%  ------ ||
|| lnv_gradient_norm                    :   160      426.75s   1.257%  ------ ||
|| xc_energy_potential                  :   325      510.48s   1.504%  ------ ||
|| hamiltonian_energy_components        :     4      532.92s   1.570%  ------ ||
|| kernel_fix                           :   160      566.84s   1.670%  ------ ||
|| integrals_locpot_mat_els_batch       :  1183      700.94s   2.065%  ------ ||
|| ngwf_gradient_build_batch            :   112      844.18s   2.487%  ------ ||
|| restart_ngwfs_tightbox_output        :    14      990.78s   2.918%  ------ ||
|| ngwf_gradient_batch                  :   112     1158.80s   3.413%  ------ ||
|| density_batch_row_sums               :  2268     1254.12s   3.694%  ------ ||
|| ngwf_gradient_lnv                    :    16     1299.20s   3.827%  ------ ||
|| cell_grid_deposit_box_real           : 37636     1374.74s   4.049%  ------ ||
|| sparse_product                       :  6817     1876.27s   5.527%  ------ ||
|| density_fftbox_deposit_to_cell       : 35640     2164.87s   6.377%  ------ ||
|| cell_grid_extract_box_real           : 41150     2205.69s   6.497%  ------ ||
|| potential_apply_to_ngwf_batch        :  1183     4087.47s  12.040%  ------ ||
|| density_fftbox_interpolate_multiply  : 35640     4187.10s  12.333%  ------ ||
|| integrals_locpot_dbl_grid            :   169     4811.98s  14.174%  ------ ||
|| fourier_apply_box                    : 122.5k    5046.97s  14.866% 771.747 ||
|| multigrid_prepare_bound_cond         :   325     5332.34s  15.706%  ------ ||
|| density_batch_interp_deposit         :  2268     7339.77s  21.619%  ------ ||
|| dl_mg_solver_calls                   :   325     8237.15s  24.263%  ------ ||
|| density_on_dbl_grid                  :   324     8873.94s  26.138%  ------ ||
|| multigrid_calculate_hartree          :   325    13756.84s  40.521%  ------ ||
|| hamiltonian_lhxc_calculate           :   320    23077.89s  67.976%  ------ ||
|| lnv_denskernel_optimise_cg           :    16    28656.27s  84.407%  ------ ||
|| ngwf_cg_optimise                     :     2    32970.38s  97.114%  ------ ||
|| total_time                           :     1    33950.05s 100.000%  ------ ||
================================================================================
Overhead of generating timer report: 
- 0 ms averaging over threads,
- 15 ms ensuring consistency across MPI ranks,
- 0 ms printing in order.

Job completed: 05-05-2020 02:03 (+0100)

Application 40479378 network throttled: 10 nodes throttled, 00:03:20 node-seconds
Application 40479378 resources: utime ~7003574s, stime ~342653s, Rss ~4199108, inblocks ~322075291, outblocks ~69188993
