 +---------------------------------------------------------------+
 |                                                               |
 |        ####### #     # ####### ####### ####### ######         |
 |        #     # ##    # #          #    #       #     #        |
 |        #     # # #   # #          #    #       #     #        |
 |        #     # #  #  # #####      #    #####   ######         |
 |        #     # #   # # #          #    #       #              |
 |        #     # #    ## #          #    #       #              |
 |        ####### #     # #######    #    ####### #              |
 |                                                               |
 |        Linear-Scaling Ab Initio Total Energy Program          |
 |                                                               |
 |          Release for academic collaborators of ODG            |
 |                                             Version 5.3.2.6.  |
 |                                                               |
 +---------------------------------------------------------------+
 |                                                               |
 |  Authors:                                                     |
 |  Jacek Dziedzic, Peter D. Haynes, Nicholas D. M. Hine,        |
 |  Arash. A. Mostofi, Mike C. Payne and Chris-Kriton Skylaris   |
 |                                                               |
 |  Contributors:                                                |
 |  J. Aarons, L. Andrinopoulos, P. W. Avraam, R. A. Bell,       |
 |  A. Bhandari, G. A. Bramley, R. J. Charlton, S. J. Clark,     |
 |  R. J. Clements, G. C. Constantinescu, F. Corsetti,           |
 |  N. Corsini, O. Dieguez, S. M. M. Dubois, K. K. B. Duff,      |
 |  J. M. Escartin, A. Greco, H. Helal, Q. O. Hill, L. P. Lee,   |
 |  J.-H. Li, E. B. Linscott, G. Moynihan, D. D. O`Regan,        |
 |  O. K. Okan, M. J. S. Phipps, C. J. Pickard,                  |
 |  J. C. A. Prentice, M. I. J. Probert, L. E. Ratcliff,         |
 |  M. Robinson, A. Ruiz Serrano, J. S. Spencer, E. W. Tait,     |
 |  G. Teobaldi, D. Turban, V. Vitale, K. A. Wilkinson,          |
 |  C. Weber, J. C. Womack, N. Yeung and T. J. Zuehlsdorff       |
 |                                                               |
 |                                   Copyright (c) 2004-2019     |
 |                                                               |
 |  Please cite:                                                 |
 |  "Introducing ONETEP: Linear-scaling density functional       |
 |   simulations on parallel computers".                         |
 |   C.-K. Skylaris, P. D. Haynes, A. A. Mostofi, M. C. Payne.   |
 |   J. Chem. Phys. 122 084119 (2005).                           |
 |                                                               |
 |          in all publications arising from your use of ONETEP. |
 |                                                               |
 +---------------------------------------------------------------+
 |                                                               |
 |   ONETEP is based on developments described in the following  |
 |   publications:                                               |
 |                                                               |
 |  "Nonorthogonal generalized Wannier function pseudopotential  |
 |   plane-wave method".                                         |
 |   C.-K. Skylaris, A. A. Mostofi, P. D. Haynes, O. Dieguez,    |
 |   M. C. Payne.                                                |
 |   Phys. Rev. B 66 035119 (2002).                              |
 |                                                               |
 |  "Preconditioned iterative minimization for linear-scaling    |
 |   electronic structure calculations".                         |
 |   A. A. Mostofi, P. D. Haynes, C.-K. Skylaris, M. C. Payne.   |
 |   J. Chem. Phys. 119(17), pp.8842-8848 (2003).                |
 |                                                               |
 |  "Total-energy calculations on a real space grid with         |
 |   localized functions and a plane-wave basis".                |
 |   A. A. Mostofi, C.-K. Skylaris, P. D. Haynes, M. C. Payne.   |
 |   Comput. Phys. Commun. 147, pp.788-802 (2002).               |
 |                                                               |
 |  "Accurate kinetic energy evaluation in electronic structure  |
 |   calculations with localized functions on real space grids"  |
 |   C.-K. Skylaris, A. A. Mostofi, P. D. Haynes, C. J. Pickard, |
 |   M. C. Payne.                                                |
 |   Comput. Phys. Commun. 140, pp.315-322 (2001).               |
 |                                                               |
 |  "Accurate ionic forces and geometry optimization in linear-  |
 |   scaling density-functional theory with local orbitals"      |
 |   N. D. M. Hine, M. Robinson, P. D. Haynes, C.-K. Skylaris,   |
 |   M. C. Payne, and A. A. Mostofi.                             |
 |   Phys. Rev. B 83 195102 (2011).                              |
 |                                                               |
 +---------------------------------------------------------------+

Job started: 07-05-2020 05:58 (+0100)
 
Reading parameters from file "complex_25181.dat" ...... done

If your calculation crashes here, before "Checking processes and threads..."
is displayed, then your stack size is insufficient.
If so, use "ulimit -s unlimited" at runtime.
You can disable this check with "check_stack_size F".

Checking processes and threads...
   Determining the default number of threads...
      No default threads set at compilation time: defaulting to 1.
      OpenMP library call suggests 4 threads.
      Hybrid MPI-OpenMP compilation detected.
      Number of MPI processes > 1.
      OMP_NUM_THREADS environment variable present and
      its value matches the one obtained from the OpenMP library call.
      Using this value as default.
      Default threads: 4
      Default applies to threads_max and threads_num_fftboxes.
      Settings in the input file override this default.
   ... done

   Running with 40 MPI processes.
   There are 10 MPI processes running on the same node as the root process.
   Each MPI process is using: 
               1 threads for simulation cell FFTs.
               1 threads for parallel FFT box operations.
               4 threads for loops over batched FFT box operations.
               4 threads in other parallel regions.
... done

Basic input checks...... done

Reading geometry and species blocks from file "complex_25181.dat" ...
  <species_atomic_set> block not found: NGWF initialisation set to SOLVE
IS: Dielectric excluded regions:
    - NONE.
    
  Number of PPD points along a3 set to 1.  This is 
  the default value, it may have been provided also in the input file.
... done
 Writing xyz coordinates to file "complex_25181.xyz" ... done


--------------------------------------------------------------------------------
---------------------------------- INPUT FILE ----------------------------------
--------------------------------------------------------------------------------

cutoff_energy       : 800 eV                                                    
xc_functional PBE                                                               
task SINGLEPOINT                                                                
write_xyz true                                                                  
output_detail VERBOSE                                                           
ngwf_threshold_orig : 0.000002                                                  
kernel_cutoff       : 1000                                                      
k_zero              : 3.5                                                       
elec_cg_max 0                                                                   
occ_mix 1.0                                                                     
dispersion 1                                                                    
maxit_ngwf_cg 40                                                                
minit_lnv 10                                                                    
maxit_lnv 10                                                                    
write_denskern T                                                                
write_tightbox_ngwfs T                                                          
charge 9                                                                        
is_implicit_solvent T                                                           
is_auto_solvation T                                                             
is_include_apolar T                                                             
is_smeared_ion_rep T                                                            
is_solvent_surf_tension 4.7624E-5 Ha/bohr**2                                    
is_apolar_scaling_factor 0.281075                                               
is_solvation_beta 1.3                                                           
is_density_threshold 0.00035                                                    
is_bulk_permittivity 78.54                                                      
is_dielectric_model fix_initial                                                 
is_smeared_ion_width 0.8                                                        
mg_defco_fd_order 8                                                             
is_bc_coarseness 10                                                             
is_bc_surface_coarseness 1                                                      
fine_grid_scale 2.0                                                             
%block species                                                                  
N   N   7 4 8.0                                                                 
H   H   1 1 8.0                                                                 
C   C   6 4 8.0                                                                 
S   S  16 9 8.0                                                                 
O   O   8 4 8.0                                                                 
%endblock species                                                               
%block species_pot                                                              
N   N_00.recpot                                                                 
H   H_04.recpot                                                                 
C   C_01.recpot                                                                 
S   S_00.recpot                                                                 
O   O_02.recpot                                                                 
%endblock species_pot                                                           
%block lattice_cart                                                             
142.669   0.000   0.000                                                         
0.000 146.65   0.000                                                            
0.000   0.000   162.396                                                         
%endblock lattice_cart                                                          
%block positions_abs                                                            
     Hash =  -000006266961312088952084
%endblock positions_abs                                                         

--------------------------------------------------------------------------------
-------------------------------- END INPUT FILE --------------------------------
--------------------------------------------------------------------------------


 
 ESDF WARNING(1): "kernelcutoff" (esdf_physical) has no units. Assume "bohr".
 ESDF WARNING(2): "kzero" (esdf_physical) has no units. Assume "1/bohr".
 ESDF WARNING(3
 ): "issmearedionwidth" (esdf_physical) has no units. Assume "bohr".
<<<<<<<<<<<<<<<<<<<<<<<<<<<<<<<<< Full system >>>>>>>>>>>>>>>>>>>>>>>>>>>>>>>>>>
<<<<<<<<<<<<<<<<<<<<<<<<< Pseudopotential information >>>>>>>>>>>>>>>>>>>>>>>>>>
File: N_00.recpot [ 2001 points up to Gmax=  52.9 (1/bohr)]
  Atomic number:  7;  ionic charge:  5.000000
    Shell 1: l = 0; rc = 1.48 bohr
File: H_04.recpot [ 2001 points up to Gmax=  52.9 (1/bohr)]
  Atomic number:  1;  ionic charge:  1.000000
    Local potential
File: C_01.recpot [ 2001 points up to Gmax=  52.9 (1/bohr)]
  Atomic number:  6;  ionic charge:  4.000000
    Shell 1: l = 0; rc = 1.48 bohr
File: S_00.recpot [ 2001 points up to Gmax=  52.9 (1/bohr)]
  Atomic number: 16;  ionic charge:  6.000000
    Shell 1: l = 0; rc = 1.90 bohr
    Shell 2: l = 2; rc = 1.84 bohr
File: O_02.recpot [ 2001 points up to Gmax=  52.9 (1/bohr)]
  Atomic number:  8;  ionic charge:  6.000000
    Shell 1: l = 0; rc = 1.31 bohr
<<<<<<<<<<<<<<<<<<<<<<<<<<<<<<<<<<<<<<<<>>>>>>>>>>>>>>>>>>>>>>>>>>>>>>>>>>>>>>>>

-------------------------- Atom counting information ---------------------------
Symbol    Natoms    Nngwfs    Nprojs
  N        236       944       236
  H       1317      1317         0
  C        816      3264       816
  S          6        54        36
  O        241       964       241
.......   ......    ......    ......
Totals:   2616      6543      1329
--------------------------------------------------------------------------------

=============================== PSINC grid sizes ===============================
                      Simulation cell:  286 x 294 x 320
                              FFT-box:  105 x 105 x  99
                                  PPD:   11 x   6 x   1
Grid space d1=  0.498842657343a0 (KE cutoff=  30.52649Eh = 830.66799eV)
Grid space d2=  0.498809523810a0 (KE cutoff=  30.53054Eh = 830.77835eV)
Grid space d3=  0.507487500000a0 (KE cutoff=  29.49533Eh = 802.60885eV)
================================================================================

********************* Fourier parallelisation information **********************
       Coarse grid (whole simulation cell) dimensions:    286   294   320
          Real-space ('12') slabs/node (min max mean):      8     8     8
         Recip-space ('23') slabs/node (min max mean):      3     4     3
********************************************************************************

********************* Fourier parallelisation information **********************
       Double grid (whole simulation cell) dimensions:    572   588   640
          Real-space ('12') slabs/node (min max mean):     16    16    16
         Recip-space ('23') slabs/node (min max mean):      7     8     7
********************************************************************************
ONETEP fine grid is 572 x 588 x 640 gridpoints, 142.6690 x 146.6500 x 162.3960 bohr.
FD multigrid is     569 x 585 x 633 gridpoints, 141.9207 x 145.9018 x 160.6198 bohr.


Calculating local pseudopotential in open BC on a radial grid ...
Discrepancy between calculated realspace psloc and -Z/x on [5a0,261.215a0]:
max |rel. diff| # avg |rel. diff| #  avg rel. diff #  f # pseudopotential file
 0.000261901569    0.000004963664   0.000000071970   55  'N_00.recpot'
 0.000422260137    0.000017549664  -0.000000063361   55  'H_04.recpot'
 0.000361991046    0.000016543264   0.000000134927   55  'C_01.recpot'
 0.000447743184    0.000019132268   0.000000438157   55  'S_00.recpot'
 0.000711628927    0.000028437426   0.000000135877   55  'O_02.recpot'
... done

Atom SCF Calculation for N  : Z (AE atom) =   7 : Z (PS atom) =   5
Config String:
Orbitals (num,occ):  2     2.00 3.00
Orbitals   (num,l):  2        0    1
Real-space Grid (nr,dr,rmax): 1203    0.0066555740    8.0000000000
Spherical Bessel Basis (nsws,lmax,cutoff):   47    1  176.3951722778
Confining potential (l,width,scale):  0    3.0000000000  100.0000000000
Confining potential (l,width,scale):  1    3.0000000000  100.0000000000
  1         -4.7312375307   -3.4155304497    7.0523828109   -1.9351020946
  2         -9.7309464766   -2.0532547791    8.2966052865   -2.2494486027
  3         -9.6627394379   -2.1124926340    8.2327997121   -2.2369778124
  4         -9.6814993499   -2.1215521045    8.2229805960   -2.2365178421
  5         -9.6843326483   -2.1250939529    8.2191374534   -2.2362718126
  6         -9.6859628709   -2.1267894855    8.2172963573   -2.2362066344
  7         -9.6867347035   -2.1276425665    8.2163697352   -2.2361903369
  8         -9.6870802100   -2.1280764625    8.2158983890   -2.2361891460
  9         -9.6872290423   -2.1282977424    8.2156580222   -2.2361920435
 10         -9.6872901988   -2.1284107021    8.2155353368   -2.2361953393
 11         -9.6873135296   -2.1284684031    8.2154726809   -2.2361979819
 12         -9.6873212476   -2.1284978948    8.2154406648   -2.2361998431
 13         -9.6873229586   -2.1285129774    8.2154242957   -2.2362010676
 14         -9.6873226456   -2.1285206957    8.2154159216   -2.2362018403
 15         -9.6873218534   -2.1285246479    8.2154116349   -2.2362023142
 16         -9.6873212599   -2.1285262679    8.2154098784   -2.2362025420
 17         -9.6873207834   -2.1285272564    8.2154088068   -2.2362026955
 18         -9.6873204210   -2.1285278597    8.2154081529   -2.2362027982
 19         -9.6873201550   -2.1285282280    8.2154077538   -2.2362028667
 20         -9.6873199645   -2.1285284529    8.2154075102   -2.2362029121
 21         -9.6873198305   -2.1285285903    8.2154073614   -2.2362029421
 22         -9.6873197377   -2.1285286742    8.2154072705   -2.2362029618
Atom SCF converged after  22 iterations to a total energy of     -9.68731974

Atom SCF Calculation for H  : Z (AE atom) =   1 : Z (PS atom) =   1
Config String:
Orbitals (num,occ):  1     1.00
Orbitals   (num,l):  1        0
Real-space Grid (nr,dr,rmax): 1203    0.0066555740    8.0000000000
Spherical Bessel Basis (nsws,lmax,cutoff):   47    0  176.3951722778
Confining potential (l,width,scale):  0    3.0000000000  100.0000000000
  1         -0.3194257691   -0.2393854593    0.2820953124   -0.2424203209
  2         -0.3951823392   -0.2377116493    0.2886404059   -0.2475147891
  3         -0.4317044583   -0.2352244387    0.2921333887   -0.2514046172
  4         -0.4470703708   -0.2341892222    0.2934391879   -0.2531009782
  5         -0.4532132900   -0.2338556667    0.2938388426   -0.2537313520
  6         -0.4556579251   -0.2337612552    0.2939448584   -0.2539550462
  7         -0.4566418315   -0.2337377355    0.2939680120   -0.2540342273
  8         -0.4570437922   -0.2337331116    0.2939708287   -0.2540627372
  9         -0.4572102946   -0.2337328328    0.2939698291   -0.2540732650
 10         -0.4572800424   -0.2337332404    0.2939687193   -0.2540772588
 11         -0.4573095100   -0.2337335791    0.2939680317   -0.2540788122
 12         -0.4573220379   -0.2337337762    0.2939676699   -0.2540794294
 13         -0.4573273880   -0.2337338775    0.2939674931   -0.2540796787
 14         -0.4573296803   -0.2337339266    0.2939674099   -0.2540797808
 15         -0.4573306647   -0.2337339495    0.2939673718   -0.2540798230
 16         -0.4573310882   -0.2337339601    0.2939673545   -0.2540798406
 17         -0.4573312706   -0.2337339649    0.2939673467   -0.2540798479
 18         -0.4573313493   -0.2337339670    0.2939673433   -0.2540798510
Atom SCF converged after  18 iterations to a total energy of     -0.45733135

Atom SCF Calculation for C  : Z (AE atom) =   6 : Z (PS atom) =   4
Config String:
Orbitals (num,occ):  2     2.00 2.00
Orbitals   (num,l):  2        0    1
Real-space Grid (nr,dr,rmax): 1203    0.0066555740    8.0000000000
Spherical Bessel Basis (nsws,lmax,cutoff):   47    1  176.3951722778
Confining potential (l,width,scale):  0    3.0000000000  100.0000000000
Confining potential (l,width,scale):  1    3.0000000000  100.0000000000
  1         -5.2976922011   -1.3069684169    4.5135249990   -1.4493313817
  2         -5.3721716256   -1.3429755895    4.4750154450   -1.4361613026
  3         -5.3809959565   -1.3617365618    4.4541655428   -1.4305930207
  4         -5.3918938866   -1.3667928461    4.4484735100   -1.4294652294
  5         -5.3956096428   -1.3688539142    4.4461376126   -1.4290734646
  6         -5.3968271862   -1.3696852393    4.4451910874   -1.4289366866
  7         -5.3972028401   -1.3700178062    4.4448112275   -1.4288900460
  8         -5.3973067903   -1.3701500158    4.4446598370   -1.4288749220
  9         -5.3973286940   -1.3702023868    4.4445997329   -1.4288704293
 10         -5.3973289850   -1.3702230869    4.4445759233   -1.4288693188
 11         -5.3973254264   -1.3702312560    4.4445665049   -1.4288691775
 12         -5.3973224003   -1.3702344755    4.4445627836   -1.4288692549
 13         -5.3973208708   -1.3702354890    4.4445616088   -1.4288693270
 14         -5.3973198783   -1.3702360102    4.4445610034   -1.4288693814
 15         -5.3973192535   -1.3702362780    4.4445606917   -1.4288694190
 16         -5.3973188684   -1.3702364155    4.4445605313   -1.4288694437
 17         -5.3973186349   -1.3702364860    4.4445604489   -1.4288694595
 18         -5.3973184951   -1.3702365221    4.4445604065   -1.4288694693
 19         -5.3973184122   -1.3702365405    4.4445603848   -1.4288694753
Atom SCF converged after  19 iterations to a total energy of     -5.39731841

Atom SCF Calculation for S  : Z (AE atom) =  16 : Z (PS atom) =   6
Config String:
Orbitals (num,occ):  3     2.00 4.00 0.00
Orbitals   (num,l):  3        0    1    2
Real-space Grid (nr,dr,rmax): 1203    0.0066555740    8.0000000000
Spherical Bessel Basis (nsws,lmax,cutoff):   47    2  176.3951722778
Confining potential (l,width,scale):  0    3.0000000000  100.0000000000
Confining potential (l,width,scale):  1    3.0000000000  100.0000000000
Confining potential (l,width,scale):  2    3.0000000000  100.0000000000
  1        -12.4735062396   -1.0328741412   10.1554312477   -2.4512393157
  2         -9.9458301913   -2.4607392455    8.3041325857   -2.0306994528
  3        -10.1450417646   -2.2931184565    8.4831893826   -2.0812538287
  4        -10.1528335592   -2.2733105793    8.5050388867   -2.0896035179
  5        -10.1571940363   -2.2633716629    8.5160794258   -2.0939370707
  6        -10.1594380571   -2.2584938667    8.5215163935   -2.0961289008
  7        -10.1605856507   -2.2561081821    8.5241804044   -2.0972291378
  8        -10.1611799191   -2.2549395235    8.5254868240   -2.0977806248
  9        -10.1614918752   -2.2543658586    8.5261285885   -2.0980571586
 10        -10.1616572884   -2.2540839121    8.5264441898   -2.0981959233
 11        -10.1617455602   -2.2539453058    8.5265994231   -2.0982656006
 12        -10.1617928447   -2.2538772062    8.5266757320   -2.0983006047
 13        -10.1618182292   -2.2538437891    8.5267131983   -2.0983181961
 14        -10.1618318741   -2.2538274201    8.5267315620   -2.0983270391
 15        -10.1618392144   -2.2538194197    8.5267405433   -2.0983314852
 16        -10.1618431651   -2.2538155200    8.5267449245   -2.0983337210
 17        -10.1618452923   -2.2538136252    8.5267470551   -2.0983348455
 18        -10.1618464380   -2.2538127080    8.5267480875   -2.0983354110
 19        -10.1618470552   -2.2538122659    8.5267485856   -2.0983356955
 20        -10.1618473878   -2.2538120540    8.5267488248   -2.0983358386
 21        -10.1618475670   -2.2538119530    8.5267489389   -2.0983359106
 22        -10.1618476637   -2.2538119053    8.5267489929   -2.0983359468
Atom SCF converged after  22 iterations to a total energy of    -10.16184766

Atom SCF Calculation for O  : Z (AE atom) =   8 : Z (PS atom) =   6
Config String:
Orbitals (num,occ):  2     2.00 4.00
Orbitals   (num,l):  2        0    1
Real-space Grid (nr,dr,rmax): 1203    0.0066555740    8.0000000000
Spherical Bessel Basis (nsws,lmax,cutoff):   47    1  176.3951722778
Confining potential (l,width,scale):  0    3.0000000000  100.0000000000
Confining potential (l,width,scale):  1    3.0000000000  100.0000000000
  1         -1.8735052164   -7.5539365035   10.1554312477   -2.4512393157
  2        -16.0318313751   -3.1285771268   13.6395848164   -3.2358799643
  3        -15.9524020423   -3.0762819706   13.6967272503   -3.2536856837
  4        -15.8521515939   -3.0781493909   13.6951909330   -3.2561700440
  5        -15.8357139793   -3.0748501933   13.6988803334   -3.2580493133
  6        -15.8246052853   -3.0740779781   13.6997881576   -3.2588327446
  7        -15.8189019501   -3.0737449687   13.7001869911   -3.2592378801
  8        -15.8159785510   -3.0736026016   13.7003615168   -3.2594475790
  9        -15.8144776168   -3.0735437994   13.7004360379   -3.2595560735
 10        -15.8137058024   -3.0735207882   13.7004667348   -3.2596122456
 11        -15.8133083127   -3.0735125946   13.7004786868   -3.2596413656
 12        -15.8131032938   -3.0735102195   13.7004828997   -3.2596564858
 13        -15.8129973902   -3.0735099286   13.7004840891   -3.2596643505
 14        -15.8129426040   -3.0735102506   13.7004842061   -3.2596684489
 15        -15.8129142203   -3.0735106556   13.7004840157   -3.2596705887
 16        -15.8128994940   -3.0735109855   13.7004837906   -3.2596717080
 17        -15.8128918425   -3.0735112169   13.7004836103   -3.2596722946
 18        -15.8128878614   -3.0735113674   13.7004834848   -3.2596726026
 19        -15.8128857871   -3.0735114608   13.7004834035   -3.2596727646
 20        -15.8128847048   -3.0735115170   13.7004833533   -3.2596728500
 21        -15.8128841394   -3.0735115501   13.7004833231   -3.2596728951
 22        -15.8128838436   -3.0735115693   13.7004833054   -3.2596729190
 23        -15.8128836887   -3.0735115802   13.7004832951   -3.2596729316
 24        -15.8128836074   -3.0735115864   13.7004832893   -3.2596729383
Atom SCF converged after  24 iterations to a total energy of    -15.81288361

========================== Calculation in vacuum ==============================
= Adjusting the following parameters: 
= is_implicit_solvent: F
= is_include_apolar: F
= write_denskern: T
= write_tightbox_ngwfs: T
= restart read filename prefix: ""
= restart write filename prefix: "vacuum_"
===============================================================================

Determining parallel strategy ...
... using space-filling curve
... NGWF load balancing: max    164;  min    163;  average    164
... Projector load balancing: max     36;  min     32;  average     33
... done
Calculating direct Ion-Ion energy ...
Ion-Ion Energy        :    835363.81665978347883
======================= Empirical dispersion information =======================
Model : Elstner
Dispersion Correction Energy: -0.32921848E+01 Hartree
================================================================================
Basis initialisation ...... NGWF spheres initialised
... Projector spheres initialised
... NGWF tight boxes initialised
... Tight-boxes gathered
... NGWF basis size (local,global):    1193380  47613501
... Nonlocal pseudopotential projector initialisation
... done

========================== Sparse matrix information ===========================
                        Overlap matrix filling:   6.79%
                        Density kernel filling: 100.00%
              NGWF-Proj overlap matrix filling:   1.78%
                    Hamiltonian matrix filling:   7.69%
                  NGWF diagonal matrix filling:   0.05%
                             KS matrix filling: 100.00% 
                           KSKS matrix filling: 100.00% 
================================================================================

Sparse matrix initialisation ... done

Generating smeared ion density ... done
Smeared ion self correction:     -14543.939510
Smeared ion non-self correction: -835315.528649
NGWF initialisation ...... done
============ Calculation of NGWF S^-1 using Hotelling algorithm ================ 
         Iteration  |  Frobenius norm and Maximum abs value    (of I-S*S_n^-1)   
               1       0.78702929E+02     0.98247827E+00
               2       0.76842718E+02     0.96542049E+00
               3       0.73832956E+02     0.93261044E+00
               4       0.69558783E+02     0.87222410E+00
               5       0.64237772E+02     0.76867188E+00
               6       0.58258037E+02     0.70291983E+00
               7       0.52244790E+02     0.66929492E+00
               8       0.46687128E+02     0.64522149E+00
               9       0.40611899E+02     0.60526846E+00
              10       0.32334456E+02     0.53483254E+00
              11       0.21743765E+02     0.43331461E+00
              12       0.11121432E+02     0.29557073E+00
              13       0.36807657E+01     0.13961724E+00
              14       0.59428962E+00     0.34131515E-01
              15       0.30949842E-01     0.32280301E-02
              16       0.20531355E-03     0.31939215E-04
              17       0.15900884E-07     0.32230776E-08
              18       0.94609875E-13     0.48849813E-14
================================================================================
Calculating local pseudopotential in open BC on the fine real space grid ...
... done

MG BCs: +ve charge blocks (gridpoints):     20526 (   16162898).
MG BCs: -ve charge blocks (gridpoints):      8127 (    1102148).
MG BCs:     Elided blocks (gridpoints):    194706 (  193438499).
MG BCs: Computational effort saved:  99.9864%.
MG BCs: Charge after coarse-graining:           -9.0002235.
MG DL_MG: Calling solver with defect correction order = 8
MG DL_MG: Solver finished
MG Hartree energy from (\int phi*rho dr):              1470.830683
MG Hartree energy from (\int eps (grad phi)^2 dr):     1470.229480
MG Discrepancy due to finite box and discretization:     -0.601204 (  -0.04088%)
MG Correction to account for finite box:                  0.453525
MG Remaining discrepancy, due to discretization:         -0.147679 (  -0.01004%)
Up spin density kernel initialisation ... 
======= Optimisation of K by Palser-Manolopoulos canonical purification ======== 
         Iteration  |  Band structure energy |    c_n   
               1       -2600.96702044226822    0.5263382
               2       -2778.05648915002757    0.5166973
               3       -2958.91786494968710    0.5155094
               4       -3108.99374627503585    0.5297648
               5       -3200.35099562976575    0.5665258
               6       -3238.15773962359708    0.6104109
               7       -3251.07015749033417    0.6198499
               8       -3256.76620428186470    0.6183817
               9       -3259.51221808002629    0.6371418
              10       -3260.61378609653275    0.6672701
              11       -3261.03401189863416    0.6862506
              12       -3261.22087037391566    0.6904271
              13       -3261.31627879055213    0.6607651
              14       -3261.37488434248962    0.5971090
              15       -3261.41333004431090    0.5324690
              16       -3261.43115879938887    0.4917508
              17       -3261.43532149697876    0.4941030
              18       -3261.43657699800224    0.5000545
              19       -3261.43706536709942    0.5001326
              20       -3261.43712832548408    0.5000025
              21       -3261.43712952823125    0.5000062
              22       -3261.43712952879469    0.5000062
Termination criterion satisfied: band energy change below threshold.
Final occupancy bounds: [    0.00000000000000:    1.00000000000000]
Closest occupancy to 0.5:     1.00000000000000
================================================================================
... done

Writing density kernel to file "complex_25181.vacuum_dkn" ... done

>>> Optimising kernel for current NGWFs:
   Initial electron number for spin 1:    7234.00000000
     Final electron number for spin 1:    7234.00000000

=================== Penalty functional idempotency correction ==================
 RMS occupancy error at iteration   1:  0.000000 (step -0.5000 Ne1=   7234.0000)
            Final RMS occupancy error   :  0.000000 (Ne1=   7234.0000)
               Final occupancy bounds   : [  0.0000,  1.0000]
================================================================================

................................................................................
<<<<<<<<<<<<<< LNV (Original version) density kernel optimisation >>>>>>>>>>>>>>
~~~~~~~~~~~~~~~~~~~~~~~~~~~~~~~~~~~~~~~~~~~~~~~~~~~~~~~~~~~~~~~~~~~~~~~~~~~~~~~~
   iter  |      energy (Eh)       | rms gradient |  commutator  |   dE (Eh)
MG BCs: +ve charge blocks (gridpoints):     31377 (   17310635).
MG BCs: -ve charge blocks (gridpoints):      8448 (    1134765).
MG BCs:     Elided blocks (gridpoints):    183844 (  192258145).
MG BCs: Computational effort saved:  99.9811%.
MG BCs: Charge after coarse-graining:           -9.0009984.
MG DL_MG: Calling solver with defect correction order = 8
MG DL_MG: Solver finished
MG Hartree energy from (\int phi*rho dr):              1423.633990
MG Hartree energy from (\int eps (grad phi)^2 dr):     1422.985038
MG Discrepancy due to finite box and discretization:     -0.648953 (  -0.04558%)
MG Correction to account for finite box:                  0.459960
MG Remaining discrepancy, due to discretization:         -0.188993 (  -0.01328%)
      ideal mu1:      -0.733652265129
             Q0:  -11579.085243555019
             G0:    -142.862099243564
   RMS gradient:       0.001826760421
MG BCs: +ve charge blocks (gridpoints):     31344 (   17387145).
MG BCs: -ve charge blocks (gridpoints):      8369 (    1114147).
MG BCs:     Elided blocks (gridpoints):    183878 (  192202253).
MG BCs: Computational effort saved:  99.9812%.
MG BCs: Charge after coarse-graining:           -9.0010226.
MG DL_MG: Calling solver with defect correction order = 8
MG DL_MG: Solver finished
MG Hartree energy from (\int phi*rho dr):              1449.920268
MG Hartree energy from (\int eps (grad phi)^2 dr):     1449.287470
MG Discrepancy due to finite box and discretization:     -0.632798 (  -0.04364%)
MG Correction to account for finite box:                  0.459131
MG Remaining discrepancy, due to discretization:         -0.173667 (  -0.01198%)
     Trial step:       0.500000000000
             Q1:  -11590.043684389791
 Quadratic coef:      60.472608787009
 Linear coef   :     -71.431049621782
           Qmin:  -11600.179069968399
Quadratic minimum step length (  0.295303324326) accepted
    Initial Ne1:    7234.00000000
      Final Ne1:    7234.00000000

=================== Penalty functional idempotency correction ==================
 RMS occupancy error at iteration   1:  0.003318 (step -0.4888 Ne1=   7234.0000)
 RMS occupancy error at iteration   2:  0.000024 (step -0.5000 Ne1=   7234.0000)
            Final RMS occupancy error   :  0.000000 (Ne1=   7234.0000)
               Final occupancy bounds   : [  0.0000,  1.0000]
================================================================================

    1        -1.157908524356E+04     1.8268E-03     1.6523E-03
MG BCs: +ve charge blocks (gridpoints):     31349 (   17356763).
MG BCs: -ve charge blocks (gridpoints):      8410 (    1123148).
MG BCs:     Elided blocks (gridpoints):    183873 (  192223634).
MG BCs: Computational effort saved:  99.9811%.
MG BCs: Charge after coarse-graining:           -9.0010128.
MG DL_MG: Calling solver with defect correction order = 8
MG DL_MG: Solver finished
MG Hartree energy from (\int phi*rho dr):              1431.235637
MG Hartree energy from (\int eps (grad phi)^2 dr):     1430.597151
MG Discrepancy due to finite box and discretization:     -0.638486 (  -0.04461%)
MG Correction to account for finite box:                  0.459358
MG Remaining discrepancy, due to discretization:         -0.179128 (  -0.01252%)
      ideal mu1:      -0.771726617466
             Q0:  -11600.570671460009
             G0:     -11.578258779071
   RMS gradient:       0.000516596934
MG BCs: +ve charge blocks (gridpoints):     31346 (   17372609).
MG BCs: -ve charge blocks (gridpoints):      8384 (    1117731).
MG BCs:     Elided blocks (gridpoints):    183875 (  192213205).
MG BCs: Computational effort saved:  99.9811%.
MG BCs: Charge after coarse-graining:           -9.0010172.
MG DL_MG: Calling solver with defect correction order = 8
MG DL_MG: Solver finished
MG Hartree energy from (\int phi*rho dr):              1436.752140
MG Hartree energy from (\int eps (grad phi)^2 dr):     1436.117239
MG Discrepancy due to finite box and discretization:     -0.634901 (  -0.04419%)
MG Correction to account for finite box:                  0.458898
MG Remaining discrepancy, due to discretization:         -0.176003 (  -0.01225%)
     Trial step:       0.384254683983
             Q1:  -11603.291317072231
 Quadratic coef:       1.728354556002
 Linear coef   :      -4.449000168224
           Qmin:  -11603.433741775663
Quadratic minimum step length (  0.494559738262) accepted
    Initial Ne1:    7233.99992671
      Final Ne1:    7234.00000000

=================== Penalty functional idempotency correction ==================
 RMS occupancy error at iteration   1:  0.001734 (step -0.4935 Ne1=   7234.0000)
 RMS occupancy error at iteration   2:  0.000009 (step -0.5000 Ne1=   7234.0000)
            Final RMS occupancy error   :  0.000000 (Ne1=   7234.0000)
               Final occupancy bounds   : [  0.0000,  1.0000]
================================================================================

    2        -1.160057067146E+04     5.1660E-04     4.6725E-04    -2.1485E+01
MG BCs: +ve charge blocks (gridpoints):     31344 (   17377360).
MG BCs: -ve charge blocks (gridpoints):      8367 (    1116237).
MG BCs:     Elided blocks (gridpoints):    183877 (  192209948).
MG BCs: Computational effort saved:  99.9812%.
MG BCs: Charge after coarse-graining:           -9.0010183.
MG DL_MG: Calling solver with defect correction order = 8
MG DL_MG: Solver finished
MG Hartree energy from (\int phi*rho dr):              1438.376014
MG Hartree energy from (\int eps (grad phi)^2 dr):     1437.742067
MG Discrepancy due to finite box and discretization:     -0.633947 (  -0.04407%)
MG Correction to account for finite box:                  0.458779
MG Remaining discrepancy, due to discretization:         -0.175168 (  -0.01218%)
      ideal mu1:      -0.792267081086
             Q0:  -11603.467434464605
             G0:      -1.822598934122
   RMS gradient:       0.000205120421
MG BCs: +ve charge blocks (gridpoints):     31354 (   17376652).
MG BCs: -ve charge blocks (gridpoints):      8379 (    1117193).
MG BCs:     Elided blocks (gridpoints):    183867 (  192209700).
MG BCs: Computational effort saved:  99.9811%.
MG BCs: Charge after coarse-graining:           -9.0010178.
MG DL_MG: Calling solver with defect correction order = 8
MG DL_MG: Solver finished
MG Hartree energy from (\int phi*rho dr):              1436.211726
MG Hartree energy from (\int eps (grad phi)^2 dr):     1435.578186
MG Discrepancy due to finite box and discretization:     -0.633540 (  -0.04411%)
MG Correction to account for finite box:                  0.458557
MG Remaining discrepancy, due to discretization:         -0.174983 (  -0.01218%)
     Trial step:       0.435932214841
             Q1:  -11603.923851890024
 Quadratic coef:       0.338112164700
 Linear coef   :      -0.794529590120
           Qmin:  -11603.934200626461
Quadratic minimum step length (  0.512198436110) accepted
    Initial Ne1:    7233.99997039
      Final Ne1:    7234.00000000

=================== Penalty functional idempotency correction ==================
 RMS occupancy error at iteration   1:  0.000572 (step -0.4977 Ne1=   7234.0000)
 RMS occupancy error at iteration   2:  0.000001 (step -0.5000 Ne1=   7234.0000)
            Final RMS occupancy error   :  0.000000 (Ne1=   7234.0000)
               Final occupancy bounds   : [  0.0000,  1.0000]
================================================================================

    3        -1.160346743446E+04     2.0512E-04     1.8553E-04    -2.8968E+00
MG BCs: +ve charge blocks (gridpoints):     31354 (   17376494).
MG BCs: -ve charge blocks (gridpoints):      8381 (    1117361).
MG BCs:     Elided blocks (gridpoints):    183867 (  192209690).
MG BCs: Computational effort saved:  99.9811%.
MG BCs: Charge after coarse-graining:           -9.0010178.
MG DL_MG: Calling solver with defect correction order = 8
MG DL_MG: Solver finished
MG Hartree energy from (\int phi*rho dr):              1435.841104
MG Hartree energy from (\int eps (grad phi)^2 dr):     1435.207627
MG Discrepancy due to finite box and discretization:     -0.633477 (  -0.04412%)
MG Correction to account for finite box:                  0.458519
MG Remaining discrepancy, due to discretization:         -0.174958 (  -0.01219%)
      ideal mu1:      -0.793188203252
             Q0:  -11603.938349032076
             G0:      -0.428957832119
   RMS gradient:       0.000099609522
MG BCs: +ve charge blocks (gridpoints):     31352 (   17377216).
MG BCs: -ve charge blocks (gridpoints):      8382 (    1117269).
MG BCs:     Elided blocks (gridpoints):    183869 (  192209060).
MG BCs: Computational effort saved:  99.9811%.
MG BCs: Charge after coarse-graining:           -9.0010180.
MG DL_MG: Calling solver with defect correction order = 8
MG DL_MG: Solver finished
MG Hartree energy from (\int phi*rho dr):              1436.975979
MG Hartree energy from (\int eps (grad phi)^2 dr):     1436.342473
MG Discrepancy due to finite box and discretization:     -0.633506 (  -0.04409%)
MG Correction to account for finite box:                  0.458446
MG Remaining discrepancy, due to discretization:         -0.175060 (  -0.01218%)
     Trial step:       0.472529151155
             Q1:  -11604.036443333258
 Quadratic coef:       0.104600779110
 Linear coef   :      -0.202695080293
           Qmin:  -11604.036544513803
Quadratic minimum step length (  0.457832795553) accepted
    Initial Ne1:    7233.99999363
      Final Ne1:    7234.00000000

=================== Penalty functional idempotency correction ==================
 RMS occupancy error at iteration   1:  0.000185 (step -0.4992 Ne1=   7234.0000)
            Final RMS occupancy error   :  0.000000 (Ne1=   7234.0000)
               Final occupancy bounds   : [ -0.0000,  1.0000]
================================================================================

    4        -1.160393834903E+04     9.9610E-05     9.0095E-05    -4.7091E-01
MG BCs: +ve charge blocks (gridpoints):     31352 (   17377194).
MG BCs: -ve charge blocks (gridpoints):      8382 (    1117271).
MG BCs:     Elided blocks (gridpoints):    183869 (  192209080).
MG BCs: Computational effort saved:  99.9811%.
MG BCs: Charge after coarse-graining:           -9.0010180.
MG DL_MG: Calling solver with defect correction order = 8
MG DL_MG: Solver finished
MG Hartree energy from (\int phi*rho dr):              1436.940694
MG Hartree energy from (\int eps (grad phi)^2 dr):     1436.307189
MG Discrepancy due to finite box and discretization:     -0.633505 (  -0.04409%)
MG Correction to account for finite box:                  0.458448
MG Remaining discrepancy, due to discretization:         -0.175057 (  -0.01218%)
      ideal mu1:      -0.793173921216
             Q0:  -11604.036964775645
             G0:      -0.103189871484
   RMS gradient:       0.000048994992
MG BCs: +ve charge blocks (gridpoints):     31355 (   17377405).
MG BCs: -ve charge blocks (gridpoints):      8379 (    1117078).
MG BCs:     Elided blocks (gridpoints):    183866 (  192209062).
MG BCs: Computational effort saved:  99.9811%.
MG BCs: Charge after coarse-graining:           -9.0010180.
MG DL_MG: Calling solver with defect correction order = 8
MG DL_MG: Solver finished
MG Hartree energy from (\int phi*rho dr):              1437.354417
MG Hartree energy from (\int eps (grad phi)^2 dr):     1436.720806
MG Discrepancy due to finite box and discretization:     -0.633612 (  -0.04408%)
MG Correction to account for finite box:                  0.458419
MG Remaining discrepancy, due to discretization:         -0.175193 (  -0.01219%)
     Trial step:       0.465122932410
             Q1:  -11604.061981428065
 Quadratic coef:       0.022979323199
 Linear coef   :      -0.047995975619
           Qmin:  -11604.062026585078
Quadratic minimum step length (  0.485741654148) accepted
    Initial Ne1:    7234.00163718
      Final Ne1:    7234.00000000

=================== Penalty functional idempotency correction ==================
 RMS occupancy error at iteration   1:  0.000064 (step -0.4997 Ne1=   7234.0000)
            Final RMS occupancy error   :  0.000000 (Ne1=   7234.0000)
               Final occupancy bounds   : [ -0.0000,  1.0000]
================================================================================

    5        -1.160403696478E+04     4.8995E-05     4.4315E-05    -9.8616E-02
MG BCs: +ve charge blocks (gridpoints):     31355 (   17377428).
MG BCs: -ve charge blocks (gridpoints):      8379 (    1117067).
MG BCs:     Elided blocks (gridpoints):    183866 (  192209050).
MG BCs: Computational effort saved:  99.9811%.
MG BCs: Charge after coarse-graining:           -9.0010179.
MG DL_MG: Calling solver with defect correction order = 8
MG DL_MG: Solver finished
MG Hartree energy from (\int phi*rho dr):              1437.372801
MG Hartree energy from (\int eps (grad phi)^2 dr):     1436.739184
MG Discrepancy due to finite box and discretization:     -0.633616 (  -0.04408%)
MG Correction to account for finite box:                  0.458418
MG Remaining discrepancy, due to discretization:         -0.175199 (  -0.01219%)
      ideal mu1:      -0.793143712822
             Q0:  -11604.062073567184
             G0:      -0.029652394255
   RMS gradient:       0.000026285842
MG BCs: +ve charge blocks (gridpoints):     31354 (   17377062).
MG BCs: -ve charge blocks (gridpoints):      8379 (    1117272).
MG BCs:     Elided blocks (gridpoints):    183867 (  192209211).
MG BCs: Computational effort saved:  99.9811%.
MG BCs: Charge after coarse-graining:           -9.0010178.
MG DL_MG: Calling solver with defect correction order = 8
MG DL_MG: Solver finished
MG Hartree energy from (\int phi*rho dr):              1436.759974
MG Hartree energy from (\int eps (grad phi)^2 dr):     1436.126364
MG Discrepancy due to finite box and discretization:     -0.633609 (  -0.04410%)
MG Correction to account for finite box:                  0.458418
MG Remaining discrepancy, due to discretization:         -0.175191 (  -0.01219%)
     Trial step:       0.475320505103
             Q1:  -11604.071231077425
 Quadratic coef:       0.004936880774
 Linear coef   :      -0.014094391015
           Qmin:  -11604.072133150714
Quadratic minimum step length (  0.678500592070) accepted
    Initial Ne1:    7234.00095064
      Final Ne1:    7234.00000000

=================== Penalty functional idempotency correction ==================
 RMS occupancy error at iteration   1:  0.000036 (step -0.4998 Ne1=   7234.0000)
            Final RMS occupancy error   :  0.000000 (Ne1=   7234.0000)
               Final occupancy bounds   : [ -0.0000,  1.0000]
================================================================================

    6        -1.160406207357E+04     2.6286E-05     2.3775E-05    -2.5109E-02
MG BCs: +ve charge blocks (gridpoints):     31355 (   17376941).
MG BCs: -ve charge blocks (gridpoints):      8379 (    1117351).
MG BCs:     Elided blocks (gridpoints):    183866 (  192209253).
MG BCs: Computational effort saved:  99.9811%.
MG BCs: Charge after coarse-graining:           -9.0010178.
MG DL_MG: Calling solver with defect correction order = 8
MG DL_MG: Solver finished
MG Hartree energy from (\int phi*rho dr):              1436.497444
MG Hartree energy from (\int eps (grad phi)^2 dr):     1435.863838
MG Discrepancy due to finite box and discretization:     -0.633606 (  -0.04411%)
MG Correction to account for finite box:                  0.458418
MG Remaining discrepancy, due to discretization:         -0.175188 (  -0.01220%)
      ideal mu1:      -0.792919162293
             Q0:  -11604.072141761309
             G0:      -0.014779374726
   RMS gradient:       0.000018580231
MG BCs: +ve charge blocks (gridpoints):     31354 (   17377320).
MG BCs: -ve charge blocks (gridpoints):      8379 (    1117154).
MG BCs:     Elided blocks (gridpoints):    183867 (  192209071).
MG BCs: Computational effort saved:  99.9811%.
MG BCs: Charge after coarse-graining:           -9.0010179.
MG DL_MG: Calling solver with defect correction order = 8
MG DL_MG: Solver finished
MG Hartree energy from (\int phi*rho dr):              1437.048369
MG Hartree energy from (\int eps (grad phi)^2 dr):     1436.414792
MG Discrepancy due to finite box and discretization:     -0.633578 (  -0.04409%)
MG Correction to account for finite box:                  0.458407
MG Remaining discrepancy, due to discretization:         -0.175171 (  -0.01219%)
     Trial step:       0.567895451765
             Q1:  -11604.075842128485
 Quadratic coef:       0.004692772512
 Linear coef   :      -0.008393139687
           Qmin:  -11604.075894595780
Quadratic minimum step length (  0.507847529533) accepted
    Initial Ne1:    7234.00011020
      Final Ne1:    7234.00000000

=================== Penalty functional idempotency correction ==================
 RMS occupancy error at iteration   1:  0.000002 (step -0.5000 Ne1=   7234.0000)
            Final RMS occupancy error   :  0.000000 (Ne1=   7234.0000)
               Final occupancy bounds   : [  0.0000,  1.0000]
================================================================================

    7        -1.160407214176E+04     1.8580E-05     1.6805E-05    -1.0068E-02
MG BCs: +ve charge blocks (gridpoints):     31353 (   17377297).
MG BCs: -ve charge blocks (gridpoints):      8379 (    1117168).
MG BCs:     Elided blocks (gridpoints):    183868 (  192209080).
MG BCs: Computational effort saved:  99.9811%.
MG BCs: Charge after coarse-graining:           -9.0010179.
MG DL_MG: Calling solver with defect correction order = 8
MG DL_MG: Solver finished
MG Hartree energy from (\int phi*rho dr):              1436.990026
MG Hartree energy from (\int eps (grad phi)^2 dr):     1436.356446
MG Discrepancy due to finite box and discretization:     -0.633581 (  -0.04409%)
MG Correction to account for finite box:                  0.458408
MG Remaining discrepancy, due to discretization:         -0.175173 (  -0.01219%)
      ideal mu1:      -0.793191462088
             Q0:  -11604.075894737383
             G0:      -0.008580976928
   RMS gradient:       0.000014158235
MG BCs: +ve charge blocks (gridpoints):     31355 (   17377404).
MG BCs: -ve charge blocks (gridpoints):      8379 (    1117151).
MG BCs:     Elided blocks (gridpoints):    183866 (  192208990).
MG BCs: Computational effort saved:  99.9811%.
MG BCs: Charge after coarse-graining:           -9.0010179.
MG DL_MG: Calling solver with defect correction order = 8
MG DL_MG: Solver finished
MG Hartree energy from (\int phi*rho dr):              1437.055759
MG Hartree energy from (\int eps (grad phi)^2 dr):     1436.422217
MG Discrepancy due to finite box and discretization:     -0.633543 (  -0.04409%)
MG Correction to account for finite box:                  0.458395
MG Remaining discrepancy, due to discretization:         -0.175148 (  -0.01219%)
     Trial step:       0.537032868838
             Q1:  -11604.079274252173
 Quadratic coef:       0.001228751868
 Linear coef   :      -0.004608266657
           Qmin:  -11604.080215406620
Quadratic minimum step length (  1.007034344556) accepted
    Initial Ne1:    7234.00012609
      Final Ne1:    7234.00000000

=================== Penalty functional idempotency correction ==================
 RMS occupancy error at iteration   1:  0.000020 (step -0.4995 Ne1=   7234.0000)
            Final RMS occupancy error   :  0.000000 (Ne1=   7234.0000)
               Final occupancy bounds   : [ -0.0000,  1.0000]
================================================================================

    8        -1.160407589474E+04     1.4158E-05     1.2806E-05    -3.7530E-03
MG BCs: +ve charge blocks (gridpoints):     31355 (   17377440).
MG BCs: -ve charge blocks (gridpoints):      8380 (    1117128).
MG BCs:     Elided blocks (gridpoints):    183866 (  192208977).
MG BCs: Computational effort saved:  99.9811%.
MG BCs: Charge after coarse-graining:           -9.0010179.
MG DL_MG: Calling solver with defect correction order = 8
MG DL_MG: Solver finished
MG Hartree energy from (\int phi*rho dr):              1437.111935
MG Hartree energy from (\int eps (grad phi)^2 dr):     1436.478426
MG Discrepancy due to finite box and discretization:     -0.633508 (  -0.04408%)
MG Correction to account for finite box:                  0.458382
MG Remaining discrepancy, due to discretization:         -0.175126 (  -0.01219%)
      ideal mu1:      -0.793271404313
             Q0:  -11604.080207846710
             G0:      -0.012196802557
   RMS gradient:       0.000016908603
MG BCs: +ve charge blocks (gridpoints):     31353 (   17377331).
MG BCs: -ve charge blocks (gridpoints):      8380 (    1117224).
MG BCs:     Elided blocks (gridpoints):    183868 (  192208990).
MG BCs: Computational effort saved:  99.9811%.
MG BCs: Charge after coarse-graining:           -9.0010179.
MG DL_MG: Calling solver with defect correction order = 8
MG DL_MG: Solver finished
MG Hartree energy from (\int phi*rho dr):              1436.805832
MG Hartree energy from (\int eps (grad phi)^2 dr):     1436.172394
MG Discrepancy due to finite box and discretization:     -0.633438 (  -0.04409%)
MG Correction to account for finite box:                  0.458355
MG Remaining discrepancy, due to discretization:         -0.175083 (  -0.01219%)
     Trial step:       0.735398220745
             Q1:  -11604.085820104112
 Quadratic coef:       0.003357249498
 Linear coef   :      -0.008969506899
           Qmin:  -11604.086198766812
Quadratic minimum step length (  0.982375515953) accepted
    Initial Ne1:    7234.00030666
      Final Ne1:    7234.00000000

=================== Penalty functional idempotency correction ==================
 RMS occupancy error at iteration   1:  0.000107 (step -0.4971 Ne1=   7234.0000)
 RMS occupancy error at iteration   2:  0.000000 (step -0.5000 Ne1=   7234.0000)
            Final RMS occupancy error   :  0.000000 (Ne1=   7234.0000)
               Final occupancy bounds   : [  0.0000,  1.0000]
================================================================================

    9        -1.160408020785E+04     1.6909E-05     1.5293E-05    -4.3131E-03
MG BCs: +ve charge blocks (gridpoints):     31355 (   17377277).
MG BCs: -ve charge blocks (gridpoints):      8379 (    1117261).
MG BCs:     Elided blocks (gridpoints):    183866 (  192209007).
MG BCs: Computational effort saved:  99.9811%.
MG BCs: Charge after coarse-graining:           -9.0010179.
MG DL_MG: Calling solver with defect correction order = 8
MG DL_MG: Solver finished
MG Hartree energy from (\int phi*rho dr):              1436.700433
MG Hartree energy from (\int eps (grad phi)^2 dr):     1436.067021
MG Discrepancy due to finite box and discretization:     -0.633412 (  -0.04409%)
MG Correction to account for finite box:                  0.458344
MG Remaining discrepancy, due to discretization:         -0.175068 (  -0.01219%)
      ideal mu1:      -0.792910462550
   10        -1.160408616479E+04     1.8901E-05     1.7095E-05    -5.9569E-03
Finished density kernel iterations (  10)

Writing density kernel to file "complex_25181.vacuum_dkn" ... done


>>> Density kernel optimised for the current NGWF basis:
     ~~~~~~~~~~~~~~~~~~~~~~~~~~~~~~~~~~~~~~~~~~~~~~~~~~~~~~~~~~~
     Total energy                =  -1.16040861647881E+04  Eh
     Estimated bandgap           =  -2.4412E-01  Eh
     RMS occupancy error         =   3.5662E-12
     [H,K] commutator            =   1.7095E-05
     Occupancy bounds            = [  0.000:  1.000]
     ~~~~~~~~~~~~~~~~~~~~~~~~~~~~~~~~~~~~~~~~~~~~~~~~~~~~~~~~~~~




################################################################################
########################### NGWF CG iteration  001 #############################
################################################################################
****** Reciprocal space K.E. preconditioning with k_zero =  3.5000 a0^-1 *******

>>> Checking for convergence of NGWFs:   NOT CONVERGED
  ========================================================================
         NGWF RMS gradient =  1.5609E-03 >  2.0000E-06  | above tolerance
  ========================================================================

>>> Improving NGWFs using line search:
============ Calculation of NGWF S^-1 using Hotelling algorithm ================ 
         Iteration  |  Frobenius norm and Maximum abs value    (of I-S*S_n^-1)   
               1       0.19090240E+00     0.53762711E-02
               2       0.83574985E-03     0.39823471E-04
               3       0.27498206E-07     0.23224307E-08
               4       0.13120568E-12     0.64392935E-14
================================================================================
MG BCs: +ve charge blocks (gridpoints):     30769 (   17318649).
MG BCs: -ve charge blocks (gridpoints):      8397 (    1117103).
MG BCs:     Elided blocks (gridpoints):    184454 (  192267793).
MG BCs: Computational effort saved:  99.9814%.
MG BCs: Charge after coarse-graining:           -9.0010141.
MG DL_MG: Calling solver with defect correction order = 8
MG DL_MG: Solver finished
MG Hartree energy from (\int phi*rho dr):              1405.295090
MG Hartree energy from (\int eps (grad phi)^2 dr):     1404.662308
MG Discrepancy due to finite box and discretization:     -0.632782 (  -0.04503%)
MG Correction to account for finite box:                  0.458289
MG Remaining discrepancy, due to discretization:         -0.174493 (  -0.01242%)
============ Calculation of NGWF S^-1 using Hotelling algorithm ================ 
         Iteration  |  Frobenius norm and Maximum abs value    (of I-S*S_n^-1)   
               1       0.18485114E+01     0.43473752E-01
               2       0.70512098E-01     0.24436777E-02
               3       0.13762000E-03     0.84225512E-05
               4       0.98850965E-09     0.13398638E-09
               5       0.11256060E-12     0.53290705E-14
================================================================================
------------------------------- NGWF line search -------------------------------
RMS gradient                =       0.00156089955357
Trial step length           =               0.122474
Gradient along search dir.  =       -270.74580337769
Functional at step 0        =  -11604.08616478811018
Functional at step 1        =  -11634.76347844512202
Functional predicted        =  -11714.83228088703072
Selected quadratic step     =               0.818082
--------------------------- NGWF line search finished --------------------------
                                               
Writing NGWFs to file "complex_25181.vacuum_tightbox_ngwfs"....  done

>>> Optimising kernel for current NGWFs:
   Initial electron number for spin 1:    7268.15733637
     Final electron number for spin 1:    7234.00000000

=================== Penalty functional idempotency correction ==================
 RMS occupancy error at iteration   1:  0.004177 (step -0.4867 Ne1=   7234.0000)
 RMS occupancy error at iteration   2:  0.000067 (step -0.5003 Ne1=   7234.0000)
            Final RMS occupancy error   :  0.000000 (Ne1=   7234.0000)
               Final occupancy bounds   : [  0.0000,  1.0000]
================================================================================

................................................................................
<<<<<<<<<<<<<< LNV (Original version) density kernel optimisation >>>>>>>>>>>>>>
~~~~~~~~~~~~~~~~~~~~~~~~~~~~~~~~~~~~~~~~~~~~~~~~~~~~~~~~~~~~~~~~~~~~~~~~~~~~~~~~
   iter  |      energy (Eh)       | rms gradient |  commutator  |   dE (Eh)
MG BCs: +ve charge blocks (gridpoints):     24772 (   17035837).
MG BCs: -ve charge blocks (gridpoints):      8563 (    1100906).
MG BCs:     Elided blocks (gridpoints):    190460 (  192566802).
MG BCs: Computational effort saved:  99.9842%.
MG BCs: Charge after coarse-graining:           -9.0006618.
MG DL_MG: Calling solver with defect correction order = 8
MG DL_MG: Solver finished
MG Hartree energy from (\int phi*rho dr):              1249.385231
MG Hartree energy from (\int eps (grad phi)^2 dr):     1248.751621
MG Discrepancy due to finite box and discretization:     -0.633610 (  -0.05071%)
MG Correction to account for finite box:                  0.458014
MG Remaining discrepancy, due to discretization:         -0.175595 (  -0.01405%)
      ideal mu1:      -0.730833290625
             Q0:  -11714.016390794073
             G0:      -9.912727407029
   RMS gradient:       0.000481193399
MG BCs: +ve charge blocks (gridpoints):     24863 (   17055090).
MG BCs: -ve charge blocks (gridpoints):      8536 (    1096590).
MG BCs:     Elided blocks (gridpoints):    190369 (  192551865).
MG BCs: Computational effort saved:  99.9841%.
MG BCs: Charge after coarse-graining:           -9.0006570.
MG DL_MG: Calling solver with defect correction order = 8
MG DL_MG: Solver finished
MG Hartree energy from (\int phi*rho dr):              1268.881115
MG Hartree energy from (\int eps (grad phi)^2 dr):     1268.241061
MG Discrepancy due to finite box and discretization:     -0.640054 (  -0.05044%)
MG Correction to account for finite box:                  0.457642
MG Remaining discrepancy, due to discretization:         -0.182412 (  -0.01438%)
     Trial step:       0.849963061865
             Q1:  -11711.551835435326
 Quadratic coef:      10.890007497059
 Linear coef   :      -8.425452138312
           Qmin:  -11715.646055506291
Quadratic minimum step length (  0.328802487005) accepted
    Initial Ne1:    7233.99963587
      Final Ne1:    7234.00000000

=================== Penalty functional idempotency correction ==================
 RMS occupancy error at iteration   1:  0.000354 (step -0.4986 Ne1=   7234.0000)
 RMS occupancy error at iteration   2:  0.000000 (step -0.5000 Ne1=   7234.0000)
            Final RMS occupancy error   :  0.000000 (Ne1=   7234.0000)
               Final occupancy bounds   : [  0.0000,  1.0000]
================================================================================

    1        -1.171401639079E+04     4.8119E-04     4.3523E-04
MG BCs: +ve charge blocks (gridpoints):     24810 (   17043616).
MG BCs: -ve charge blocks (gridpoints):      8551 (    1099212).
MG BCs:     Elided blocks (gridpoints):    190422 (  192560717).
MG BCs: Computational effort saved:  99.9842%.
MG BCs: Charge after coarse-graining:           -9.0006597.
MG DL_MG: Calling solver with defect correction order = 8
MG DL_MG: Solver finished
MG Hartree energy from (\int phi*rho dr):              1255.640278
MG Hartree energy from (\int eps (grad phi)^2 dr):     1255.004299
MG Discrepancy due to finite box and discretization:     -0.635979 (  -0.05065%)
MG Correction to account for finite box:                  0.457848
MG Remaining discrepancy, due to discretization:         -0.178131 (  -0.01419%)
      ideal mu1:      -0.737753506743
             Q0:  -11715.611754597980
             G0:      -0.987948747652
   RMS gradient:       0.000153016187
MG BCs: +ve charge blocks (gridpoints):     24813 (   17043651).
MG BCs: -ve charge blocks (gridpoints):      8556 (    1099960).
MG BCs:     Elided blocks (gridpoints):    190419 (  192559934).
MG BCs: Computational effort saved:  99.9842%.
MG BCs: Charge after coarse-graining:           -9.0006596.
MG DL_MG: Calling solver with defect correction order = 8
MG DL_MG: Solver finished
MG Hartree energy from (\int phi*rho dr):              1256.909075
MG Hartree energy from (\int eps (grad phi)^2 dr):     1256.272731
MG Discrepancy due to finite box and discretization:     -0.636344 (  -0.05063%)
MG Correction to account for finite box:                  0.457836
MG Remaining discrepancy, due to discretization:         -0.178507 (  -0.01420%)
     Trial step:       0.528649192380
             Q1:  -11715.809501433047
 Quadratic coef:       0.324531472492
 Linear coef   :      -0.522278307559
           Qmin:  -11715.821884164499
Quadratic minimum step length (  0.425385561789) accepted
    Initial Ne1:    7233.99995235
      Final Ne1:    7234.00000000

=================== Penalty functional idempotency correction ==================
 RMS occupancy error at iteration   1:  0.000142 (step -0.4994 Ne1=   7234.0000)
            Final RMS occupancy error   :  0.000000 (Ne1=   7234.0000)
               Final occupancy bounds   : [ -0.0000,  1.0000]
================================================================================

    2        -1.171561175460E+04     1.5302E-04     1.3840E-04    -1.5954E+00
MG BCs: +ve charge blocks (gridpoints):     24814 (   17043632).
MG BCs: -ve charge blocks (gridpoints):      8554 (    1099828).
MG BCs:     Elided blocks (gridpoints):    190418 (  192560085).
MG BCs: Computational effort saved:  99.9842%.
MG BCs: Charge after coarse-graining:           -9.0006596.
MG DL_MG: Calling solver with defect correction order = 8
MG DL_MG: Solver finished
MG Hartree energy from (\int phi*rho dr):              1256.660899
MG Hartree energy from (\int eps (grad phi)^2 dr):     1256.024629
MG Discrepancy due to finite box and discretization:     -0.636270 (  -0.05063%)
MG Correction to account for finite box:                  0.457839
MG Remaining discrepancy, due to discretization:         -0.178431 (  -0.01420%)
      ideal mu1:      -0.738851436902
             Q0:  -11715.822353864438
             G0:      -0.146403702187
   RMS gradient:       0.000058413242
MG BCs: +ve charge blocks (gridpoints):     24812 (   17042948).
MG BCs: -ve charge blocks (gridpoints):      8557 (    1100239).
MG BCs:     Elided blocks (gridpoints):    190420 (  192560358).
MG BCs: Computational effort saved:  99.9842%.
MG BCs: Charge after coarse-graining:           -9.0006596.
MG DL_MG: Calling solver with defect correction order = 8
MG DL_MG: Solver finished
MG Hartree energy from (\int phi*rho dr):              1256.167685
MG Hartree energy from (\int eps (grad phi)^2 dr):     1255.531447
MG Discrepancy due to finite box and discretization:     -0.636238 (  -0.05065%)
MG Correction to account for finite box:                  0.457830
MG Remaining discrepancy, due to discretization:         -0.178408 (  -0.01420%)
     Trial step:       0.474214860258
             Q1:  -11715.866754567833
 Quadratic coef:       0.025026107778
 Linear coef   :      -0.069426811174
           Qmin:  -11715.870504401395
Quadratic minimum step length (  0.657777586728) accepted
    Initial Ne1:    7234.00060306
      Final Ne1:    7234.00000000

=================== Penalty functional idempotency correction ==================
 RMS occupancy error at iteration   1:  0.000062 (step -0.4998 Ne1=   7234.0000)
            Final RMS occupancy error   :  0.000000 (Ne1=   7234.0000)
               Final occupancy bounds   : [ -0.0000,  1.0000]
================================================================================

    3        -1.171582235386E+04     5.8413E-05     5.2834E-05    -2.1060E-01
MG BCs: +ve charge blocks (gridpoints):     24812 (   17042675).
MG BCs: -ve charge blocks (gridpoints):      8557 (    1100390).
MG BCs:     Elided blocks (gridpoints):    190420 (  192560480).
MG BCs: Computational effort saved:  99.9842%.
MG BCs: Charge after coarse-graining:           -9.0006597.
MG DL_MG: Calling solver with defect correction order = 8
MG DL_MG: Solver finished
MG Hartree energy from (\int phi*rho dr):              1255.976886
MG Hartree energy from (\int eps (grad phi)^2 dr):     1255.340660
MG Discrepancy due to finite box and discretization:     -0.636226 (  -0.05066%)
MG Correction to account for finite box:                  0.457826
MG Remaining discrepancy, due to discretization:         -0.178399 (  -0.01420%)
      ideal mu1:      -0.737783006120
             Q0:  -11715.870590744074
             G0:      -0.035183274498
   RMS gradient:       0.000028626812
MG BCs: +ve charge blocks (gridpoints):     24808 (   17042458).
MG BCs: -ve charge blocks (gridpoints):      8556 (    1100433).
MG BCs:     Elided blocks (gridpoints):    190424 (  192560654).
MG BCs: Computational effort saved:  99.9842%.
MG BCs: Charge after coarse-graining:           -9.0006597.
MG DL_MG: Calling solver with defect correction order = 8
MG DL_MG: Solver finished
MG Hartree energy from (\int phi*rho dr):              1255.988039
MG Hartree energy from (\int eps (grad phi)^2 dr):     1255.351914
MG Discrepancy due to finite box and discretization:     -0.636125 (  -0.05065%)
MG Correction to account for finite box:                  0.457826
MG Remaining discrepancy, due to discretization:         -0.178299 (  -0.01420%)
     Trial step:       0.558505063873
             Q1:  -11715.879203629214
 Quadratic coef:       0.011037151831
 Linear coef   :      -0.019650036971
           Qmin:  -11715.879336749358
Quadratic minimum step length (  0.497168351096) accepted
    Initial Ne1:    7234.00021807
      Final Ne1:    7234.00000000

=================== Penalty functional idempotency correction ==================
 RMS occupancy error at iteration   1:  0.000017 (step -0.4999 Ne1=   7234.0000)
            Final RMS occupancy error   :  0.000000 (Ne1=   7234.0000)
               Final occupancy bounds   : [ -0.0000,  1.0000]
================================================================================

    4        -1.171587059074E+04     2.8627E-05     2.5892E-05    -4.8237E-02
MG BCs: +ve charge blocks (gridpoints):     24808 (   17042494).
MG BCs: -ve charge blocks (gridpoints):      8556 (    1100427).
MG BCs:     Elided blocks (gridpoints):    190424 (  192560624).
MG BCs: Computational effort saved:  99.9842%.
MG BCs: Charge after coarse-graining:           -9.0006597.
MG DL_MG: Calling solver with defect correction order = 8
MG DL_MG: Solver finished
MG Hartree energy from (\int phi*rho dr):              1255.986625
MG Hartree energy from (\int eps (grad phi)^2 dr):     1255.350489
MG Discrepancy due to finite box and discretization:     -0.636136 (  -0.05065%)
MG Correction to account for finite box:                  0.457826
MG Remaining discrepancy, due to discretization:         -0.178310 (  -0.01420%)
      ideal mu1:      -0.737860105043
             Q0:  -11715.879341505934
             G0:      -0.011142466418
   RMS gradient:       0.000016129689
MG BCs: +ve charge blocks (gridpoints):     24809 (   17043016).
MG BCs: -ve charge blocks (gridpoints):      8556 (    1100207).
MG BCs:     Elided blocks (gridpoints):    190423 (  192560322).
MG BCs: Computational effort saved:  99.9842%.
MG BCs: Charge after coarse-graining:           -9.0006596.
MG DL_MG: Calling solver with defect correction order = 8
MG DL_MG: Solver finished
MG Hartree energy from (\int phi*rho dr):              1256.375099
MG Hartree energy from (\int eps (grad phi)^2 dr):     1255.738996
MG Discrepancy due to finite box and discretization:     -0.636103 (  -0.05063%)
MG Correction to account for finite box:                  0.457824
MG Remaining discrepancy, due to discretization:         -0.178279 (  -0.01419%)
     Trial step:       0.526945008217
             Q1:  -11715.882384543424
 Quadratic coef:       0.002828429568
 Linear coef   :      -0.005871467058
           Qmin:  -11715.882388614284
Quadratic minimum step length (  0.546936061745) accepted
    Initial Ne1:    7234.00008814
      Final Ne1:    7234.00000000

=================== Penalty functional idempotency correction ==================
 RMS occupancy error at iteration   1:  0.000009 (step -0.5000 Ne1=   7234.0000)
            Final RMS occupancy error   :  0.000000 (Ne1=   7234.0000)
               Final occupancy bounds   : [ -0.0000,  1.0000]
================================================================================

    5        -1.171587934151E+04     1.6130E-05     1.4589E-05    -8.7508E-03
MG BCs: +ve charge blocks (gridpoints):     24809 (   17043034).
MG BCs: -ve charge blocks (gridpoints):      8556 (    1100205).
MG BCs:     Elided blocks (gridpoints):    190423 (  192560306).
MG BCs: Computational effort saved:  99.9842%.
MG BCs: Charge after coarse-graining:           -9.0006596.
MG DL_MG: Calling solver with defect correction order = 8
MG DL_MG: Solver finished
MG Hartree energy from (\int phi*rho dr):              1256.389855
MG Hartree energy from (\int eps (grad phi)^2 dr):     1255.753754
MG Discrepancy due to finite box and discretization:     -0.636101 (  -0.05063%)
MG Correction to account for finite box:                  0.457824
MG Remaining discrepancy, due to discretization:         -0.178278 (  -0.01419%)
      ideal mu1:      -0.738183953772
             Q0:  -11715.882389517268
             G0:      -0.003248366898
   RMS gradient:       0.000008709081
MG BCs: +ve charge blocks (gridpoints):     24809 (   17043027).
MG BCs: -ve charge blocks (gridpoints):      8556 (    1100235).
MG BCs:     Elided blocks (gridpoints):    190423 (  192560283).
MG BCs: Computational effort saved:  99.9842%.
MG BCs: Charge after coarse-graining:           -9.0006596.
MG DL_MG: Calling solver with defect correction order = 8
MG DL_MG: Solver finished
MG Hartree energy from (\int phi*rho dr):              1256.362975
MG Hartree energy from (\int eps (grad phi)^2 dr):     1255.726882
MG Discrepancy due to finite box and discretization:     -0.636093 (  -0.05063%)
MG Correction to account for finite box:                  0.457819
MG Remaining discrepancy, due to discretization:         -0.178274 (  -0.01419%)
     Trial step:       0.536847490029
             Q1:  -11715.883454210591
 Quadratic coef:       0.000679184293
 Linear coef   :      -0.001743877616
           Qmin:  -11715.883508914892
Quadratic minimum step length (  0.689206398071) accepted
    Initial Ne1:    7234.00003871
      Final Ne1:    7234.00000000

=================== Penalty functional idempotency correction ==================
 RMS occupancy error at iteration   1:  0.000005 (step -0.5000 Ne1=   7234.0000)
            Final RMS occupancy error   :  0.000000 (Ne1=   7234.0000)
               Final occupancy bounds   : [  0.0000,  1.0000]
================================================================================

    6        -1.171588238952E+04     8.7091E-06     7.8772E-06    -3.0480E-03
MG BCs: +ve charge blocks (gridpoints):     24809 (   17043024).
MG BCs: -ve charge blocks (gridpoints):      8556 (    1100238).
MG BCs:     Elided blocks (gridpoints):    190423 (  192560283).
MG BCs: Computational effort saved:  99.9842%.
MG BCs: Charge after coarse-graining:           -9.0006596.
MG DL_MG: Calling solver with defect correction order = 8
MG DL_MG: Solver finished
MG Hartree energy from (\int phi*rho dr):              1256.355337
MG Hartree energy from (\int eps (grad phi)^2 dr):     1255.719247
MG Discrepancy due to finite box and discretization:     -0.636090 (  -0.05063%)
MG Correction to account for finite box:                  0.457817
MG Remaining discrepancy, due to discretization:         -0.178273 (  -0.01419%)
      ideal mu1:      -0.738153949417
             Q0:  -11715.883508993313
             G0:      -0.001691112274
   RMS gradient:       0.000006285058
MG BCs: +ve charge blocks (gridpoints):     24809 (   17042806).
MG BCs: -ve charge blocks (gridpoints):      8557 (    1100298).
MG BCs:     Elided blocks (gridpoints):    190423 (  192560441).
MG BCs: Computational effort saved:  99.9842%.
MG BCs: Charge after coarse-graining:           -9.0006596.
MG DL_MG: Calling solver with defect correction order = 8
MG DL_MG: Solver finished
MG Hartree energy from (\int phi*rho dr):              1256.254607
MG Hartree energy from (\int eps (grad phi)^2 dr):     1255.618505
MG Discrepancy due to finite box and discretization:     -0.636102 (  -0.05063%)
MG Correction to account for finite box:                  0.457822
MG Remaining discrepancy, due to discretization:         -0.178280 (  -0.01419%)
     Trial step:       0.608275204916
             Q1:  -11715.883860867354
 Quadratic coef:       0.000676787624
 Linear coef   :      -0.001028661665
           Qmin:  -11715.883899863647
Quadratic minimum step length (  0.462264204525) accepted
    Initial Ne1:    7233.99999781
      Final Ne1:    7234.00000000

=================== Penalty functional idempotency correction ==================
 RMS occupancy error at iteration   1:  0.000000 (step -0.5000 Ne1=   7234.0000)
            Final RMS occupancy error   :  0.000000 (Ne1=   7234.0000)
               Final occupancy bounds   : [  0.0000,  1.0000]
================================================================================

    7        -1.171588350899E+04     6.2851E-06     5.6847E-06    -1.1195E-03
MG BCs: +ve charge blocks (gridpoints):     24809 (   17042855).
MG BCs: -ve charge blocks (gridpoints):      8556 (    1100289).
MG BCs:     Elided blocks (gridpoints):    190423 (  192560401).
MG BCs: Computational effort saved:  99.9842%.
MG BCs: Charge after coarse-graining:           -9.0006596.
MG DL_MG: Calling solver with defect correction order = 8
MG DL_MG: Solver finished
MG Hartree energy from (\int phi*rho dr):              1256.278747
MG Hartree energy from (\int eps (grad phi)^2 dr):     1255.642648
MG Discrepancy due to finite box and discretization:     -0.636099 (  -0.05063%)
MG Correction to account for finite box:                  0.457821
MG Remaining discrepancy, due to discretization:         -0.178278 (  -0.01419%)
      ideal mu1:      -0.738062554988
             Q0:  -11715.883899848093
             G0:      -0.000990485351
   RMS gradient:       0.000004809888
MG BCs: +ve charge blocks (gridpoints):     24809 (   17042812).
MG BCs: -ve charge blocks (gridpoints):      8556 (    1100304).
MG BCs:     Elided blocks (gridpoints):    190423 (  192560429).
MG BCs: Computational effort saved:  99.9842%.
MG BCs: Charge after coarse-graining:           -9.0006596.
MG DL_MG: Calling solver with defect correction order = 8
MG DL_MG: Solver finished
MG Hartree energy from (\int phi*rho dr):              1256.237094
MG Hartree energy from (\int eps (grad phi)^2 dr):     1255.600988
MG Discrepancy due to finite box and discretization:     -0.636106 (  -0.05064%)
MG Correction to account for finite box:                  0.457822
MG Remaining discrepancy, due to discretization:         -0.178284 (  -0.01419%)
     Trial step:       0.530267718924
             Q1:  -11715.884312815499
 Quadratic coef:       0.000112255002
 Linear coef   :      -0.000525222407
           Qmin:  -11715.884514205076
Quadratic minimum step length (  1.240517050044) accepted
    Initial Ne1:    7233.99999651
      Final Ne1:    7234.00000000

=================== Penalty functional idempotency correction ==================
 RMS occupancy error at iteration   1:  0.000008 (step -0.4995 Ne1=   7234.0000)
            Final RMS occupancy error   :  0.000000 (Ne1=   7234.0000)
               Final occupancy bounds   : [ -0.0000,  1.0000]
================================================================================

    8        -1.171588389985E+04     4.8099E-06     4.3504E-06    -3.9085E-04
MG BCs: +ve charge blocks (gridpoints):     24809 (   17042743).
MG BCs: -ve charge blocks (gridpoints):      8556 (    1100321).
MG BCs:     Elided blocks (gridpoints):    190423 (  192560481).
MG BCs: Computational effort saved:  99.9842%.
MG BCs: Charge after coarse-graining:           -9.0006597.
MG DL_MG: Calling solver with defect correction order = 8
MG DL_MG: Solver finished
MG Hartree energy from (\int phi*rho dr):              1256.181045
MG Hartree energy from (\int eps (grad phi)^2 dr):     1255.544929
[...]
MG DL_MG: Calling solver with defect correction order = 8
MG DL_MG: Solver finished
MG Hartree energy from (\int phi*rho dr):              1214.638325
MG Hartree energy from (\int eps (grad phi)^2 dr):     1214.455144
MG Discrepancy due to finite box and discretization:     -0.183181 (  -0.01508%)
MG Correction to account for finite box:                  0.006254
MG Remaining discrepancy, due to discretization:         -0.176927 (  -0.01457%)
             Q2:  -11749.752991530695
  Cubic LS coeff:       0.987114248741
Predicted energy:  -11749.752991530691
Cubic minimum step length accepted
    Initial Ne1:    7234.00000000
      Final Ne1:    7234.00000000

=================== Penalty functional idempotency correction ==================
 RMS occupancy error at iteration   1:  0.000000 (step -0.5000 Ne1=   7234.0000)
            Final RMS occupancy error   :  0.000000 (Ne1=   7234.0000)
               Final occupancy bounds   : [ -0.0000,  1.0000]
================================================================================

    7        -1.174975299153E+04     9.5488E-09     8.6367E-09    -2.5611E-09

Reusing previously generated solute cavity.
MG BCs: +ve charge blocks (gridpoints):     28741 (   19213844).
MG BCs: -ve charge blocks (gridpoints):      8542 (    1068761).
MG BCs:     Elided blocks (gridpoints):    186491 (  190420940).
MG BCs: Computational effort saved:  99.9823%.
MG BCs: Charge after coarse-graining:           -9.0009624.
MG DL_MG: Calling solver with defect correction order = 8
MG DL_MG: Solver finished
MG Hartree energy from (\int phi*rho dr):              1214.638325
MG Hartree energy from (\int eps (grad phi)^2 dr):     1214.455144
MG Discrepancy due to finite box and discretization:     -0.183181 (  -0.01508%)
MG Correction to account for finite box:                  0.006254
MG Remaining discrepancy, due to discretization:         -0.176927 (  -0.01457%)
      ideal mu1:      -0.481823453075
             Q0:  -11749.752991530579
             G0:      -0.000000005141
   RMS gradient:       0.000000011178

Reusing previously generated solute cavity.
MG BCs: +ve charge blocks (gridpoints):     28741 (   19213844).
MG BCs: -ve charge blocks (gridpoints):      8542 (    1068761).
MG BCs:     Elided blocks (gridpoints):    186491 (  190420940).
MG BCs: Computational effort saved:  99.9823%.
MG BCs: Charge after coarse-graining:           -9.0009624.
MG DL_MG: Calling solver with defect correction order = 8
MG DL_MG: Solver finished
MG Hartree energy from (\int phi*rho dr):              1214.638289
MG Hartree energy from (\int eps (grad phi)^2 dr):     1214.455109
MG Discrepancy due to finite box and discretization:     -0.183181 (  -0.01508%)
MG Correction to account for finite box:                  0.006254
MG Remaining discrepancy, due to discretization:         -0.176927 (  -0.01457%)
     Trial step:       0.704196541934
             Q1:  -11749.752991532558
 Quadratic coef:       0.000000001641
 Linear coef   :      -0.000000003620
           Qmin:  -11749.752991532576
Quadratic minimum step length (  0.776903081867) accepted
    Initial Ne1:    7234.00000000
      Final Ne1:    7234.00000000

=================== Penalty functional idempotency correction ==================
 RMS occupancy error at iteration   1:  0.000000 (step -0.5000 Ne1=   7234.0000)
            Final RMS occupancy error   :  0.000000 (Ne1=   7234.0000)
               Final occupancy bounds   : [  0.0000,  1.0000]
================================================================================

    8        -1.174975299153E+04     1.1178E-08     1.0111E-08    -3.7253E-09

Reusing previously generated solute cavity.
MG BCs: +ve charge blocks (gridpoints):     28741 (   19213844).
MG BCs: -ve charge blocks (gridpoints):      8542 (    1068761).
MG BCs:     Elided blocks (gridpoints):    186491 (  190420940).
MG BCs: Computational effort saved:  99.9823%.
MG BCs: Charge after coarse-graining:           -9.0009624.
MG DL_MG: Calling solver with defect correction order = 8
MG DL_MG: Solver finished
MG Hartree energy from (\int phi*rho dr):              1214.638286
MG Hartree energy from (\int eps (grad phi)^2 dr):     1214.455105
MG Discrepancy due to finite box and discretization:     -0.183181 (  -0.01508%)
MG Correction to account for finite box:                  0.006254
MG Remaining discrepancy, due to discretization:         -0.176927 (  -0.01457%)
      ideal mu1:      -0.481823398973
             Q0:  -11749.752991532558
             G0:      -0.000000002613
   RMS gradient:       0.000000006953

Reusing previously generated solute cavity.
MG BCs: +ve charge blocks (gridpoints):     28741 (   19213844).
MG BCs: -ve charge blocks (gridpoints):      8542 (    1068761).
MG BCs:     Elided blocks (gridpoints):    186491 (  190420940).
MG BCs: Computational effort saved:  99.9823%.
MG BCs: Charge after coarse-graining:           -9.0009624.
MG DL_MG: Calling solver with defect correction order = 8
MG DL_MG: Solver finished
MG Hartree energy from (\int phi*rho dr):              1214.638272
MG Hartree energy from (\int eps (grad phi)^2 dr):     1214.455091
MG Discrepancy due to finite box and discretization:     -0.183181 (  -0.01508%)
MG Correction to account for finite box:                  0.006254
MG Remaining discrepancy, due to discretization:         -0.176927 (  -0.01457%)
     Trial step:       0.739656990550
             Q1:  -11749.752991533023
 Quadratic coef:       0.000000001466
 Linear coef   :      -0.000000001932
           Qmin:  -11749.752991533194
Quadratic minimum step length (  0.487442627841) accepted
    Initial Ne1:    7234.00000000
      Final Ne1:    7234.00000000

=================== Penalty functional idempotency correction ==================
 RMS occupancy error at iteration   1:  0.000000 (step -0.5000 Ne1=   7234.0000)
            Final RMS occupancy error   :  0.000000 (Ne1=   7234.0000)
               Final occupancy bounds   : [ -0.0000,  1.0000]
================================================================================

    9        -1.174975299153E+04     6.9526E-09     6.2885E-09    -1.9791E-09

Reusing previously generated solute cavity.
MG BCs: +ve charge blocks (gridpoints):     28741 (   19213844).
MG BCs: -ve charge blocks (gridpoints):      8542 (    1068761).
MG BCs:     Elided blocks (gridpoints):    186491 (  190420940).
MG BCs: Computational effort saved:  99.9823%.
MG BCs: Charge after coarse-graining:           -9.0009624.
MG DL_MG: Calling solver with defect correction order = 8
MG DL_MG: Solver finished
MG Hartree energy from (\int phi*rho dr):              1214.638277
MG Hartree energy from (\int eps (grad phi)^2 dr):     1214.455096
MG Discrepancy due to finite box and discretization:     -0.183181 (  -0.01508%)
MG Correction to account for finite box:                  0.006254
MG Remaining discrepancy, due to discretization:         -0.176927 (  -0.01457%)
      ideal mu1:      -0.481823397235
   10        -1.174975299153E+04     4.1964E-09     3.7955E-09    -4.6566E-10
Finished density kernel iterations (  10)

Writing density kernel to file "complex_25181.dkn" ... done


>>> Density kernel optimised for the current NGWF basis:
     ~~~~~~~~~~~~~~~~~~~~~~~~~~~~~~~~~~~~~~~~~~~~~~~~~~~~~~~~~~~
     Total energy                =  -1.17497529915330E+04  Eh
     Estimated bandgap           =   8.6464E-02  Eh
     RMS occupancy error         =   5.9273E-16
     [H,K] commutator            =   3.7955E-09
     Occupancy bounds            = [ -0.000:  1.000]
     ~~~~~~~~~~~~~~~~~~~~~~~~~~~~~~~~~~~~~~~~~~~~~~~~~~~~~~~~~~~




################################################################################
########################### NGWF CG iteration  004 #############################
################################################################################
****** Reciprocal space K.E. preconditioning with k_zero =  3.5000 a0^-1 *******

>>> Checking for convergence of NGWFs: 
           ........................................................
           |         *** NGWF optimisation converged ***          |
           | RMS NGWF gradient =    0.00000194208822              |
           | Criteria satisfied:                                  |
           | -> RMS NGWF gradient lower than set threshold.       |
           ========================================================

Reusing previously generated solute cavity.
MG BCs: +ve charge blocks (gridpoints):     28741 (   19213844).
MG BCs: -ve charge blocks (gridpoints):      8542 (    1068761).
MG BCs:     Elided blocks (gridpoints):    186491 (  190420940).
MG BCs: Computational effort saved:  99.9823%.
MG BCs: Charge after coarse-graining:           -9.0009624.
MG DL_MG: Calling solver with defect correction order = 8
MG DL_MG: Solver finished
MG Hartree energy from (\int phi*rho dr):              1214.638277
MG Hartree energy from (\int eps (grad phi)^2 dr):     1214.455096
MG Discrepancy due to finite box and discretization:     -0.183181 (  -0.01508%)
MG Correction to account for finite box:                  0.006254
MG Remaining discrepancy, due to discretization:         -0.176927 (  -0.01457%)

================================================================================
           ---------------- ENERGY COMPONENTS (Eh) ----------------
           | Kinetic                    :     8585.35801165219164 |
           | Pseudo. (local,OBC,corr'd) :    -5084.88847124298081 |
           | Pseudopotential (non-local):     1411.61619792689908 |
           | Hartree (molecular)        :     1214.63827653989983 |
           | Exchange-correlation       :    -3378.18193130524878 |
           | Ion-ion (open BC)          :   835363.81665978347883 |
           | Dispersion Correction      :       -3.29218476466934 |
           | Smeared ion non-self corr. :  -835315.52864852768835 |
           | Smeared ion self corr.     :   -14543.93950988473080 |
           | Solvent cavitation energy  :        2.30759864693022 |
           | Solute-solvent dis-rep en. :       -1.65899035724431 |
           | Total                      :   -11749.75299153314518 |
           --------------------------------------------------------
           ------ LOCAL ENERGY COMPONENTS FROM MATRIX TRACES ------
           | Pseudopotential (local)    :    -5084.88847124297808 |
           | Hartree                    :    -2004.76510862328723 |
           --------------------------------------------------------
           Integrated density           :     7233.99999999776355
           Integrated density tr(KS)    :     7234.00000000000000
================================================================================


                        <<<<< CALCULATION SUMMARY >>>>>                         
|ITER|    RMS GRADIENT   |     TOTAL ENERGY    |   step   |     Epredicted              
   0     0.00003860919563 -11749.69307152018882   0.624574 -11749.74480208119712        
   1     0.00001002875994 -11749.75235621887259   0.094756 -11749.75288573958278        
   2     0.00000438218519 -11749.75297084392514   0.016957 -11749.75298893705985        
   3     0.00000194208822 -11749.75299153302331  <-- CG                                 

=================== Finished the calculation in solvent ========================
= Adjusting the following parameters: 
= read_denskern: F
= read_tightbox_ngwfs: F
= maxit_pen: 0 (restored to user-specified value)
= restart read filename prefix: ""
= restart write filename prefix: ""
================================================================================

================================================================================
IS: Calculation in solvent completed (NGWFs converged).      

Individual components of total energy in solvent:     hartree           kcal/mol
- Usual non-electrostatic DFT terms:    -12965.03987636260899    -8135685.177519
- Electrostatic fixed charge energy:      1214.63827653989983      762197.009553
- Apolar cavitation energy:                  2.30759864693022        1448.039982
- Apolar dispersion-repulsion energy:       -1.65899035724431       -1041.032144
 -------------------------------------------------------------------------------
- Total energy in solvent:              -11749.75299153302331    -7373081.160128

Components of total energy in solvent:                hartree           kcal/mol
- Usual non-electrostatic DFT terms:    -12965.03987636260899    -8135685.177519
- Electrostatic energy:                   1214.63827653989983      762197.009553
- Apolar energy terms:                       0.64860828968591         407.007838
 -------------------------------------------------------------------------------
- Total energy in solvent:              -11749.75299153302331    -7373081.160128

Calculation of free energy of solvation:              hartree           kcal/mol
- Total energy in solvent:         (+)  -11749.75299153302331    -7373081.160128
- Total energy in vacuum:          (-)  -11745.98415443382692    -7370716.179194
 -------------------------------------------------------------------------------
- Total free energy of solvation:           -3.76883709919639       -2364.980935

Components of polar term in f.e. of solvation:        hartree           kcal/mol
- Electrostatic:                            -4.66516084870136       -2927.432567
- Change in nonelectrostatic DFT terms:      0.24771545981821         155.443795
 -------------------------------------------------------------------------------
- Polar term in f.e. of solvation:          -4.41744538888315       -2771.988773

Components of free energy of solvation:               hartree           kcal/mol
- Polar term in f.e. of solvation: (+)      -4.41744538888315       -2771.988773
- Apolar (cavitation, dis., rep.): (+)       0.64860828968591         407.007838
 -------------------------------------------------------------------------------
- Total free energy of solvation:           -3.76883709919724       -2364.980935
================================================================================


------------------------------ TIMING INFORMATION ------------------------------
AVERAGE TIME:   30445.596s on     40 node(s)                                    
TOTAL TIME:     30445.597s on     40 node(s)                                    
================= AVERAGE TIMINGS FROM ALL NODES (CUMULATIVE) ==================
|| TAG                                    #calls    cpu time   %total  Gflops ||
|| work_imbalance                       :     1        0.00s   0.000%  ------ ||
|| parallel_prepare_fd_halos_request    :  2073        0.02s   0.000%  ------ ||
|| sparse_set_to_garbage                :   194        0.04s   0.000%  ------ ||
|| parallel_prepare_fd_halos_satisfy    :  2073        0.06s   0.000%  ------ ||
|| parallel_prepare_fd_halos_alloc      :  2073        0.07s   0.000%  ------ ||
|| ngwfs_initialise_from_radial         :     1        0.17s   0.001%  ------ ||
|| basis_extract_function_from_box      :  5725        0.19s   0.001%  ------ ||
|| restart_ngwfs_tightbox_input         :     1        1.09s   0.004%  ------ ||
|| pseudopotentials_nonlocal_mat        :    33        2.49s   0.008%  ------ ||
|| parallel_prepare_fd_halos_comms_imbal:  2073        2.68s   0.009%  ------ ||
|| density_init_guess_real              :     1        3.08s   0.010%  ------ ||
|| restart_kernel_read                  :     1        3.63s   0.012%  ------ ||
|| openbc_locps_radial                  :     1        4.65s   0.015%  ------ ||
|| parallel_prepare_fd_halos_clear      :  2073       15.71s   0.052%  ------ ||
|| sparse_init                          :     2       22.84s   0.075%  ------ ||
|| projectors_func_ovlp_box             :    33       26.24s   0.086%  ------ ||
|| parallel_prepare_fd_halos_comms_wait :  2073       27.65s   0.091%  ------ ||
|| function_ops_brappd_ketppd           :    33       29.60s   0.097%  ------ ||
|| projectors_init_fftbox_recip         :   220       30.76s   0.101%  ------ ||
|| palser_mano_kernel_optimise          :     1       39.52s   0.130%  ------ ||
|| parallel_prepare_fd_halos            :  2073       46.21s   0.152%  ------ ||
|| restart_kernel_write                 :    18       60.23s   0.198%  ------ ||
|| pseudo_make_structure_factor         :     2       62.50s   0.205%  ------ ||
|| fourier_apply_box_pair               :  8267       63.76s   0.209% 567.718 ||
|| basis_copy_function_to_box           : 93401       64.56s   0.212%  ------ ||
|| ngwf_gradient_coeffs                 :    17       68.83s   0.226%  ------ ||
|| sparse_embed_hotelling_invert_embed  :    33      102.09s   0.335%  ------ ||
|| finite_difference_derivative         :  2073      127.03s   0.417%  ------ ||
|| integrals_kinetic                    :    33      183.25s   0.602%  ------ ||
|| restart_ngwfs_tightbox_output        :    15      198.27s   0.651%  ------ ||
|| openbc_locps_on_grid                 :     2      202.98s   0.667%  ------ ||
|| projectors_gradient_batch            :   187      250.09s   0.821%  ------ ||
|| fourier_apply_cell_forward           :  1381      250.38s   0.822%  82.357 ||
|| sparse_trace                         :  5397      257.77s   0.847%  ------ ||
|| fourier_apply_cell_backward          :  1383      262.92s   0.864%  78.541 ||
|| basis_dot_function_with_box          : 14.34M     267.39s   0.878%  ------ ||
|| kernel_purify                        :   527      380.25s   1.249%  ------ ||
|| hamiltonian_energy_components        :     4      455.04s   1.495%  ------ ||
|| basis_add_function_to_box            : 29.94M     547.60s   1.799%  ------ ||
|| xc_energy_potential                  :   345      599.20s   1.968%  ------ ||
|| lnv_gradient_norm                    :   170      610.12s   2.004%  ------ ||
|| kernel_fix                           :   170      647.48s   2.127%  ------ ||
|| ngwf_gradient_build_batch            :   187      915.73s   3.008%  ------ ||
|| integrals_locpot_mat_els_batch       :  1969      966.89s   3.176%  ------ ||
|| cell_grid_deposit_box_real           : 58554     1011.51s   3.322%  ------ ||
|| cell_grid_extract_box_real           : 54224     1102.42s   3.621%  ------ ||
|| ngwf_gradient_batch                  :   187     1237.55s   4.065%  ------ ||
|| density_batch_row_sums               :  3784     1261.43s   4.143%  ------ ||
|| ngwf_gradient_lnv                    :    17     1416.73s   4.653%  ------ ||
|| density_fftbox_deposit_to_cell       : 56416     1793.03s   5.889%  ------ ||
|| sparse_product                       :  6917     2319.80s   7.619%  ------ ||
|| multigrid_prepare_bound_cond         :   345     2705.25s   8.886%  ------ ||
|| potential_apply_to_ngwf_batch        :  1969     3872.88s  12.721%  ------ ||
|| fourier_apply_box                    : 194.5k    4397.70s  14.444% 937.841 ||
|| density_fftbox_interpolate_multiply  : 56416     4496.64s  14.769%  ------ ||
|| integrals_locpot_dbl_grid            :   179     4854.25s  15.944%  ------ ||
|| density_batch_interp_deposit         :  3784     7174.40s  23.565%  ------ ||
|| dl_mg_solver_calls                   :   345     7509.76s  24.666%  ------ ||
|| density_on_dbl_grid                  :   344     8875.17s  29.151%  ------ ||
|| multigrid_calculate_hartree          :   345    10386.56s  34.115%  ------ ||
|| hamiltonian_lhxc_calculate           :   340    19904.97s  65.379%  ------ ||
|| lnv_denskernel_optimise_cg           :    17    26090.76s  85.696%  ------ ||
|| ngwf_cg_optimise                     :     2    29595.65s  97.208%  ------ ||
|| total_time                           :     1    30445.60s 100.000%  ------ ||
================================================================================
Overhead of generating timer report: 
- 0 ms averaging over threads,
- 5 ms ensuring consistency across MPI ranks,
- 0 ms printing in order.

Job completed: 07-05-2020 14:25 (+0100)

