 +---------------------------------------------------------------+
 |                                                               |
 |        ####### #     # ####### ####### ####### ######         |
 |        #     # ##    # #          #    #       #     #        |
 |        #     # # #   # #          #    #       #     #        |
 |        #     # #  #  # #####      #    #####   ######         |
 |        #     # #   # # #          #    #       #              |
 |        #     # #    ## #          #    #       #              |
 |        ####### #     # #######    #    ####### #              |
 |                                                               |
 |        Linear-Scaling Ab Initio Total Energy Program          |
 |                                                               |
 |          Release for academic collaborators of ODG            |
 |                                             Version 5.3.2.6.  |
 |                                                               |
 +---------------------------------------------------------------+
 |                                                               |
 |  Authors:                                                     |
 |  Jacek Dziedzic, Peter D. Haynes, Nicholas D. M. Hine,        |
 |  Arash. A. Mostofi, Mike C. Payne and Chris-Kriton Skylaris   |
 |                                                               |
 |  Contributors:                                                |
 |  J. Aarons, L. Andrinopoulos, P. W. Avraam, R. A. Bell,       |
 |  A. Bhandari, G. A. Bramley, R. J. Charlton, S. J. Clark,     |
 |  R. J. Clements, G. C. Constantinescu, F. Corsetti,           |
 |  N. Corsini, O. Dieguez, S. M. M. Dubois, K. K. B. Duff,      |
 |  J. M. Escartin, A. Greco, H. Helal, Q. O. Hill, L. P. Lee,   |
 |  J.-H. Li, E. B. Linscott, G. Moynihan, D. D. O`Regan,        |
 |  O. K. Okan, M. J. S. Phipps, C. J. Pickard,                  |
 |  J. C. A. Prentice, M. I. J. Probert, L. E. Ratcliff,         |
 |  M. Robinson, A. Ruiz Serrano, J. S. Spencer, E. W. Tait,     |
 |  G. Teobaldi, D. Turban, V. Vitale, K. A. Wilkinson,          |
 |  C. Weber, J. C. Womack, N. Yeung and T. J. Zuehlsdorff       |
 |                                                               |
 |                                   Copyright (c) 2004-2019     |
 |                                                               |
 |  Please cite:                                                 |
 |  "Introducing ONETEP: Linear-scaling density functional       |
 |   simulations on parallel computers".                         |
 |   C.-K. Skylaris, P. D. Haynes, A. A. Mostofi, M. C. Payne.   |
 |   J. Chem. Phys. 122 084119 (2005).                           |
 |                                                               |
 |          in all publications arising from your use of ONETEP. |
 |                                                               |
 +---------------------------------------------------------------+
 |                                                               |
 |   ONETEP is based on developments described in the following  |
 |   publications:                                               |
 |                                                               |
 |  "Nonorthogonal generalized Wannier function pseudopotential  |
 |   plane-wave method".                                         |
 |   C.-K. Skylaris, A. A. Mostofi, P. D. Haynes, O. Dieguez,    |
 |   M. C. Payne.                                                |
 |   Phys. Rev. B 66 035119 (2002).                              |
 |                                                               |
 |  "Preconditioned iterative minimization for linear-scaling    |
 |   electronic structure calculations".                         |
 |   A. A. Mostofi, P. D. Haynes, C.-K. Skylaris, M. C. Payne.   |
 |   J. Chem. Phys. 119(17), pp.8842-8848 (2003).                |
 |                                                               |
 |  "Total-energy calculations on a real space grid with         |
 |   localized functions and a plane-wave basis".                |
 |   A. A. Mostofi, C.-K. Skylaris, P. D. Haynes, M. C. Payne.   |
 |   Comput. Phys. Commun. 147, pp.788-802 (2002).               |
 |                                                               |
 |  "Accurate kinetic energy evaluation in electronic structure  |
 |   calculations with localized functions on real space grids"  |
 |   C.-K. Skylaris, A. A. Mostofi, P. D. Haynes, C. J. Pickard, |
 |   M. C. Payne.                                                |
 |   Comput. Phys. Commun. 140, pp.315-322 (2001).               |
 |                                                               |
 |  "Accurate ionic forces and geometry optimization in linear-  |
 |   scaling density-functional theory with local orbitals"      |
 |   N. D. M. Hine, M. Robinson, P. D. Haynes, C.-K. Skylaris,   |
 |   M. C. Payne, and A. A. Mostofi.                             |
 |   Phys. Rev. B 83 195102 (2011).                              |
 |                                                               |
 +---------------------------------------------------------------+

Job started: 08-05-2020 19:34 (+0100)
 
Reading parameters from file "complex_36581.dat" ...... done

If your calculation crashes here, before "Checking processes and threads..."
is displayed, then your stack size is insufficient.
If so, use "ulimit -s unlimited" at runtime.
You can disable this check with "check_stack_size F".

Checking processes and threads...
   Determining the default number of threads...
      No default threads set at compilation time: defaulting to 1.
      OpenMP library call suggests 4 threads.
      Hybrid MPI-OpenMP compilation detected.
      Number of MPI processes > 1.
      OMP_NUM_THREADS environment variable present and
      its value matches the one obtained from the OpenMP library call.
      Using this value as default.
      Default threads: 4
      Default applies to threads_max and threads_num_fftboxes.
      Settings in the input file override this default.
   ... done

   Running with 40 MPI processes.
   There are 10 MPI processes running on the same node as the root process.
   Each MPI process is using: 
               1 threads for simulation cell FFTs.
               1 threads for parallel FFT box operations.
               4 threads for loops over batched FFT box operations.
               4 threads in other parallel regions.
... done

Basic input checks...... done

Reading geometry and species blocks from file "complex_36581.dat" ...
  <species_atomic_set> block not found: NGWF initialisation set to SOLVE
IS: Dielectric excluded regions:
    - NONE.
    
  Number of PPD points along a3 set to 1.  This is 
  the default value, it may have been provided also in the input file.
... done
 Writing xyz coordinates to file "complex_36581.xyz" ... done


--------------------------------------------------------------------------------
---------------------------------- INPUT FILE ----------------------------------
--------------------------------------------------------------------------------

cutoff_energy       : 800 eV                                                    
xc_functional PBE                                                               
task SINGLEPOINT                                                                
write_xyz true                                                                  
output_detail VERBOSE                                                           
ngwf_threshold_orig : 0.000002                                                  
kernel_cutoff       : 1000                                                      
k_zero              : 3.5                                                       
elec_cg_max 0                                                                   
occ_mix 1.0                                                                     
dispersion 1                                                                    
maxit_ngwf_cg 40                                                                
minit_lnv 10                                                                    
maxit_lnv 10                                                                    
write_denskern T                                                                
write_tightbox_ngwfs T                                                          
charge 9                                                                        
is_implicit_solvent T                                                           
is_auto_solvation T                                                             
is_include_apolar T                                                             
is_smeared_ion_rep T                                                            
is_solvent_surf_tension 4.7624E-5 Ha/bohr**2                                    
is_apolar_scaling_factor 0.281075                                               
is_solvation_beta 1.3                                                           
is_density_threshold 0.00035                                                    
is_bulk_permittivity 78.54                                                      
is_dielectric_model fix_initial                                                 
is_smeared_ion_width 0.8                                                        
mg_defco_fd_order 8                                                             
is_bc_coarseness 10                                                             
is_bc_surface_coarseness 1                                                      
fine_grid_scale 2.0                                                             
%block species                                                                  
N   N   7 4 8.0                                                                 
H   H   1 1 8.0                                                                 
C   C   6 4 8.0                                                                 
S   S  16 9 8.0                                                                 
O   O   8 4 8.0                                                                 
%endblock species                                                               
%block species_pot                                                              
N   N_00.recpot                                                                 
H   H_04.recpot                                                                 
C   C_01.recpot                                                                 
S   S_00.recpot                                                                 
O   O_02.recpot                                                                 
%endblock species_pot                                                           
%block lattice_cart                                                             
142.669   0.000   0.000                                                         
0.000 146.65   0.000                                                            
0.000   0.000   162.396                                                         
%endblock lattice_cart                                                          
%block positions_abs                                                            
     Hash =   000005442464817057747267
%endblock positions_abs                                                         

--------------------------------------------------------------------------------
-------------------------------- END INPUT FILE --------------------------------
--------------------------------------------------------------------------------


 
 ESDF WARNING(1): "kernelcutoff" (esdf_physical) has no units. Assume "bohr".
 ESDF WARNING(2): "kzero" (esdf_physical) has no units. Assume "1/bohr".
 ESDF WARNING(3
 ): "issmearedionwidth" (esdf_physical) has no units. Assume "bohr".
<<<<<<<<<<<<<<<<<<<<<<<<<<<<<<<<< Full system >>>>>>>>>>>>>>>>>>>>>>>>>>>>>>>>>>
<<<<<<<<<<<<<<<<<<<<<<<<< Pseudopotential information >>>>>>>>>>>>>>>>>>>>>>>>>>
File: N_00.recpot [ 2001 points up to Gmax=  52.9 (1/bohr)]
  Atomic number:  7;  ionic charge:  5.000000
    Shell 1: l = 0; rc = 1.48 bohr
File: H_04.recpot [ 2001 points up to Gmax=  52.9 (1/bohr)]
  Atomic number:  1;  ionic charge:  1.000000
    Local potential
File: C_01.recpot [ 2001 points up to Gmax=  52.9 (1/bohr)]
  Atomic number:  6;  ionic charge:  4.000000
    Shell 1: l = 0; rc = 1.48 bohr
File: S_00.recpot [ 2001 points up to Gmax=  52.9 (1/bohr)]
  Atomic number: 16;  ionic charge:  6.000000
    Shell 1: l = 0; rc = 1.90 bohr
    Shell 2: l = 2; rc = 1.84 bohr
File: O_02.recpot [ 2001 points up to Gmax=  52.9 (1/bohr)]
  Atomic number:  8;  ionic charge:  6.000000
    Shell 1: l = 0; rc = 1.31 bohr
<<<<<<<<<<<<<<<<<<<<<<<<<<<<<<<<<<<<<<<<>>>>>>>>>>>>>>>>>>>>>>>>>>>>>>>>>>>>>>>>

-------------------------- Atom counting information ---------------------------
Symbol    Natoms    Nngwfs    Nprojs
  N        236       944       236
  H       1317      1317         0
  C        816      3264       816
  S          6        54        36
  O        241       964       241
.......   ......    ......    ......
Totals:   2616      6543      1329
--------------------------------------------------------------------------------

=============================== PSINC grid sizes ===============================
                      Simulation cell:  286 x 294 x 320
                              FFT-box:  105 x 105 x  99
                                  PPD:   11 x   6 x   1
Grid space d1=  0.498842657343a0 (KE cutoff=  30.52649Eh = 830.66799eV)
Grid space d2=  0.498809523810a0 (KE cutoff=  30.53054Eh = 830.77835eV)
Grid space d3=  0.507487500000a0 (KE cutoff=  29.49533Eh = 802.60885eV)
================================================================================

********************* Fourier parallelisation information **********************
       Coarse grid (whole simulation cell) dimensions:    286   294   320
          Real-space ('12') slabs/node (min max mean):      8     8     8
         Recip-space ('23') slabs/node (min max mean):      3     4     3
********************************************************************************

********************* Fourier parallelisation information **********************
       Double grid (whole simulation cell) dimensions:    572   588   640
          Real-space ('12') slabs/node (min max mean):     16    16    16
         Recip-space ('23') slabs/node (min max mean):      7     8     7
********************************************************************************
ONETEP fine grid is 572 x 588 x 640 gridpoints, 142.6690 x 146.6500 x 162.3960 bohr.
FD multigrid is     569 x 585 x 633 gridpoints, 141.9207 x 145.9018 x 160.6198 bohr.


Calculating local pseudopotential in open BC on a radial grid ...
Discrepancy between calculated realspace psloc and -Z/x on [5a0,261.215a0]:
max |rel. diff| # avg |rel. diff| #  avg rel. diff #  f # pseudopotential file
 0.000261901569    0.000004963664   0.000000071970   55  'N_00.recpot'
 0.000422260137    0.000017549664  -0.000000063361   55  'H_04.recpot'
 0.000361991046    0.000016543264   0.000000134927   55  'C_01.recpot'
 0.000447743184    0.000019132268   0.000000438157   55  'S_00.recpot'
 0.000711628927    0.000028437426   0.000000135877   55  'O_02.recpot'
... done

Atom SCF Calculation for N  : Z (AE atom) =   7 : Z (PS atom) =   5
Config String:
Orbitals (num,occ):  2     2.00 3.00
Orbitals   (num,l):  2        0    1
Real-space Grid (nr,dr,rmax): 1203    0.0066555740    8.0000000000
Spherical Bessel Basis (nsws,lmax,cutoff):   47    1  176.3951722778
Confining potential (l,width,scale):  0    3.0000000000  100.0000000000
Confining potential (l,width,scale):  1    3.0000000000  100.0000000000
  1         -4.7312375307   -3.4155304497    7.0523828109   -1.9351020946
  2         -9.7309464766   -2.0532547791    8.2966052865   -2.2494486027
  3         -9.6627394379   -2.1124926340    8.2327997121   -2.2369778124
  4         -9.6814993499   -2.1215521045    8.2229805960   -2.2365178421
  5         -9.6843326483   -2.1250939529    8.2191374534   -2.2362718126
  6         -9.6859628709   -2.1267894855    8.2172963573   -2.2362066344
  7         -9.6867347035   -2.1276425665    8.2163697352   -2.2361903369
  8         -9.6870802100   -2.1280764625    8.2158983890   -2.2361891460
  9         -9.6872290423   -2.1282977424    8.2156580222   -2.2361920435
 10         -9.6872901988   -2.1284107021    8.2155353368   -2.2361953393
 11         -9.6873135296   -2.1284684031    8.2154726809   -2.2361979819
 12         -9.6873212476   -2.1284978948    8.2154406648   -2.2361998431
 13         -9.6873229586   -2.1285129774    8.2154242957   -2.2362010676
 14         -9.6873226456   -2.1285206957    8.2154159216   -2.2362018403
 15         -9.6873218534   -2.1285246479    8.2154116349   -2.2362023142
 16         -9.6873212599   -2.1285262679    8.2154098784   -2.2362025420
 17         -9.6873207834   -2.1285272564    8.2154088068   -2.2362026955
 18         -9.6873204210   -2.1285278597    8.2154081529   -2.2362027982
 19         -9.6873201550   -2.1285282280    8.2154077538   -2.2362028667
 20         -9.6873199645   -2.1285284529    8.2154075102   -2.2362029121
 21         -9.6873198305   -2.1285285903    8.2154073614   -2.2362029421
 22         -9.6873197377   -2.1285286742    8.2154072705   -2.2362029618
Atom SCF converged after  22 iterations to a total energy of     -9.68731974

Atom SCF Calculation for H  : Z (AE atom) =   1 : Z (PS atom) =   1
Config String:
Orbitals (num,occ):  1     1.00
Orbitals   (num,l):  1        0
Real-space Grid (nr,dr,rmax): 1203    0.0066555740    8.0000000000
Spherical Bessel Basis (nsws,lmax,cutoff):   47    0  176.3951722778
Confining potential (l,width,scale):  0    3.0000000000  100.0000000000
  1         -0.3194257691   -0.2393854593    0.2820953124   -0.2424203209
  2         -0.3951823392   -0.2377116493    0.2886404059   -0.2475147891
  3         -0.4317044583   -0.2352244387    0.2921333887   -0.2514046172
  4         -0.4470703708   -0.2341892222    0.2934391879   -0.2531009782
  5         -0.4532132900   -0.2338556667    0.2938388426   -0.2537313520
  6         -0.4556579251   -0.2337612552    0.2939448584   -0.2539550462
  7         -0.4566418315   -0.2337377355    0.2939680120   -0.2540342273
  8         -0.4570437922   -0.2337331116    0.2939708287   -0.2540627372
  9         -0.4572102946   -0.2337328328    0.2939698291   -0.2540732650
 10         -0.4572800424   -0.2337332404    0.2939687193   -0.2540772588
 11         -0.4573095100   -0.2337335791    0.2939680317   -0.2540788122
 12         -0.4573220379   -0.2337337762    0.2939676699   -0.2540794294
 13         -0.4573273880   -0.2337338775    0.2939674931   -0.2540796787
 14         -0.4573296803   -0.2337339266    0.2939674099   -0.2540797808
 15         -0.4573306647   -0.2337339495    0.2939673718   -0.2540798230
 16         -0.4573310882   -0.2337339601    0.2939673545   -0.2540798406
 17         -0.4573312706   -0.2337339649    0.2939673467   -0.2540798479
 18         -0.4573313493   -0.2337339670    0.2939673433   -0.2540798510
Atom SCF converged after  18 iterations to a total energy of     -0.45733135

Atom SCF Calculation for C  : Z (AE atom) =   6 : Z (PS atom) =   4
Config String:
Orbitals (num,occ):  2     2.00 2.00
Orbitals   (num,l):  2        0    1
Real-space Grid (nr,dr,rmax): 1203    0.0066555740    8.0000000000
Spherical Bessel Basis (nsws,lmax,cutoff):   47    1  176.3951722778
Confining potential (l,width,scale):  0    3.0000000000  100.0000000000
Confining potential (l,width,scale):  1    3.0000000000  100.0000000000
  1         -5.2976922011   -1.3069684169    4.5135249990   -1.4493313817
  2         -5.3721716256   -1.3429755895    4.4750154450   -1.4361613026
  3         -5.3809959565   -1.3617365618    4.4541655428   -1.4305930207
  4         -5.3918938866   -1.3667928461    4.4484735100   -1.4294652294
  5         -5.3956096428   -1.3688539142    4.4461376126   -1.4290734646
  6         -5.3968271862   -1.3696852393    4.4451910874   -1.4289366866
  7         -5.3972028401   -1.3700178062    4.4448112275   -1.4288900460
  8         -5.3973067903   -1.3701500158    4.4446598370   -1.4288749220
  9         -5.3973286940   -1.3702023868    4.4445997329   -1.4288704293
 10         -5.3973289850   -1.3702230869    4.4445759233   -1.4288693188
 11         -5.3973254264   -1.3702312560    4.4445665049   -1.4288691775
 12         -5.3973224003   -1.3702344755    4.4445627836   -1.4288692549
 13         -5.3973208708   -1.3702354890    4.4445616088   -1.4288693270
 14         -5.3973198783   -1.3702360102    4.4445610034   -1.4288693814
 15         -5.3973192535   -1.3702362780    4.4445606917   -1.4288694190
 16         -5.3973188684   -1.3702364155    4.4445605313   -1.4288694437
 17         -5.3973186349   -1.3702364860    4.4445604489   -1.4288694595
 18         -5.3973184951   -1.3702365221    4.4445604065   -1.4288694693
 19         -5.3973184122   -1.3702365405    4.4445603848   -1.4288694753
Atom SCF converged after  19 iterations to a total energy of     -5.39731841

Atom SCF Calculation for S  : Z (AE atom) =  16 : Z (PS atom) =   6
Config String:
Orbitals (num,occ):  3     2.00 4.00 0.00
Orbitals   (num,l):  3        0    1    2
Real-space Grid (nr,dr,rmax): 1203    0.0066555740    8.0000000000
Spherical Bessel Basis (nsws,lmax,cutoff):   47    2  176.3951722778
Confining potential (l,width,scale):  0    3.0000000000  100.0000000000
Confining potential (l,width,scale):  1    3.0000000000  100.0000000000
Confining potential (l,width,scale):  2    3.0000000000  100.0000000000
  1        -12.4735062396   -1.0328741412   10.1554312477   -2.4512393157
  2         -9.9458301913   -2.4607392455    8.3041325857   -2.0306994528
  3        -10.1450417646   -2.2931184565    8.4831893826   -2.0812538287
  4        -10.1528335592   -2.2733105793    8.5050388867   -2.0896035179
  5        -10.1571940363   -2.2633716629    8.5160794258   -2.0939370707
  6        -10.1594380571   -2.2584938667    8.5215163935   -2.0961289008
  7        -10.1605856507   -2.2561081821    8.5241804044   -2.0972291378
  8        -10.1611799191   -2.2549395235    8.5254868240   -2.0977806248
  9        -10.1614918752   -2.2543658586    8.5261285885   -2.0980571586
 10        -10.1616572884   -2.2540839121    8.5264441898   -2.0981959233
 11        -10.1617455602   -2.2539453058    8.5265994231   -2.0982656006
 12        -10.1617928447   -2.2538772062    8.5266757320   -2.0983006047
 13        -10.1618182292   -2.2538437891    8.5267131983   -2.0983181961
 14        -10.1618318741   -2.2538274201    8.5267315620   -2.0983270391
 15        -10.1618392144   -2.2538194197    8.5267405433   -2.0983314852
 16        -10.1618431651   -2.2538155200    8.5267449245   -2.0983337210
 17        -10.1618452923   -2.2538136252    8.5267470551   -2.0983348455
 18        -10.1618464380   -2.2538127080    8.5267480875   -2.0983354110
 19        -10.1618470552   -2.2538122659    8.5267485856   -2.0983356955
 20        -10.1618473878   -2.2538120540    8.5267488248   -2.0983358386
 21        -10.1618475670   -2.2538119530    8.5267489389   -2.0983359106
 22        -10.1618476637   -2.2538119053    8.5267489929   -2.0983359468
Atom SCF converged after  22 iterations to a total energy of    -10.16184766

Atom SCF Calculation for O  : Z (AE atom) =   8 : Z (PS atom) =   6
Config String:
Orbitals (num,occ):  2     2.00 4.00
Orbitals   (num,l):  2        0    1
Real-space Grid (nr,dr,rmax): 1203    0.0066555740    8.0000000000
Spherical Bessel Basis (nsws,lmax,cutoff):   47    1  176.3951722778
Confining potential (l,width,scale):  0    3.0000000000  100.0000000000
Confining potential (l,width,scale):  1    3.0000000000  100.0000000000
  1         -1.8735052164   -7.5539365035   10.1554312477   -2.4512393157
  2        -16.0318313751   -3.1285771268   13.6395848164   -3.2358799643
  3        -15.9524020423   -3.0762819706   13.6967272503   -3.2536856837
  4        -15.8521515939   -3.0781493909   13.6951909330   -3.2561700440
  5        -15.8357139793   -3.0748501933   13.6988803334   -3.2580493133
  6        -15.8246052853   -3.0740779781   13.6997881576   -3.2588327446
  7        -15.8189019501   -3.0737449687   13.7001869911   -3.2592378801
  8        -15.8159785510   -3.0736026016   13.7003615168   -3.2594475790
  9        -15.8144776168   -3.0735437994   13.7004360379   -3.2595560735
 10        -15.8137058024   -3.0735207882   13.7004667348   -3.2596122456
 11        -15.8133083127   -3.0735125946   13.7004786868   -3.2596413656
 12        -15.8131032938   -3.0735102195   13.7004828997   -3.2596564858
 13        -15.8129973902   -3.0735099286   13.7004840891   -3.2596643505
 14        -15.8129426040   -3.0735102506   13.7004842061   -3.2596684489
 15        -15.8129142203   -3.0735106556   13.7004840157   -3.2596705887
 16        -15.8128994940   -3.0735109855   13.7004837906   -3.2596717080
 17        -15.8128918425   -3.0735112169   13.7004836103   -3.2596722946
 18        -15.8128878614   -3.0735113674   13.7004834848   -3.2596726026
 19        -15.8128857871   -3.0735114608   13.7004834035   -3.2596727646
 20        -15.8128847048   -3.0735115170   13.7004833533   -3.2596728500
 21        -15.8128841394   -3.0735115501   13.7004833231   -3.2596728951
 22        -15.8128838436   -3.0735115693   13.7004833054   -3.2596729190
 23        -15.8128836887   -3.0735115802   13.7004832951   -3.2596729316
 24        -15.8128836074   -3.0735115864   13.7004832893   -3.2596729383
Atom SCF converged after  24 iterations to a total energy of    -15.81288361

========================== Calculation in vacuum ==============================
= Adjusting the following parameters: 
= is_implicit_solvent: F
= is_include_apolar: F
= write_denskern: T
= write_tightbox_ngwfs: T
= restart read filename prefix: ""
= restart write filename prefix: "vacuum_"
===============================================================================

Determining parallel strategy ...
... using space-filling curve
... NGWF load balancing: max    164;  min    163;  average    164
... Projector load balancing: max     36;  min     32;  average     33
... done
Calculating direct Ion-Ion energy ...
Ion-Ion Energy        :    834038.59920462057926
======================= Empirical dispersion information =======================
Model : Elstner
Dispersion Correction Energy: -0.32481693E+01 Hartree
================================================================================
Basis initialisation ...... NGWF spheres initialised
... Projector spheres initialised
... NGWF tight boxes initialised
... Tight-boxes gathered
... NGWF basis size (local,global):    1184212  47589029
... Nonlocal pseudopotential projector initialisation
... done

========================== Sparse matrix information ===========================
                        Overlap matrix filling:   6.69%
                        Density kernel filling: 100.00%
              NGWF-Proj overlap matrix filling:   1.74%
                    Hamiltonian matrix filling:   7.53%
                  NGWF diagonal matrix filling:   0.05%
                             KS matrix filling: 100.00% 
                           KSKS matrix filling: 100.00% 
================================================================================

Sparse matrix initialisation ... done

Generating smeared ion density ... done
Smeared ion self correction:     -14543.939510
Smeared ion non-self correction: -833990.437163
NGWF initialisation ...... done
============ Calculation of NGWF S^-1 using Hotelling algorithm ================ 
         Iteration  |  Frobenius norm and Maximum abs value    (of I-S*S_n^-1)   
               1       0.78751709E+02     0.98306636E+00
               2       0.76925109E+02     0.96653506E+00
               3       0.73955348E+02     0.93461636E+00
               4       0.69713232E+02     0.87497219E+00
               5       0.64407757E+02     0.77271121E+00
               6       0.58427036E+02     0.70656513E+00
               7       0.52393090E+02     0.67206207E+00
               8       0.46818023E+02     0.64505927E+00
               9       0.40772870E+02     0.60435503E+00
              10       0.32560814E+02     0.53415843E+00
              11       0.22013828E+02     0.43118156E+00
              12       0.11349385E+02     0.29318995E+00
              13       0.37988244E+01     0.13805495E+00
              14       0.62570852E+00     0.37148945E-01
              15       0.34155258E-01     0.36533806E-02
              16       0.25304426E-03     0.37923010E-04
              17       0.26296941E-07     0.55264976E-08
              18       0.96414209E-13     0.57731597E-14
================================================================================
Calculating local pseudopotential in open BC on the fine real space grid ...
... done

MG BCs: +ve charge blocks (gridpoints):     21095 (   16549740).
MG BCs: -ve charge blocks (gridpoints):      8191 (    1102963).
MG BCs:     Elided blocks (gridpoints):    194137 (  193050842).
MG BCs: Computational effort saved:  99.9861%.
MG BCs: Charge after coarse-graining:           -9.0002385.
MG DL_MG: Calling solver with defect correction order = 8
MG DL_MG: Solver finished
MG Hartree energy from (\int phi*rho dr):              1471.428682
MG Hartree energy from (\int eps (grad phi)^2 dr):     1470.827729
MG Discrepancy due to finite box and discretization:     -0.600953 (  -0.04084%)
MG Correction to account for finite box:                  0.453272
MG Remaining discrepancy, due to discretization:         -0.147681 (  -0.01004%)
Up spin density kernel initialisation ... 
======= Optimisation of K by Palser-Manolopoulos canonical purification ======== 
         Iteration  |  Band structure energy |    c_n   
               1       -2599.32612202254768    0.5262120
               2       -2775.95500823500970    0.5166581
               3       -2956.26369150846313    0.5156371
               4       -3105.74661425637032    0.5301579
               5       -3196.62925528249161    0.5670639
               6       -3234.25788445001854    0.6109971
               7       -3247.16399723744235    0.6220939
               8       -3252.83260691241503    0.6227055
               9       -3255.55818411567907    0.6407194
              10       -3256.67525049419783    0.6672288
              11       -3257.11547501171026    0.6787588
              12       -3257.31774879099248    0.6700013
              13       -3257.42561359235197    0.6417768
              14       -3257.48654961380680    0.5869658
              15       -3257.52095961837040    0.5165186
              16       -3257.53574027113336    0.4394451
              17       -3257.53772184335594    0.3919804
              18       -3257.53807626339540    0.3981523
              19       -3257.53822105060135    0.4353700
              20       -3257.53831840594603    0.4742880
              21       -3257.53836277723121    0.4959770
              22       -3257.53837058820773    0.4999031
              23       -3257.53837144536556    0.4999999
              24       -3257.53837245991872    0.5000000
              25       -3257.53837396966264    0.5000000
              26       -3257.53837619459500    0.5000000
              27       -3257.53837940212270    0.5000000
              28       -3257.53838380435445    0.5000000
              29       -3257.53838922333125    0.5000000
              30       -3257.53839449067254    0.5000000
              31       -3257.53839762002917    0.5000000
              32       -3257.53839833346501    0.5000000
              33       -3257.53839836167754    0.5000000
Termination criterion satisfied: band energy change below threshold.
Final occupancy bounds: [    0.00000000000082:    0.99999999999965]
Closest occupancy to 0.5:     0.99999999994931
================================================================================
... done

Writing density kernel to file "complex_36581.vacuum_dkn" ... done

>>> Optimising kernel for current NGWFs:
   Initial electron number for spin 1:    7234.00000000
     Final electron number for spin 1:    7234.00000000

=================== Penalty functional idempotency correction ==================
 RMS occupancy error at iteration   1:  0.000000 (step -0.5000 Ne1=   7234.0000)
            Final RMS occupancy error   :  0.000000 (Ne1=   7234.0000)
               Final occupancy bounds   : [ -0.0000,  1.0000]
================================================================================

................................................................................
<<<<<<<<<<<<<< LNV (Original version) density kernel optimisation >>>>>>>>>>>>>>
~~~~~~~~~~~~~~~~~~~~~~~~~~~~~~~~~~~~~~~~~~~~~~~~~~~~~~~~~~~~~~~~~~~~~~~~~~~~~~~~
   iter  |      energy (Eh)       | rms gradient |  commutator  |   dE (Eh)
MG BCs: +ve charge blocks (gridpoints):     31780 (   17674285).
MG BCs: -ve charge blocks (gridpoints):      8528 (    1137074).
MG BCs:     Elided blocks (gridpoints):    183440 (  191892186).
MG BCs: Computational effort saved:  99.9809%.
MG BCs: Charge after coarse-graining:           -9.0010032.
MG DL_MG: Calling solver with defect correction order = 8
MG DL_MG: Solver finished
MG Hartree energy from (\int phi*rho dr):              1425.652470
MG Hartree energy from (\int eps (grad phi)^2 dr):     1425.005933
MG Discrepancy due to finite box and discretization:     -0.646537 (  -0.04535%)
MG Correction to account for finite box:                  0.456888
MG Remaining discrepancy, due to discretization:         -0.189649 (  -0.01330%)
      ideal mu1:      -0.710544749292
             Q0:  -11578.704456844949
             G0:    -143.466757012796
   RMS gradient:       0.001830622182
MG BCs: +ve charge blocks (gridpoints):     31718 (   17761530).
MG BCs: -ve charge blocks (gridpoints):      8412 (    1116514).
MG BCs:     Elided blocks (gridpoints):    183504 (  191825501).
MG BCs: Computational effort saved:  99.9810%.
MG BCs: Charge after coarse-graining:           -9.0010219.
MG DL_MG: Calling solver with defect correction order = 8
MG DL_MG: Solver finished
MG Hartree energy from (\int phi*rho dr):              1451.162239
MG Hartree energy from (\int eps (grad phi)^2 dr):     1450.531711
MG Discrepancy due to finite box and discretization:     -0.630528 (  -0.04345%)
MG Correction to account for finite box:                  0.456452
MG Remaining discrepancy, due to discretization:         -0.174076 (  -0.01200%)
     Trial step:       0.500000000000
             Q1:  -11589.852295257733
 Quadratic coef:      60.585540093614
 Linear coef   :     -71.733378506398
           Qmin:  -11599.937566197408
Quadratic minimum step length (  0.296000408660) accepted
    Initial Ne1:    7234.00000000
      Final Ne1:    7234.00000000

=================== Penalty functional idempotency correction ==================
 RMS occupancy error at iteration   1:  0.003364 (step -0.4885 Ne1=   7234.0000)
 RMS occupancy error at iteration   2:  0.000026 (step -0.5001 Ne1=   7234.0000)
            Final RMS occupancy error   :  0.000000 (Ne1=   7234.0000)
               Final occupancy bounds   : [  0.0000,  1.0000]
================================================================================

    1        -1.157870445684E+04     1.8306E-03     1.6558E-03
MG BCs: +ve charge blocks (gridpoints):     31737 (   17728135).
MG BCs: -ve charge blocks (gridpoints):      8465 (    1124980).
MG BCs:     Elided blocks (gridpoints):    183484 (  191850430).
MG BCs: Computational effort saved:  99.9809%.
MG BCs: Charge after coarse-graining:           -9.0010139.
MG DL_MG: Calling solver with defect correction order = 8
MG DL_MG: Solver finished
MG Hartree energy from (\int phi*rho dr):              1432.821476
MG Hartree energy from (\int eps (grad phi)^2 dr):     1432.185356
MG Discrepancy due to finite box and discretization:     -0.636120 (  -0.04440%)
MG Correction to account for finite box:                  0.456512
MG Remaining discrepancy, due to discretization:         -0.179608 (  -0.01254%)
      ideal mu1:      -0.751083308372
             Q0:  -11600.335766813601
             G0:     -11.732070494191
   RMS gradient:       0.000519973798
MG BCs: +ve charge blocks (gridpoints):     31714 (   17745648).
MG BCs: -ve charge blocks (gridpoints):      8440 (    1119683).
MG BCs:     Elided blocks (gridpoints):    183507 (  191838214).
MG BCs: Computational effort saved:  99.9809%.
MG BCs: Charge after coarse-graining:           -9.0010178.
MG DL_MG: Calling solver with defect correction order = 8
MG DL_MG: Solver finished
MG Hartree energy from (\int phi*rho dr):              1438.231630
MG Hartree energy from (\int eps (grad phi)^2 dr):     1437.598935
MG Discrepancy due to finite box and discretization:     -0.632695 (  -0.04399%)
MG Correction to account for finite box:                  0.456242
MG Remaining discrepancy, due to discretization:         -0.176453 (  -0.01227%)
     Trial step:       0.384707946799
             Q1:  -11603.094628973980
 Quadratic coef:       1.754558591138
 Linear coef   :      -4.513420751517
           Qmin:  -11603.238343989296
Quadratic minimum step length (  0.494810728785) accepted
    Initial Ne1:    7233.99990116
      Final Ne1:    7234.00000000

=================== Penalty functional idempotency correction ==================
 RMS occupancy error at iteration   1:  0.001766 (step -0.4933 Ne1=   7234.0000)
 RMS occupancy error at iteration   2:  0.000010 (step -0.5001 Ne1=   7234.0000)
            Final RMS occupancy error   :  0.000000 (Ne1=   7234.0000)
               Final occupancy bounds   : [  0.0000,  1.0000]
================================================================================

    2        -1.160033576681E+04     5.1997E-04     4.7031E-04    -2.1631E+01
MG BCs: +ve charge blocks (gridpoints):     31710 (   17750799).
MG BCs: -ve charge blocks (gridpoints):      8437 (    1118203).
MG BCs:     Elided blocks (gridpoints):    183511 (  191834543).
MG BCs: Computational effort saved:  99.9809%.
MG BCs: Charge after coarse-graining:           -9.0010188.
MG DL_MG: Calling solver with defect correction order = 8
MG DL_MG: Solver finished
MG Hartree energy from (\int phi*rho dr):              1439.821860
MG Hartree energy from (\int eps (grad phi)^2 dr):     1439.190072
MG Discrepancy due to finite box and discretization:     -0.631787 (  -0.04388%)
MG Correction to account for finite box:                  0.456174
MG Remaining discrepancy, due to discretization:         -0.175613 (  -0.01220%)
      ideal mu1:      -0.773123047272
             Q0:  -11603.273280257010
             G0:      -1.815864089879
   RMS gradient:       0.000204704313
MG BCs: +ve charge blocks (gridpoints):     31710 (   17750137).
MG BCs: -ve charge blocks (gridpoints):      8439 (    1119162).
MG BCs:     Elided blocks (gridpoints):    183511 (  191834246).
MG BCs: Computational effort saved:  99.9809%.
MG BCs: Charge after coarse-graining:           -9.0010185.
MG DL_MG: Calling solver with defect correction order = 8
MG DL_MG: Solver finished
MG Hartree energy from (\int phi*rho dr):              1437.699875
MG Hartree energy from (\int eps (grad phi)^2 dr):     1437.068343
MG Discrepancy due to finite box and discretization:     -0.631533 (  -0.04393%)
MG Correction to account for finite box:                  0.456078
MG Remaining discrepancy, due to discretization:         -0.175454 (  -0.01220%)
     Trial step:       0.436299919236
             Q1:  -11603.729803238530
 Quadratic coef:       0.335738374237
 Linear coef   :      -0.792261355757
           Qmin:  -11603.740666549425
Quadratic minimum step length (  0.514781139207) accepted
    Initial Ne1:    7233.99995969
      Final Ne1:    7234.00000000

=================== Penalty functional idempotency correction ==================
 RMS occupancy error at iteration   1:  0.000574 (step -0.4977 Ne1=   7234.0000)
 RMS occupancy error at iteration   2:  0.000001 (step -0.5000 Ne1=   7234.0000)
            Final RMS occupancy error   :  0.000000 (Ne1=   7234.0000)
               Final occupancy bounds   : [  0.0000,  1.0000]
================================================================================

    3        -1.160327328026E+04     2.0470E-04     1.8515E-04    -2.9375E+00
MG BCs: +ve charge blocks (gridpoints):     31713 (   17749965).
MG BCs: -ve charge blocks (gridpoints):      8438 (    1119408).
MG BCs:     Elided blocks (gridpoints):    183508 (  191834172).
MG BCs: Computational effort saved:  99.9809%.
MG BCs: Charge after coarse-graining:           -9.0010184.
MG DL_MG: Calling solver with defect correction order = 8
MG DL_MG: Solver finished
MG Hartree energy from (\int phi*rho dr):              1437.326208
MG Hartree energy from (\int eps (grad phi)^2 dr):     1436.694713
MG Discrepancy due to finite box and discretization:     -0.631495 (  -0.04394%)
MG Correction to account for finite box:                  0.456061
MG Remaining discrepancy, due to discretization:         -0.175434 (  -0.01221%)
      ideal mu1:      -0.774141140115
             Q0:  -11603.744838079903
             G0:      -0.422967698180
   RMS gradient:       0.000098903993
MG BCs: +ve charge blocks (gridpoints):     31711 (   17750894).
MG BCs: -ve charge blocks (gridpoints):      8434 (    1119130).
MG BCs:     Elided blocks (gridpoints):    183510 (  191833521).
MG BCs: Computational effort saved:  99.9809%.
MG BCs: Charge after coarse-graining:           -9.0010186.
MG DL_MG: Calling solver with defect correction order = 8
MG DL_MG: Solver finished
MG Hartree energy from (\int phi*rho dr):              1438.488638
MG Hartree energy from (\int eps (grad phi)^2 dr):     1437.857095
MG Discrepancy due to finite box and discretization:     -0.631543 (  -0.04390%)
MG Correction to account for finite box:                  0.456008
MG Remaining discrepancy, due to discretization:         -0.175534 (  -0.01220%)
     Trial step:       0.473918737190
             Q1:  -11603.842120128800
 Quadratic coef:       0.103170268498
 Linear coef   :      -0.200452317394
           Qmin:  -11603.842204143144
Quadratic minimum step length (  0.460394794495) accepted
    Initial Ne1:    7233.99999145
      Final Ne1:    7234.00000000

=================== Penalty functional idempotency correction ==================
 RMS occupancy error at iteration   1:  0.000184 (step -0.4992 Ne1=   7234.0000)
            Final RMS occupancy error   :  0.000000 (Ne1=   7234.0000)
               Final occupancy bounds   : [ -0.0000,  1.0000]
================================================================================

    4        -1.160374483808E+04     9.8904E-05     8.9457E-05    -4.7156E-01
MG BCs: +ve charge blocks (gridpoints):     31710 (   17750882).
MG BCs: -ve charge blocks (gridpoints):      8434 (    1119135).
MG BCs:     Elided blocks (gridpoints):    183511 (  191833528).
MG BCs: Computational effort saved:  99.9809%.
MG BCs: Charge after coarse-graining:           -9.0010186.
MG DL_MG: Calling solver with defect correction order = 8
MG DL_MG: Solver finished
MG Hartree energy from (\int phi*rho dr):              1438.455499
MG Hartree energy from (\int eps (grad phi)^2 dr):     1437.823957
MG Discrepancy due to finite box and discretization:     -0.631541 (  -0.04390%)
MG Correction to account for finite box:                  0.456010
MG Remaining discrepancy, due to discretization:         -0.175531 (  -0.01220%)
      ideal mu1:      -0.774313360895
             Q0:  -11603.842616149806
             G0:      -0.099796137491
   RMS gradient:       0.000048183400
MG BCs: +ve charge blocks (gridpoints):     31712 (   17751044).
MG BCs: -ve charge blocks (gridpoints):      8432 (    1118937).
MG BCs:     Elided blocks (gridpoints):    183509 (  191833564).
MG BCs: Computational effort saved:  99.9809%.
MG BCs: Charge after coarse-graining:           -9.0010187.
MG DL_MG: Calling solver with defect correction order = 8
MG DL_MG: Solver finished
MG Hartree energy from (\int phi*rho dr):              1438.842356
MG Hartree energy from (\int eps (grad phi)^2 dr):     1438.210678
MG Discrepancy due to finite box and discretization:     -0.631678 (  -0.04390%)
MG Correction to account for finite box:                  0.456004
MG Remaining discrepancy, due to discretization:         -0.175674 (  -0.01221%)
     Trial step:       0.467107824400
             Q1:  -11603.866853961954
 Quadratic coef:       0.022377744519
 Linear coef   :      -0.046615556667
           Qmin:  -11603.866892614773
Quadratic minimum step length (  0.486521133517) accepted
    Initial Ne1:    7234.00165505
      Final Ne1:    7234.00000000

=================== Penalty functional idempotency correction ==================
 RMS occupancy error at iteration   1:  0.000062 (step -0.4997 Ne1=   7234.0000)
            Final RMS occupancy error   :  0.000000 (Ne1=   7234.0000)
               Final occupancy bounds   : [ -0.0000,  1.0000]
================================================================================

    5        -1.160384261615E+04     4.8183E-05     4.3581E-05    -9.7778E-02
MG BCs: +ve charge blocks (gridpoints):     31712 (   17751058).
MG BCs: -ve charge blocks (gridpoints):      8432 (    1118932).
MG BCs:     Elided blocks (gridpoints):    183509 (  191833555).
MG BCs: Computational effort saved:  99.9809%.
MG BCs: Charge after coarse-graining:           -9.0010186.
MG DL_MG: Calling solver with defect correction order = 8
MG DL_MG: Solver finished
MG Hartree energy from (\int phi*rho dr):              1438.858463
MG Hartree energy from (\int eps (grad phi)^2 dr):     1438.226780
MG Discrepancy due to finite box and discretization:     -0.631683 (  -0.04390%)
MG Correction to account for finite box:                  0.456004
MG Remaining discrepancy, due to discretization:         -0.175680 (  -0.01221%)
      ideal mu1:      -0.774274414465
             Q0:  -11603.866936538485
             G0:      -0.028817066025
   RMS gradient:       0.000025913416
MG BCs: +ve charge blocks (gridpoints):     31713 (   17750745).
MG BCs: -ve charge blocks (gridpoints):      8432 (    1119130).
MG BCs:     Elided blocks (gridpoints):    183508 (  191833670).
MG BCs: Computational effort saved:  99.9809%.
MG BCs: Charge after coarse-graining:           -9.0010185.
MG DL_MG: Calling solver with defect correction order = 8
MG DL_MG: Solver finished
MG Hartree energy from (\int phi*rho dr):              1438.247762
MG Hartree energy from (\int eps (grad phi)^2 dr):     1437.616094
MG Discrepancy due to finite box and discretization:     -0.631668 (  -0.04392%)
MG Correction to account for finite box:                  0.455999
MG Remaining discrepancy, due to discretization:         -0.175669 (  -0.01221%)
     Trial step:       0.476715668089
             Q1:  -11603.875876042293
 Quadratic coef:       0.004798043074
 Linear coef   :      -0.013737546882
           Qmin:  -11603.876769724195
Quadratic minimum step length (  0.682455715746) accepted
    Initial Ne1:    7234.00096059
      Final Ne1:    7234.00000000

=================== Penalty functional idempotency correction ==================
 RMS occupancy error at iteration   1:  0.000035 (step -0.4998 Ne1=   7234.0000)
            Final RMS occupancy error   :  0.000000 (Ne1=   7234.0000)
               Final occupancy bounds   : [ -0.0000,  1.0000]
================================================================================

    6        -1.160386693654E+04     2.5913E-05     2.3438E-05    -2.4320E-02
MG BCs: +ve charge blocks (gridpoints):     31713 (   17750587).
MG BCs: -ve charge blocks (gridpoints):      8433 (    1119258).
MG BCs:     Elided blocks (gridpoints):    183508 (  191833700).
MG BCs: Computational effort saved:  99.9809%.
MG BCs: Charge after coarse-graining:           -9.0010184.
MG DL_MG: Calling solver with defect correction order = 8
MG DL_MG: Solver finished
MG Hartree energy from (\int phi*rho dr):              1437.983632
MG Hartree energy from (\int eps (grad phi)^2 dr):     1437.351971
MG Discrepancy due to finite box and discretization:     -0.631662 (  -0.04393%)
MG Correction to account for finite box:                  0.455997
MG Remaining discrepancy, due to discretization:         -0.175664 (  -0.01222%)
      ideal mu1:      -0.774059592099
             Q0:  -11603.876777424593
             G0:      -0.014215368587
   RMS gradient:       0.000018222256
MG BCs: +ve charge blocks (gridpoints):     31715 (   17751060).
MG BCs: -ve charge blocks (gridpoints):      8433 (    1118984).
MG BCs:     Elided blocks (gridpoints):    183506 (  191833501).
MG BCs: Computational effort saved:  99.9809%.
MG BCs: Charge after coarse-graining:           -9.0010185.
MG DL_MG: Calling solver with defect correction order = 8
MG DL_MG: Solver finished
MG Hartree energy from (\int phi*rho dr):              1438.560749
MG Hartree energy from (\int eps (grad phi)^2 dr):     1437.929109
MG Discrepancy due to finite box and discretization:     -0.631640 (  -0.04391%)
MG Correction to account for finite box:                  0.455988
MG Remaining discrepancy, due to discretization:         -0.175652 (  -0.01221%)
     Trial step:       0.570383495969
             Q1:  -11603.880453967256
 Quadratic coef:       0.004431668967
 Linear coef   :      -0.008108211631
           Qmin:  -11603.880486134356
Quadratic minimum step length (  0.521788758399) accepted
    Initial Ne1:    7234.00013640
      Final Ne1:    7234.00000000

=================== Penalty functional idempotency correction ==================
 RMS occupancy error at iteration   1:  0.000002 (step -0.5000 Ne1=   7234.0000)
            Final RMS occupancy error   :  0.000000 (Ne1=   7234.0000)
               Final occupancy bounds   : [  0.0000,  1.0000]
================================================================================

    7        -1.160387677742E+04     1.8222E-05     1.6482E-05    -9.8409E-03
MG BCs: +ve charge blocks (gridpoints):     31715 (   17751022).
MG BCs: -ve charge blocks (gridpoints):      8433 (    1119000).
MG BCs:     Elided blocks (gridpoints):    183506 (  191833523).
MG BCs: Computational effort saved:  99.9809%.
MG BCs: Charge after coarse-graining:           -9.0010185.
MG DL_MG: Calling solver with defect correction order = 8
MG DL_MG: Solver finished
MG Hartree energy from (\int phi*rho dr):              1438.511511
MG Hartree energy from (\int eps (grad phi)^2 dr):     1437.879869
MG Discrepancy due to finite box and discretization:     -0.631642 (  -0.04391%)
MG Correction to account for finite box:                  0.455989
MG Remaining discrepancy, due to discretization:         -0.175653 (  -0.01221%)
      ideal mu1:      -0.774353385576
             Q0:  -11603.880486221635
             G0:      -0.008254312445
   RMS gradient:       0.000013886017
MG BCs: +ve charge blocks (gridpoints):     31715 (   17751122).
MG BCs: -ve charge blocks (gridpoints):      8433 (    1118975).
MG BCs:     Elided blocks (gridpoints):    183506 (  191833448).
MG BCs: Computational effort saved:  99.9809%.
MG BCs: Charge after coarse-graining:           -9.0010185.
MG DL_MG: Calling solver with defect correction order = 8
MG DL_MG: Solver finished
MG Hartree energy from (\int phi*rho dr):              1438.550142
MG Hartree energy from (\int eps (grad phi)^2 dr):     1437.918532
MG Discrepancy due to finite box and discretization:     -0.631609 (  -0.04391%)
MG Correction to account for finite box:                  0.455986
MG Remaining discrepancy, due to discretization:         -0.175623 (  -0.01221%)
     Trial step:       0.545545319999
             Q1:  -11603.883816910442
 Quadratic coef:       0.001172412716
 Linear coef   :      -0.004503101524
           Qmin:  -11603.884810194553
Quadratic minimum step length (  1.047688210842) accepted
    Initial Ne1:    7234.00015814
      Final Ne1:    7234.00000000

=================== Penalty functional idempotency correction ==================
 RMS occupancy error at iteration   1:  0.000022 (step -0.4994 Ne1=   7234.0000)
            Final RMS occupancy error   :  0.000000 (Ne1=   7234.0000)
               Final occupancy bounds   : [ -0.0000,  1.0000]
================================================================================

    8        -1.160388048622E+04     1.3886E-05     1.2560E-05    -3.7088E-03
MG BCs: +ve charge blocks (gridpoints):     31715 (   17751175).
MG BCs: -ve charge blocks (gridpoints):      8433 (    1118940).
MG BCs:     Elided blocks (gridpoints):    183506 (  191833430).
MG BCs: Computational effort saved:  99.9809%.
MG BCs: Charge after coarse-graining:           -9.0010186.
MG DL_MG: Calling solver with defect correction order = 8
MG DL_MG: Solver finished
MG Hartree energy from (\int phi*rho dr):              1438.584191
MG Hartree energy from (\int eps (grad phi)^2 dr):     1437.952612
MG Discrepancy due to finite box and discretization:     -0.631579 (  -0.04390%)
MG Correction to account for finite box:                  0.455983
MG Remaining discrepancy, due to discretization:         -0.175596 (  -0.01221%)
      ideal mu1:      -0.774438922739
             Q0:  -11603.884801569511
             G0:      -0.011829920566
   RMS gradient:       0.000016655516
MG BCs: +ve charge blocks (gridpoints):     31714 (   17751052).
MG BCs: -ve charge blocks (gridpoints):      8434 (    1119103).
MG BCs:     Elided blocks (gridpoints):    183507 (  191833390).
MG BCs: Computational effort saved:  99.9809%.
MG BCs: Charge after coarse-graining:           -9.0010185.
MG DL_MG: Calling solver with defect correction order = 8
MG DL_MG: Solver finished
MG Hartree energy from (\int phi*rho dr):              1438.293956
MG Hartree energy from (\int eps (grad phi)^2 dr):     1437.662418
MG Discrepancy due to finite box and discretization:     -0.631538 (  -0.04391%)
MG Correction to account for finite box:                  0.455977
MG Remaining discrepancy, due to discretization:         -0.175561 (  -0.01221%)
     Trial step:       0.756016798916
             Q1:  -11603.890388950589
 Quadratic coef:       0.003356237599
 Linear coef   :      -0.008943618677
           Qmin:  -11603.890759752796
Quadratic minimum step length (  1.007307403486) accepted
    Initial Ne1:    7234.00041580
      Final Ne1:    7234.00000000

=================== Penalty functional idempotency correction ==================
 RMS occupancy error at iteration   1:  0.000119 (step -0.4963 Ne1=   7234.0000)
 RMS occupancy error at iteration   2:  0.000000 (step -0.5000 Ne1=   7234.0000)
            Final RMS occupancy error   :  0.000000 (Ne1=   7234.0000)
               Final occupancy bounds   : [  0.0000,  1.0000]
================================================================================

    9        -1.160388480157E+04     1.6656E-05     1.5065E-05    -4.3153E-03
MG BCs: +ve charge blocks (gridpoints):     31714 (   17750960).
MG BCs: -ve charge blocks (gridpoints):      8434 (    1119161).
MG BCs:     Elided blocks (gridpoints):    183507 (  191833424).
MG BCs: Computational effort saved:  99.9809%.
MG BCs: Charge after coarse-graining:           -9.0010185.
MG DL_MG: Calling solver with defect correction order = 8
MG DL_MG: Solver finished
MG Hartree energy from (\int phi*rho dr):              1438.194814
MG Hartree energy from (\int eps (grad phi)^2 dr):     1437.563290
MG Discrepancy due to finite box and discretization:     -0.631524 (  -0.04391%)
MG Correction to account for finite box:                  0.455975
MG Remaining discrepancy, due to discretization:         -0.175548 (  -0.01221%)
      ideal mu1:      -0.774130477324
   10        -1.160389072275E+04     1.8426E-05     1.6666E-05    -5.9212E-03
Finished density kernel iterations (  10)

Writing density kernel to file "complex_36581.vacuum_dkn" ... done


>>> Density kernel optimised for the current NGWF basis:
     ~~~~~~~~~~~~~~~~~~~~~~~~~~~~~~~~~~~~~~~~~~~~~~~~~~~~~~~~~~~
     Total energy                =  -1.16038907227519E+04  Eh
     Estimated bandgap           =  -2.5464E-01  Eh
     RMS occupancy error         =   7.6788E-12
     [H,K] commutator            =   1.6666E-05
     Occupancy bounds            = [  0.000:  1.000]
     ~~~~~~~~~~~~~~~~~~~~~~~~~~~~~~~~~~~~~~~~~~~~~~~~~~~~~~~~~~~




################################################################################
########################### NGWF CG iteration  001 #############################
################################################################################
****** Reciprocal space K.E. preconditioning with k_zero =  3.5000 a0^-1 *******

>>> Checking for convergence of NGWFs:   NOT CONVERGED
  ========================================================================
         NGWF RMS gradient =  1.5603E-03 >  2.0000E-06  | above tolerance
  ========================================================================

>>> Improving NGWFs using line search:
============ Calculation of NGWF S^-1 using Hotelling algorithm ================ 
         Iteration  |  Frobenius norm and Maximum abs value    (of I-S*S_n^-1)   
               1       0.19224929E+00     0.48206988E-02
               2       0.85328535E-03     0.35231104E-04
               3       0.28360519E-07     0.19629467E-08
               4       0.12850204E-12     0.62172489E-14
================================================================================
MG BCs: +ve charge blocks (gridpoints):     31236 (   17696754).
MG BCs: -ve charge blocks (gridpoints):      8435 (    1119120).
MG BCs:     Elided blocks (gridpoints):    183987 (  191887671).
MG BCs: Computational effort saved:  99.9812%.
MG BCs: Charge after coarse-graining:           -9.0010205.
MG DL_MG: Calling solver with defect correction order = 8
MG DL_MG: Solver finished
MG Hartree energy from (\int phi*rho dr):              1406.817969
MG Hartree energy from (\int eps (grad phi)^2 dr):     1406.187151
MG Discrepancy due to finite box and discretization:     -0.630818 (  -0.04484%)
MG Correction to account for finite box:                  0.455970
MG Remaining discrepancy, due to discretization:         -0.174848 (  -0.01243%)
============ Calculation of NGWF S^-1 using Hotelling algorithm ================ 
         Iteration  |  Frobenius norm and Maximum abs value    (of I-S*S_n^-1)   
               1       0.18539376E+01     0.39539715E-01
               2       0.71139881E-01     0.21152395E-02
               3       0.13998462E-03     0.73888348E-05
               4       0.93188708E-09     0.95459196E-10
               5       0.11110176E-12     0.48849813E-14
================================================================================
------------------------------- NGWF line search -------------------------------
RMS gradient                =       0.00156027041168
Trial step length           =               0.122474
Gradient along search dir.  =       -270.52759177264
Functional at step 0        =  -11603.89072275185026
Functional at step 1        =  -11634.54339728842024
Functional predicted        =  -11714.55140593601391
Selected quadratic step     =               0.818110
--------------------------- NGWF line search finished --------------------------
                                               
Writing NGWFs to file "complex_36581.vacuum_tightbox_ngwfs"....  done

>>> Optimising kernel for current NGWFs:
   Initial electron number for spin 1:    7268.46822646
     Final electron number for spin 1:    7234.00000000

=================== Penalty functional idempotency correction ==================
 RMS occupancy error at iteration   1:  0.004229 (step -0.4864 Ne1=   7234.0000)
 RMS occupancy error at iteration   2:  0.000068 (step -0.5003 Ne1=   7234.0000)
            Final RMS occupancy error   :  0.000000 (Ne1=   7234.0000)
               Final occupancy bounds   : [  0.0000,  1.0000]
================================================================================

................................................................................
<<<<<<<<<<<<<< LNV (Original version) density kernel optimisation >>>>>>>>>>>>>>
~~~~~~~~~~~~~~~~~~~~~~~~~~~~~~~~~~~~~~~~~~~~~~~~~~~~~~~~~~~~~~~~~~~~~~~~~~~~~~~~
   iter  |      energy (Eh)       | rms gradient |  commutator  |   dE (Eh)
MG BCs: +ve charge blocks (gridpoints):     25276 (   17455075).
MG BCs: -ve charge blocks (gridpoints):      8592 (    1103086).
MG BCs:     Elided blocks (gridpoints):    189956 (  192145384).
MG BCs: Computational effort saved:  99.9839%.
MG BCs: Charge after coarse-graining:           -9.0006754.
MG DL_MG: Calling solver with defect correction order = 8
MG DL_MG: Solver finished
MG Hartree energy from (\int phi*rho dr):              1251.053320
MG Hartree energy from (\int eps (grad phi)^2 dr):     1250.422171
MG Discrepancy due to finite box and discretization:     -0.631149 (  -0.05045%)
MG Correction to account for finite box:                  0.455968
MG Remaining discrepancy, due to discretization:         -0.175181 (  -0.01400%)
      ideal mu1:      -0.713175668507
             Q0:  -11713.736063859309
             G0:      -9.805324741229
   RMS gradient:       0.000478579477
MG BCs: +ve charge blocks (gridpoints):     25353 (   17472967).
MG BCs: -ve charge blocks (gridpoints):      8595 (    1099022).
MG BCs:     Elided blocks (gridpoints):    189879 (  192131556).
MG BCs: Computational effort saved:  99.9839%.
MG BCs: Charge after coarse-graining:           -9.0006708.
MG DL_MG: Calling solver with defect correction order = 8
MG DL_MG: Solver finished
MG Hartree energy from (\int phi*rho dr):              1270.881691
MG Hartree energy from (\int eps (grad phi)^2 dr):     1270.243860
MG Discrepancy due to finite box and discretization:     -0.637830 (  -0.05019%)
MG Correction to account for finite box:                  0.455718
MG Remaining discrepancy, due to discretization:         -0.182112 (  -0.01433%)
     Trial step:       0.872663347866
             Q1:  -11711.011356111383
 Quadratic coef:      11.281455263515
 Linear coef   :      -8.556747515590
           Qmin:  -11715.358592299464
Quadratic minimum step length (  0.330948435258) accepted
    Initial Ne1:    7233.99962317
      Final Ne1:    7234.00000000

=================== Penalty functional idempotency correction ==================
 RMS occupancy error at iteration   1:  0.000355 (step -0.4986 Ne1=   7234.0000)
 RMS occupancy error at iteration   2:  0.000000 (step -0.5000 Ne1=   7234.0000)
            Final RMS occupancy error   :  0.000000 (Ne1=   7234.0000)
               Final occupancy bounds   : [  0.0000,  1.0000]
================================================================================

    1        -1.171373606386E+04     4.7858E-04     4.3286E-04
MG BCs: +ve charge blocks (gridpoints):     25302 (   17462037).
MG BCs: -ve charge blocks (gridpoints):      8595 (    1101558).
MG BCs:     Elided blocks (gridpoints):    189930 (  192139950).
MG BCs: Computational effort saved:  99.9839%.
MG BCs: Charge after coarse-graining:           -9.0006736.
MG DL_MG: Calling solver with defect correction order = 8
MG DL_MG: Solver finished
MG Hartree energy from (\int phi*rho dr):              1257.258371
MG Hartree energy from (\int eps (grad phi)^2 dr):     1256.624821
MG Discrepancy due to finite box and discretization:     -0.633551 (  -0.05039%)
MG Correction to account for finite box:                  0.455844
MG Remaining discrepancy, due to discretization:         -0.177706 (  -0.01413%)
      ideal mu1:      -0.719801317097
             Q0:  -11715.323068523430
             G0:      -0.984574637378
   RMS gradient:       0.000152820328
MG BCs: +ve charge blocks (gridpoints):     25305 (   17461884).
MG BCs: -ve charge blocks (gridpoints):      8596 (    1102383).
MG BCs:     Elided blocks (gridpoints):    189927 (  192139278).
MG BCs: Computational effort saved:  99.9839%.
MG BCs: Charge after coarse-graining:           -9.0006736.
MG DL_MG: Calling solver with defect correction order = 8
MG DL_MG: Solver finished
MG Hartree energy from (\int phi*rho dr):              1258.504649
MG Hartree energy from (\int eps (grad phi)^2 dr):     1257.870727
MG Discrepancy due to finite box and discretization:     -0.633922 (  -0.05037%)
MG Correction to account for finite box:                  0.455834
MG Remaining discrepancy, due to discretization:         -0.178088 (  -0.01415%)
     Trial step:       0.537407265938
             Q1:  -11715.517479232862
 Quadratic coef:       0.334706854554
 Linear coef   :      -0.529117563986
           Qmin:  -11715.532180909919
Quadratic minimum step length (  0.424777113993) accepted
    Initial Ne1:    7233.99995067
      Final Ne1:    7234.00000000

=================== Penalty functional idempotency correction ==================
 RMS occupancy error at iteration   1:  0.000142 (step -0.4994 Ne1=   7234.0000)
            Final RMS occupancy error   :  0.000000 (Ne1=   7234.0000)
               Final occupancy bounds   : [ -0.0000,  1.0000]
================================================================================

    2        -1.171532306852E+04     1.5282E-04     1.3822E-04    -1.5870E+00
MG BCs: +ve charge blocks (gridpoints):     25302 (   17461893).
MG BCs: -ve charge blocks (gridpoints):      8594 (    1102216).
MG BCs:     Elided blocks (gridpoints):    189930 (  192139436).
MG BCs: Computational effort saved:  99.9839%.
MG BCs: Charge after coarse-graining:           -9.0006736.
MG DL_MG: Calling solver with defect correction order = 8
MG DL_MG: Solver finished
MG Hartree energy from (\int phi*rho dr):              1258.242893
MG Hartree energy from (\int eps (grad phi)^2 dr):     1257.609051
MG Discrepancy due to finite box and discretization:     -0.633841 (  -0.05038%)
MG Correction to account for finite box:                  0.455836
MG Remaining discrepancy, due to discretization:         -0.178005 (  -0.01415%)
      ideal mu1:      -0.720787250219
             Q0:  -11715.532655371004
             G0:      -0.145670636621
   RMS gradient:       0.000058266557
MG BCs: +ve charge blocks (gridpoints):     25303 (   17461251).
MG BCs: -ve charge blocks (gridpoints):      8597 (    1102618).
MG BCs:     Elided blocks (gridpoints):    189929 (  192139676).
MG BCs: Computational effort saved:  99.9839%.
MG BCs: Charge after coarse-graining:           -9.0006736.
MG DL_MG: Calling solver with defect correction order = 8
MG DL_MG: Solver finished
MG Hartree energy from (\int phi*rho dr):              1257.749408
MG Hartree energy from (\int eps (grad phi)^2 dr):     1257.115608
MG Discrepancy due to finite box and discretization:     -0.633800 (  -0.05039%)
MG Correction to account for finite box:                  0.455819
MG Remaining discrepancy, due to discretization:         -0.177981 (  -0.01415%)
     Trial step:       0.477784791997
             Q1:  -11715.577075267443
 Quadratic coef:       0.025179318378
 Linear coef   :      -0.069599214818
           Qmin:  -11715.580750901536
Quadratic minimum step length (  0.660332537124) accepted
    Initial Ne1:    7234.00059838
      Final Ne1:    7234.00000000

=================== Penalty functional idempotency correction ==================
 RMS occupancy error at iteration   1:  0.000061 (step -0.4998 Ne1=   7234.0000)
            Final RMS occupancy error   :  0.000000 (Ne1=   7234.0000)
               Final occupancy bounds   : [ -0.0000,  1.0000]
================================================================================

    3        -1.171553265537E+04     5.8267E-05     5.2701E-05    -2.0959E-01
MG BCs: +ve charge blocks (gridpoints):     25301 (   17461010).
MG BCs: -ve charge blocks (gridpoints):      8597 (    1102772).
MG BCs:     Elided blocks (gridpoints):    189931 (  192139763).
MG BCs: Computational effort saved:  99.9839%.
MG BCs: Charge after coarse-graining:           -9.0006736.
MG DL_MG: Calling solver with defect correction order = 8
MG DL_MG: Solver finished
MG Hartree energy from (\int phi*rho dr):              1257.560957
MG Hartree energy from (\int eps (grad phi)^2 dr):     1256.927172
MG Discrepancy due to finite box and discretization:     -0.633785 (  -0.05040%)
MG Correction to account for finite box:                  0.455812
MG Remaining discrepancy, due to discretization:         -0.177973 (  -0.01415%)
      ideal mu1:      -0.719757645665
             Q0:  -11715.580836825538
             G0:      -0.034698020604
   RMS gradient:       0.000028428553
MG BCs: +ve charge blocks (gridpoints):     25301 (   17460796).
MG BCs: -ve charge blocks (gridpoints):      8598 (    1102831).
MG BCs:     Elided blocks (gridpoints):    189931 (  192139918).
MG BCs: Computational effort saved:  99.9839%.
MG BCs: Charge after coarse-graining:           -9.0006736.
MG DL_MG: Calling solver with defect correction order = 8
MG DL_MG: Solver finished
MG Hartree energy from (\int phi*rho dr):              1257.575614
MG Hartree energy from (\int eps (grad phi)^2 dr):     1256.941935
MG Discrepancy due to finite box and discretization:     -0.633680 (  -0.05039%)
MG Correction to account for finite box:                  0.455809
MG Remaining discrepancy, due to discretization:         -0.177871 (  -0.01414%)
     Trial step:       0.561691057343
             Q1:  -11715.589546723641
 Quadratic coef:       0.010779669779
 Linear coef   :      -0.019489567881
           Qmin:  -11715.589646076285
Quadratic minimum step length (  0.507766759757) accepted
    Initial Ne1:    7234.00021773
      Final Ne1:    7234.00000000

=================== Penalty functional idempotency correction ==================
 RMS occupancy error at iteration   1:  0.000018 (step -0.4999 Ne1=   7234.0000)
            Final RMS occupancy error   :  0.000000 (Ne1=   7234.0000)
               Final occupancy bounds   : [ -0.0000,  1.0000]
================================================================================

    4        -1.171558083683E+04     2.8429E-05     2.5713E-05    -4.8181E-02
MG BCs: +ve charge blocks (gridpoints):     25301 (   17460807).
MG BCs: -ve charge blocks (gridpoints):      8598 (    1102829).
MG BCs:     Elided blocks (gridpoints):    189931 (  192139909).
MG BCs: Computational effort saved:  99.9839%.
MG BCs: Charge after coarse-graining:           -9.0006736.
MG DL_MG: Calling solver with defect correction order = 8
MG DL_MG: Solver finished
MG Hartree energy from (\int phi*rho dr):              1257.574050
MG Hartree energy from (\int eps (grad phi)^2 dr):     1256.940361
MG Discrepancy due to finite box and discretization:     -0.633690 (  -0.05039%)
MG Correction to account for finite box:                  0.455809
MG Remaining discrepancy, due to discretization:         -0.177880 (  -0.01414%)
      ideal mu1:      -0.719810209820
             Q0:  -11715.589650721406
             G0:      -0.011130664050
   RMS gradient:       0.000016121329
MG BCs: +ve charge blocks (gridpoints):     25302 (   17461392).
MG BCs: -ve charge blocks (gridpoints):      8596 (    1102614).
MG BCs:     Elided blocks (gridpoints):    189930 (  192139539).
MG BCs: Computational effort saved:  99.9839%.
MG BCs: Charge after coarse-graining:           -9.0006735.
MG DL_MG: Calling solver with defect correction order = 8
MG DL_MG: Solver finished
MG Hartree energy from (\int phi*rho dr):              1257.975404
MG Hartree energy from (\int eps (grad phi)^2 dr):     1257.341750
MG Discrepancy due to finite box and discretization:     -0.633654 (  -0.05037%)
MG Correction to account for finite box:                  0.455804
MG Remaining discrepancy, due to discretization:         -0.177850 (  -0.01414%)
     Trial step:       0.534048732020
             Q1:  -11715.592760340427
 Quadratic coef:       0.002834698002
 Linear coef   :      -0.005944317022
           Qmin:  -11715.592767006177
Quadratic minimum step length (  0.559945886064) accepted
    Initial Ne1:    7234.00008891
      Final Ne1:    7234.00000000

=================== Penalty functional idempotency correction ==================
 RMS occupancy error at iteration   1:  0.000009 (step -0.5000 Ne1=   7234.0000)
            Final RMS occupancy error   :  0.000000 (Ne1=   7234.0000)
               Final occupancy bounds   : [ -0.0000,  1.0000]
================================================================================

    5        -1.171558965072E+04     1.6121E-05     1.4581E-05    -8.8139E-03
MG BCs: +ve charge blocks (gridpoints):     25303 (   17461410).
MG BCs: -ve charge blocks (gridpoints):      8596 (    1102605).
MG BCs:     Elided blocks (gridpoints):    189929 (  192139530).
MG BCs: Computational effort saved:  99.9839%.
MG BCs: Charge after coarse-graining:           -9.0006735.
MG DL_MG: Calling solver with defect correction order = 8
MG DL_MG: Solver finished
MG Hartree energy from (\int phi*rho dr):              1257.994889
MG Hartree energy from (\int eps (grad phi)^2 dr):     1257.361237
MG Discrepancy due to finite box and discretization:     -0.633652 (  -0.05037%)
MG Correction to account for finite box:                  0.455804
MG Remaining discrepancy, due to discretization:         -0.177849 (  -0.01414%)
      ideal mu1:      -0.720152548791
             Q0:  -11715.592767895781
             G0:      -0.003448289182
   RMS gradient:       0.000008973213
MG BCs: +ve charge blocks (gridpoints):     25302 (   17461365).
MG BCs: -ve charge blocks (gridpoints):      8596 (    1102650).
MG BCs:     Elided blocks (gridpoints):    189930 (  192139530).
MG BCs: Computational effort saved:  99.9839%.
MG BCs: Charge after coarse-graining:           -9.0006735.
MG DL_MG: Calling solver with defect correction order = 8
MG DL_MG: Solver finished
MG Hartree energy from (\int phi*rho dr):              1257.952414
MG Hartree energy from (\int eps (grad phi)^2 dr):     1257.318766
MG Discrepancy due to finite box and discretization:     -0.633648 (  -0.05037%)
MG Correction to account for finite box:                  0.455804
MG Remaining discrepancy, due to discretization:         -0.177844 (  -0.01414%)
     Trial step:       0.546844027536
             Q1:  -11715.593953897362
 Quadratic coef:       0.000699674763
 Linear coef   :      -0.001885676344
           Qmin:  -11715.594038405832
Quadratic minimum step length (  0.736892982725) accepted
    Initial Ne1:    7234.00004317
      Final Ne1:    7234.00000000

=================== Penalty functional idempotency correction ==================
 RMS occupancy error at iteration   1:  0.000006 (step -0.4999 Ne1=   7234.0000)
            Final RMS occupancy error   :  0.000000 (Ne1=   7234.0000)
               Final occupancy bounds   : [ -0.0000,  1.0000]
================================================================================

    6        -1.171559276790E+04     8.9732E-06     8.1161E-06    -3.1172E-03
MG BCs: +ve charge blocks (gridpoints):     25300 (   17461355).
MG BCs: -ve charge blocks (gridpoints):      8596 (    1102660).
MG BCs:     Elided blocks (gridpoints):    189932 (  192139530).
MG BCs: Computational effort saved:  99.9839%.
MG BCs: Charge after coarse-graining:           -9.0006735.
MG DL_MG: Calling solver with defect correction order = 8
MG DL_MG: Solver finished
MG Hartree energy from (\int phi*rho dr):              1257.937621
MG Hartree energy from (\int eps (grad phi)^2 dr):     1257.303975
MG Discrepancy due to finite box and discretization:     -0.633647 (  -0.05037%)
MG Correction to account for finite box:                  0.455804
MG Remaining discrepancy, due to discretization:         -0.177843 (  -0.01414%)
      ideal mu1:      -0.720092387483
             Q0:  -11715.594038441544
             G0:      -0.001972179709
   RMS gradient:       0.000006787289
MG BCs: +ve charge blocks (gridpoints):     25300 (   17461134).
MG BCs: -ve charge blocks (gridpoints):      8596 (    1102720).
MG BCs:     Elided blocks (gridpoints):    189932 (  192139691).
MG BCs: Computational effort saved:  99.9839%.
MG BCs: Charge after coarse-graining:           -9.0006735.
MG DL_MG: Calling solver with defect correction order = 8
MG DL_MG: Solver finished
MG Hartree energy from (\int phi*rho dr):              1257.847881
MG Hartree energy from (\int eps (grad phi)^2 dr):     1257.214223
MG Discrepancy due to finite box and discretization:     -0.633659 (  -0.05038%)
MG Correction to account for finite box:                  0.455806
MG Remaining discrepancy, due to discretization:         -0.177852 (  -0.01414%)
     Trial step:       0.634795657308
             Q1:  -11715.594487147871
 Quadratic coef:       0.000803224788
 Linear coef   :      -0.001251931115
           Qmin:  -11715.594526266230
Quadratic minimum step length (  0.494706118992) accepted
    Initial Ne1:    7234.00000858
      Final Ne1:    7234.00000000

=================== Penalty functional idempotency correction ==================
 RMS occupancy error at iteration   1:  0.000000 (step -0.5000 Ne1=   7234.0000)
            Final RMS occupancy error   :  0.000000 (Ne1=   7234.0000)
               Final occupancy bounds   : [  0.0000,  1.0000]
================================================================================

    7        -1.171559403844E+04     6.7873E-06     6.1390E-06    -1.2705E-03
MG BCs: +ve charge blocks (gridpoints):     25300 (   17461174).
MG BCs: -ve charge blocks (gridpoints):      8596 (    1102720).
MG BCs:     Elided blocks (gridpoints):    189932 (  192139651).
MG BCs: Computational effort saved:  99.9839%.
MG BCs: Charge after coarse-graining:           -9.0006735.
MG DL_MG: Calling solver with defect correction order = 8
MG DL_MG: Solver finished
MG Hartree energy from (\int phi*rho dr):              1257.867645
MG Hartree energy from (\int eps (grad phi)^2 dr):     1257.233989
MG Discrepancy due to finite box and discretization:     -0.633656 (  -0.05038%)
MG Correction to account for finite box:                  0.455806
MG Remaining discrepancy, due to discretization:         -0.177850 (  -0.01414%)
      ideal mu1:      -0.719999610068
             Q0:  -11715.594526261208
             G0:      -0.001262741660
   RMS gradient:       0.000005430928
MG BCs: +ve charge blocks (gridpoints):     25301 (   17461124).
MG BCs: -ve charge blocks (gridpoints):      8596 (    1102734).
MG BCs:     Elided blocks (gridpoints):    189931 (  192139687).
MG BCs: Computational effort saved:  99.9839%.
MG BCs: Charge after coarse-graining:           -9.0006735.
MG DL_MG: Calling solver with defect correction order = 8
MG DL_MG: Solver finished
MG Hartree energy from (\int phi*rho dr):              1257.822559
MG Hartree energy from (\int eps (grad phi)^2 dr):     1257.188895
MG Discrepancy due to finite box and discretization:     -0.633664 (  -0.05038%)
MG Correction to account for finite box:                  0.455808
MG Remaining discrepancy, due to discretization:         -0.177856 (  -0.01414%)
     Trial step:       0.560390306822
             Q1:  -11715.595087876194
 Quadratic coef:       0.000146013199
 Linear coef   :      -0.000707628186
           Qmin:  -11715.595383611182
Quadratic minimum step length (  1.357918254325) accepted
    Initial Ne1:    7234.00001502
      Final Ne1:    7234.00000000

=================== Penalty functional idempotency correction ==================
 RMS occupancy error at iteration   1:  0.000011 (step -0.4994 Ne1=   7234.0000)
            Final RMS occupancy error   :  0.000000 (Ne1=   7234.0000)
               Final occupancy bounds   : [ -0.0000,  1.0000]
[...]
MG DL_MG: Calling solver with defect correction order = 8
MG DL_MG: Solver finished
MG Hartree energy from (\int phi*rho dr):              1216.085853
MG Hartree energy from (\int eps (grad phi)^2 dr):     1215.902650
MG Discrepancy due to finite box and discretization:     -0.183203 (  -0.01506%)
MG Correction to account for finite box:                  0.006236
MG Remaining discrepancy, due to discretization:         -0.176967 (  -0.01455%)
             Q2:  -11749.641704232898
  Cubic LS coeff:       0.986932576220
Predicted energy:  -11749.641704232958
Cubic minimum step length accepted
    Initial Ne1:    7234.00000000
      Final Ne1:    7234.00000000

=================== Penalty functional idempotency correction ==================
 RMS occupancy error at iteration   1:  0.000000 (step -0.5000 Ne1=   7234.0000)
            Final RMS occupancy error   :  0.000000 (Ne1=   7234.0000)
               Final occupancy bounds   : [  0.0000,  1.0000]
================================================================================

    7        -1.174964170423E+04     9.7053E-09     8.7782E-09    -2.9104E-09

Reusing previously generated solute cavity.
MG BCs: +ve charge blocks (gridpoints):     29375 (   19719235).
MG BCs: -ve charge blocks (gridpoints):      8589 (    1070846).
MG BCs:     Elided blocks (gridpoints):    185857 (  189913464).
MG BCs: Computational effort saved:  99.9820%.
MG BCs: Charge after coarse-graining:           -9.0009792.
MG DL_MG: Calling solver with defect correction order = 8
MG DL_MG: Solver finished
MG Hartree energy from (\int phi*rho dr):              1216.085851
MG Hartree energy from (\int eps (grad phi)^2 dr):     1215.902648
MG Discrepancy due to finite box and discretization:     -0.183203 (  -0.01506%)
MG Correction to account for finite box:                  0.006236
MG Remaining discrepancy, due to discretization:         -0.176967 (  -0.01455%)
      ideal mu1:      -0.480907200860
             Q0:  -11749.641704232781
             G0:      -0.000000004888
   RMS gradient:       0.000000012294

Reusing previously generated solute cavity.
MG BCs: +ve charge blocks (gridpoints):     29375 (   19719235).
MG BCs: -ve charge blocks (gridpoints):      8589 (    1070846).
MG BCs:     Elided blocks (gridpoints):    185857 (  189913464).
MG BCs: Computational effort saved:  99.9820%.
MG BCs: Charge after coarse-graining:           -9.0009792.
MG DL_MG: Calling solver with defect correction order = 8
MG DL_MG: Solver finished
MG Hartree energy from (\int phi*rho dr):              1216.085820
MG Hartree energy from (\int eps (grad phi)^2 dr):     1215.902617
MG Discrepancy due to finite box and discretization:     -0.183203 (  -0.01506%)
MG Correction to account for finite box:                  0.006236
MG Remaining discrepancy, due to discretization:         -0.176967 (  -0.01455%)
     Trial step:       0.725837942331
             Q1:  -11749.641704234527
 Quadratic coef:       0.000000001801
 Linear coef   :      -0.000000003548
           Qmin:  -11749.641704234529
Quadratic minimum step length (  0.715006648074) accepted
    Initial Ne1:    7234.00000000
      Final Ne1:    7234.00000000

=================== Penalty functional idempotency correction ==================
 RMS occupancy error at iteration   1:  0.000000 (step -0.5000 Ne1=   7234.0000)
            Final RMS occupancy error   :  0.000000 (Ne1=   7234.0000)
               Final occupancy bounds   : [ -0.0000,  1.0000]
================================================================================

    8        -1.174964170423E+04     1.2294E-08     1.1120E-08    -3.3760E-09

Reusing previously generated solute cavity.
MG BCs: +ve charge blocks (gridpoints):     29375 (   19719235).
MG BCs: -ve charge blocks (gridpoints):      8589 (    1070846).
MG BCs:     Elided blocks (gridpoints):    185857 (  189913464).
MG BCs: Computational effort saved:  99.9820%.
MG BCs: Charge after coarse-graining:           -9.0009792.
MG DL_MG: Calling solver with defect correction order = 8
MG DL_MG: Solver finished
MG Hartree energy from (\int phi*rho dr):              1216.085820
MG Hartree energy from (\int eps (grad phi)^2 dr):     1215.902617
MG Discrepancy due to finite box and discretization:     -0.183203 (  -0.01506%)
MG Correction to account for finite box:                  0.006236
MG Remaining discrepancy, due to discretization:         -0.176967 (  -0.01455%)
      ideal mu1:      -0.480907158372
             Q0:  -11749.641704234527
             G0:      -0.000000004174
   RMS gradient:       0.000000009077

Reusing previously generated solute cavity.
MG BCs: +ve charge blocks (gridpoints):     29375 (   19719234).
MG BCs: -ve charge blocks (gridpoints):      8589 (    1070846).
MG BCs:     Elided blocks (gridpoints):    185857 (  189913465).
MG BCs: Computational effort saved:  99.9820%.
MG BCs: Charge after coarse-graining:           -9.0009792.
MG DL_MG: Calling solver with defect correction order = 8
MG DL_MG: Solver finished
MG Hartree energy from (\int phi*rho dr):              1216.085775
MG Hartree energy from (\int eps (grad phi)^2 dr):     1215.902573
MG Discrepancy due to finite box and discretization:     -0.183203 (  -0.01506%)
MG Correction to account for finite box:                  0.006236
MG Remaining discrepancy, due to discretization:         -0.176967 (  -0.01455%)
     Trial step:       0.720401939331
             Q1:  -11749.641704234062
 Quadratic coef:       0.000000003472
 Linear coef   :      -0.000000003007
           Qmin:  -11749.641704235179
Quadratic minimum step length (  0.311901877730) accepted
    Initial Ne1:    7234.00000000
      Final Ne1:    7234.00000000

=================== Penalty functional idempotency correction ==================
 RMS occupancy error at iteration   1:  0.000000 (step -0.5000 Ne1=   7234.0000)
            Final RMS occupancy error   :  0.000000 (Ne1=   7234.0000)
               Final occupancy bounds   : [ -0.0000,  1.0000]
================================================================================

    9        -1.174964170423E+04     9.0773E-09     8.2102E-09    -1.7462E-09

Reusing previously generated solute cavity.
MG BCs: +ve charge blocks (gridpoints):     29375 (   19719234).
MG BCs: -ve charge blocks (gridpoints):      8589 (    1070846).
MG BCs:     Elided blocks (gridpoints):    185857 (  189913465).
MG BCs: Computational effort saved:  99.9820%.
MG BCs: Charge after coarse-graining:           -9.0009792.
MG DL_MG: Calling solver with defect correction order = 8
MG DL_MG: Solver finished
MG Hartree energy from (\int phi*rho dr):              1216.085801
MG Hartree energy from (\int eps (grad phi)^2 dr):     1215.902598
MG Discrepancy due to finite box and discretization:     -0.183203 (  -0.01506%)
MG Correction to account for finite box:                  0.006236
MG Remaining discrepancy, due to discretization:         -0.176967 (  -0.01455%)
      ideal mu1:      -0.480907136902
   10        -1.174964170423E+04     5.2706E-09     4.7672E-09    -3.4925E-10
Finished density kernel iterations (  10)

Writing density kernel to file "complex_36581.dkn" ... done


>>> Density kernel optimised for the current NGWF basis:
     ~~~~~~~~~~~~~~~~~~~~~~~~~~~~~~~~~~~~~~~~~~~~~~~~~~~~~~~~~~~
     Total energy                =  -1.17496417042349E+04  Eh
     Estimated bandgap           =   7.9880E-02  Eh
     RMS occupancy error         =   5.6174E-16
     [H,K] commutator            =   4.7672E-09
     Occupancy bounds            = [ -0.000:  1.000]
     ~~~~~~~~~~~~~~~~~~~~~~~~~~~~~~~~~~~~~~~~~~~~~~~~~~~~~~~~~~~




################################################################################
########################### NGWF CG iteration  004 #############################
################################################################################
****** Reciprocal space K.E. preconditioning with k_zero =  3.5000 a0^-1 *******

>>> Checking for convergence of NGWFs: 
           ........................................................
           |         *** NGWF optimisation converged ***          |
           | RMS NGWF gradient =    0.00000199914684              |
           | Criteria satisfied:                                  |
           | -> RMS NGWF gradient lower than set threshold.       |
           ========================================================

Reusing previously generated solute cavity.
MG BCs: +ve charge blocks (gridpoints):     29375 (   19719234).
MG BCs: -ve charge blocks (gridpoints):      8589 (    1070846).
MG BCs:     Elided blocks (gridpoints):    185857 (  189913465).
MG BCs: Computational effort saved:  99.9820%.
MG BCs: Charge after coarse-graining:           -9.0009792.
MG DL_MG: Calling solver with defect correction order = 8
MG DL_MG: Solver finished
MG Hartree energy from (\int phi*rho dr):              1216.085801
MG Hartree energy from (\int eps (grad phi)^2 dr):     1215.902598
MG Discrepancy due to finite box and discretization:     -0.183203 (  -0.01506%)
MG Correction to account for finite box:                  0.006236
MG Remaining discrepancy, due to discretization:         -0.176967 (  -0.01455%)

================================================================================
           ---------------- ENERGY COMPONENTS (Eh) ----------------
           | Kinetic                    :     8580.15221788129929 |
           | Pseudo. (local,OBC,corr'd) :    -5082.56090278252577 |
           | Pseudopotential (non-local):     1411.82391193731610 |
           | Hartree (molecular)        :     1216.08580085266203 |
           | Exchange-correlation       :    -3376.78599125624169 |
           | Ion-ion (open BC)          :   834038.59920462057926 |
           | Dispersion Correction      :       -3.24816926380181 |
           | Smeared ion non-self corr. :  -833990.43716264062095 |
           | Smeared ion self corr.     :   -14543.93950988473080 |
           | Solvent cavitation energy  :        2.37977871098209 |
           | Solute-solvent dis-rep en. :       -1.71088240979280 |
           | Total                      :   -11749.64170423496398 |
           --------------------------------------------------------
           ------ LOCAL ENERGY COMPONENTS FROM MATRIX TRACES ------
           | Pseudopotential (local)    :    -5082.56090278253487 |
           | Hartree                    :    -2001.05011117585400 |
           --------------------------------------------------------
           Integrated density           :     7233.99999999758074
           Integrated density tr(KS)    :     7233.99999999999818
================================================================================


                        <<<<< CALCULATION SUMMARY >>>>>                         
|ITER|    RMS GRADIENT   |     TOTAL ENERGY    |   step   |     Epredicted              
   0     0.00003848959722 -11749.58235024055466   0.620338 -11749.63341214532011        
   1     0.00001020234532 -11749.64102668035775   0.097451 -11749.64159027773712        
   2     0.00000448972141 -11749.64168161293492   0.017662 -11749.64170139426278        
   3     0.00000199914684 -11749.64170423487667  <-- CG                                 

=================== Finished the calculation in solvent ========================
= Adjusting the following parameters: 
= read_denskern: F
= read_tightbox_ngwfs: F
= maxit_pen: 0 (restored to user-specified value)
= restart read filename prefix: ""
= restart write filename prefix: ""
================================================================================

================================================================================
IS: Calculation in solvent completed (NGWFs converged).      

Individual components of total energy in solvent:     hartree           kcal/mol
- Usual non-electrostatic DFT terms:    -12966.39640138872892    -8136536.409806
- Electrostatic fixed charge energy:      1216.08580085266203      763105.344753
- Apolar cavitation energy:                  2.37977871098209        1493.333655
- Apolar dispersion-repulsion energy:       -1.71088240979280       -1073.594898
 -------------------------------------------------------------------------------
- Total energy in solvent:              -11749.64170423487667    -7373011.326296

Components of total energy in solvent:                hartree           kcal/mol
- Usual non-electrostatic DFT terms:    -12966.39640138872892    -8136536.409806
- Electrostatic energy:                   1216.08580085266203      763105.344753
- Apolar energy terms:                       0.66889630118929         419.738757
 -------------------------------------------------------------------------------
- Total energy in solvent:              -11749.64170423487667    -7373011.326296

Calculation of free energy of solvation:              hartree           kcal/mol
- Total energy in solvent:         (+)  -11749.64170423487667    -7373011.326296
- Total energy in vacuum:          (-)  -11745.78209239034913    -7370589.383350
 -------------------------------------------------------------------------------
- Total free energy of solvation:           -3.85961184452754       -2421.942946

Components of polar term in f.e. of solvation:        hartree           kcal/mol
- Electrostatic:                            -4.78909550902836       -3005.202739
- Change in nonelectrostatic DFT terms:      0.26058736331106         163.521036
 -------------------------------------------------------------------------------
- Polar term in f.e. of solvation:          -4.52850814571730       -2841.681703

Components of free energy of solvation:               hartree           kcal/mol
- Polar term in f.e. of solvation: (+)      -4.52850814571730       -2841.681703
- Apolar (cavitation, dis., rep.): (+)       0.66889630118929         419.738757
 -------------------------------------------------------------------------------
- Total free energy of solvation:           -3.85961184452801       -2421.942946
================================================================================


------------------------------ TIMING INFORMATION ------------------------------
AVERAGE TIME:   34805.320s on     40 node(s)                                    
TOTAL TIME:     34805.321s on     40 node(s)                                    
================= AVERAGE TIMINGS FROM ALL NODES (CUMULATIVE) ==================
|| TAG                                    #calls    cpu time   %total  Gflops ||
|| work_imbalance                       :     1        0.00s   0.000%  ------ ||
|| parallel_prepare_fd_halos_request    :  2313        0.02s   0.000%  ------ ||
|| sparse_set_to_garbage                :   218        0.05s   0.000%  ------ ||
|| parallel_prepare_fd_halos_satisfy    :  2313        0.07s   0.000%  ------ ||
|| parallel_prepare_fd_halos_alloc      :  2313        0.09s   0.000%  ------ ||
|| ngwfs_initialise_from_radial         :     1        0.17s   0.000%  ------ ||
|| basis_extract_function_from_box      :  6379        0.21s   0.001%  ------ ||
|| restart_ngwfs_tightbox_input         :     1        1.03s   0.003%  ------ ||
|| pseudopotentials_nonlocal_mat        :    37        2.65s   0.008%  ------ ||
|| parallel_prepare_fd_halos_comms_imbal:  2313        3.96s   0.011%  ------ ||
|| restart_kernel_read                  :     1        4.39s   0.013%  ------ ||
|| openbc_locps_radial                  :     1        4.59s   0.013%  ------ ||
|| density_init_guess_real              :     1        5.96s   0.017%  ------ ||
|| parallel_prepare_fd_halos_clear      :  2313       17.63s   0.051%  ------ ||
|| restart_kernel_write                 :    20       20.98s   0.060%  ------ ||
|| sparse_init                          :     2       22.99s   0.066%  ------ ||
|| projectors_func_ovlp_box             :    37       29.70s   0.085%  ------ ||
|| parallel_prepare_fd_halos_comms_wait :  2313       31.10s   0.089%  ------ ||
|| function_ops_brappd_ketppd           :    37       34.40s   0.099%  ------ ||
|| projectors_init_fftbox_recip         :   246       35.38s   0.102%  ------ ||
|| parallel_prepare_fd_halos            :  2313       52.89s   0.152%  ------ ||
|| palser_mano_kernel_optimise          :     1       57.15s   0.164%  ------ ||
|| pseudo_make_structure_factor         :     2       62.60s   0.180%  ------ ||
|| basis_copy_function_to_box           : 104.2k      70.50s   0.203%  ------ ||
|| fourier_apply_box_pair               :  9249       71.32s   0.205% 567.857 ||
|| ngwf_gradient_coeffs                 :    19       76.26s   0.219%  ------ ||
|| restart_ngwfs_tightbox_output        :    17      107.45s   0.309%  ------ ||
|| sparse_embed_hotelling_invert_embed  :    37      110.10s   0.316%  ------ ||
|| finite_difference_derivative         :  2313      143.37s   0.412%  ------ ||
|| integrals_kinetic                    :    37      207.64s   0.597%  ------ ||
|| openbc_locps_on_grid                 :     2      213.61s   0.614%  ------ ||
|| projectors_gradient_batch            :   209      275.13s   0.790%  ------ ||
|| fourier_apply_cell_forward           :  1541      289.17s   0.831%  79.569 ||
|| basis_dot_function_with_box          : 15.73M     291.65s   0.838%  ------ ||
|| sparse_trace                         :  6022      296.80s   0.853%  ------ ||
|| fourier_apply_cell_backward          :  1543      306.84s   0.882%  75.085 ||
|| kernel_purify                        :   589      418.57s   1.203%  ------ ||
|| hamiltonian_energy_components        :     4      476.62s   1.369%  ------ ||
|| basis_add_function_to_box            : 32.96M     599.31s   1.722%  ------ ||
|| lnv_gradient_norm                    :   190      685.02s   1.968%  ------ ||
|| xc_energy_potential                  :   385      692.34s   1.989%  ------ ||
|| kernel_fix                           :   190      712.95s   2.048%  ------ ||
|| ngwf_gradient_build_batch            :   209     1034.50s   2.972%  ------ ||
|| integrals_locpot_mat_els_batch       :  2189     1224.74s   3.519%  ------ ||
|| cell_grid_deposit_box_real           : 65354     1249.78s   3.591%  ------ ||
|| cell_grid_extract_box_real           : 60392     1292.22s   3.713%  ------ ||
|| ngwf_gradient_batch                  :   209     1390.51s   3.995%  ------ ||
|| density_batch_row_sums               :  4224     1417.65s   4.073%  ------ ||
|| ngwf_gradient_lnv                    :    19     1601.56s   4.601%  ------ ||
|| density_fftbox_deposit_to_cell       : 62976     2289.06s   6.577%  ------ ||
|| sparse_product                       :  7729     2556.97s   7.346%  ------ ||
|| multigrid_prepare_bound_cond         :   385     3091.19s   8.881%  ------ ||
|| potential_apply_to_ngwf_batch        :  2189     4437.10s  12.748%  ------ ||
|| fourier_apply_box                    : 216.9k    4919.30s  14.134% 934.773 ||
|| density_fftbox_interpolate_multiply  : 62976     4979.68s  14.307%  ------ ||
|| integrals_locpot_dbl_grid            :   199     5679.40s  16.318%  ------ ||
|| density_batch_interp_deposit         :  4224     8327.44s  23.926%  ------ ||
|| dl_mg_solver_calls                   :   385     8438.86s  24.246%  ------ ||
|| density_on_dbl_grid                  :   384    10501.49s  30.172%  ------ ||
|| multigrid_calculate_hartree          :   385    11724.93s  33.687%  ------ ||
|| hamiltonian_lhxc_calculate           :   380    23016.93s  66.131%  ------ ||
|| lnv_denskernel_optimise_cg           :    19    30084.41s  86.436%  ------ ||
|| ngwf_cg_optimise                     :     2    33914.40s  97.440%  ------ ||
|| total_time                           :     1    34805.32s 100.000%  ------ ||
================================================================================
Overhead of generating timer report: 
- 0 ms averaging over threads,
- 5 ms ensuring consistency across MPI ranks,
- 2 ms printing in order.

Job completed: 09-05-2020 05:14 (+0100)

