 +---------------------------------------------------------------+
 |                                                               |
 |        ####### #     # ####### ####### ####### ######         |
 |        #     # ##    # #          #    #       #     #        |
 |        #     # # #   # #          #    #       #     #        |
 |        #     # #  #  # #####      #    #####   ######         |
 |        #     # #   # # #          #    #       #              |
 |        #     # #    ## #          #    #       #              |
 |        ####### #     # #######    #    ####### #              |
 |                                                               |
 |        Linear-Scaling Ab Initio Total Energy Program          |
 |                                                               |
 |          Release for academic collaborators of ODG            |
 |                                             Version 5.3.2.6.  |
 |                                                               |
 +---------------------------------------------------------------+
 |                                                               |
 |  Authors:                                                     |
 |  Jacek Dziedzic, Peter D. Haynes, Nicholas D. M. Hine,        |
 |  Arash. A. Mostofi, Mike C. Payne and Chris-Kriton Skylaris   |
 |                                                               |
 |  Contributors:                                                |
 |  J. Aarons, L. Andrinopoulos, P. W. Avraam, R. A. Bell,       |
 |  A. Bhandari, G. A. Bramley, R. J. Charlton, S. J. Clark,     |
 |  R. J. Clements, G. C. Constantinescu, F. Corsetti,           |
 |  N. Corsini, O. Dieguez, S. M. M. Dubois, K. K. B. Duff,      |
 |  J. M. Escartin, A. Greco, H. Helal, Q. O. Hill, L. P. Lee,   |
 |  J.-H. Li, E. B. Linscott, G. Moynihan, D. D. O`Regan,        |
 |  O. K. Okan, M. J. S. Phipps, C. J. Pickard,                  |
 |  J. C. A. Prentice, M. I. J. Probert, L. E. Ratcliff,         |
 |  M. Robinson, A. Ruiz Serrano, J. S. Spencer, E. W. Tait,     |
 |  G. Teobaldi, D. Turban, V. Vitale, K. A. Wilkinson,          |
 |  C. Weber, J. C. Womack, N. Yeung and T. J. Zuehlsdorff       |
 |                                                               |
 |                                   Copyright (c) 2004-2019     |
 |                                                               |
 |  Please cite:                                                 |
 |  "Introducing ONETEP: Linear-scaling density functional       |
 |   simulations on parallel computers".                         |
 |   C.-K. Skylaris, P. D. Haynes, A. A. Mostofi, M. C. Payne.   |
 |   J. Chem. Phys. 122 084119 (2005).                           |
 |                                                               |
 |          in all publications arising from your use of ONETEP. |
 |                                                               |
 +---------------------------------------------------------------+
 |                                                               |
 |   ONETEP is based on developments described in the following  |
 |   publications:                                               |
 |                                                               |
 |  "Nonorthogonal generalized Wannier function pseudopotential  |
 |   plane-wave method".                                         |
 |   C.-K. Skylaris, A. A. Mostofi, P. D. Haynes, O. Dieguez,    |
 |   M. C. Payne.                                                |
 |   Phys. Rev. B 66 035119 (2002).                              |
 |                                                               |
 |  "Preconditioned iterative minimization for linear-scaling    |
 |   electronic structure calculations".                         |
 |   A. A. Mostofi, P. D. Haynes, C.-K. Skylaris, M. C. Payne.   |
 |   J. Chem. Phys. 119(17), pp.8842-8848 (2003).                |
 |                                                               |
 |  "Total-energy calculations on a real space grid with         |
 |   localized functions and a plane-wave basis".                |
 |   A. A. Mostofi, C.-K. Skylaris, P. D. Haynes, M. C. Payne.   |
 |   Comput. Phys. Commun. 147, pp.788-802 (2002).               |
 |                                                               |
 |  "Accurate kinetic energy evaluation in electronic structure  |
 |   calculations with localized functions on real space grids"  |
 |   C.-K. Skylaris, A. A. Mostofi, P. D. Haynes, C. J. Pickard, |
 |   M. C. Payne.                                                |
 |   Comput. Phys. Commun. 140, pp.315-322 (2001).               |
 |                                                               |
 |  "Accurate ionic forces and geometry optimization in linear-  |
 |   scaling density-functional theory with local orbitals"      |
 |   N. D. M. Hine, M. Robinson, P. D. Haynes, C.-K. Skylaris,   |
 |   M. C. Payne, and A. A. Mostofi.                             |
 |   Phys. Rev. B 83 195102 (2011).                              |
 |                                                               |
 +---------------------------------------------------------------+

Job started: 30-03-2020 06:44 (+0100)
 
Reading parameters from file "complex_33161.dat" ...... done

If your calculation crashes here, before "Checking processes and threads..."
is displayed, then your stack size is insufficient.
If so, use "ulimit -s unlimited" at runtime.
You can disable this check with "check_stack_size F".

Checking processes and threads...
   Determining the default number of threads...
      No default threads set at compilation time: defaulting to 1.
      OpenMP library call suggests 4 threads.
      Hybrid MPI-OpenMP compilation detected.
      Number of MPI processes > 1.
      OMP_NUM_THREADS environment variable present and
      its value matches the one obtained from the OpenMP library call.
      Using this value as default.
      Default threads: 4
      Default applies to threads_max and threads_num_fftboxes.
      Settings in the input file override this default.
   ... done

   Running with 60 MPI processes.
   There are 6 MPI processes running on the same node as the root process.
   Each MPI process is using: 
               1 threads for simulation cell FFTs.
               1 threads for parallel FFT box operations.
               4 threads for loops over batched FFT box operations.
               4 threads in other parallel regions.
... done

Basic input checks...... done

Reading geometry and species blocks from file "complex_33161.dat" ...
  <species_atomic_set> block not found: NGWF initialisation set to SOLVE
IS: Dielectric excluded regions:
    - NONE.
    
  Number of PPD points along a3 set to 1.  This is 
  the default value, it may have been provided also in the input file.
... done
 Writing xyz coordinates to file "complex_33161.xyz" ... done


--------------------------------------------------------------------------------
---------------------------------- INPUT FILE ----------------------------------
--------------------------------------------------------------------------------

cutoff_energy       : 800 eV                                                    
xc_functional PBE                                                               
task SINGLEPOINT                                                                
write_xyz true                                                                  
output_detail VERBOSE                                                           
ngwf_threshold_orig : 0.000002                                                  
kernel_cutoff       : 1000                                                      
k_zero              : 3.5                                                       
elec_cg_max 0                                                                   
occ_mix 1.0                                                                     
dispersion 1                                                                    
maxit_ngwf_cg 40                                                                
minit_lnv 10                                                                    
maxit_lnv 10                                                                    
write_denskern T                                                                
write_tightbox_ngwfs T                                                          
charge 9                                                                        
is_implicit_solvent T                                                           
is_auto_solvation T                                                             
is_include_apolar T                                                             
is_smeared_ion_rep T                                                            
is_solvent_surf_tension 4.7624E-5 Ha/bohr**2                                    
is_apolar_scaling_factor 0.281075                                               
is_solvation_beta 1.3                                                           
is_density_threshold 0.00035                                                    
is_bulk_permittivity 78.54                                                      
is_dielectric_model fix_initial                                                 
is_smeared_ion_width 0.8                                                        
mg_defco_fd_order 8                                                             
is_bc_coarseness 10                                                             
is_bc_surface_coarseness 1                                                      
fine_grid_scale 2.0                                                             
%block species                                                                  
N   N   7 4 8.0                                                                 
H   H   1 1 8.0                                                                 
C   C   6 4 8.0                                                                 
S   S  16 9 8.0                                                                 
O   O   8 4 8.0                                                                 
%endblock species                                                               
%block species_pot                                                              
N   N_00.recpot                                                                 
H   H_04.recpot                                                                 
C   C_01.recpot                                                                 
S   S_00.recpot                                                                 
O   O_02.recpot                                                                 
%endblock species_pot                                                           
%block lattice_cart                                                             
142.669   0.000   0.000                                                         
0.000 146.65   0.000                                                            
0.000   0.000   162.396                                                         
%endblock lattice_cart                                                          
%block positions_abs                                                            
     Hash =   000005068095757293814300
%endblock positions_abs                                                         

--------------------------------------------------------------------------------
-------------------------------- END INPUT FILE --------------------------------
--------------------------------------------------------------------------------


 
 ESDF WARNING(1): "kernelcutoff" (esdf_physical) has no units. Assume "bohr".
 ESDF WARNING(2): "kzero" (esdf_physical) has no units. Assume "1/bohr".
 ESDF WARNING(3
 ): "issmearedionwidth" (esdf_physical) has no units. Assume "bohr".
<<<<<<<<<<<<<<<<<<<<<<<<<<<<<<<<< Full system >>>>>>>>>>>>>>>>>>>>>>>>>>>>>>>>>>
<<<<<<<<<<<<<<<<<<<<<<<<< Pseudopotential information >>>>>>>>>>>>>>>>>>>>>>>>>>
File: N_00.recpot [ 2001 points up to Gmax=  52.9 (1/bohr)]
  Atomic number:  7;  ionic charge:  5.000000
    Shell 1: l = 0; rc = 1.48 bohr
File: H_04.recpot [ 2001 points up to Gmax=  52.9 (1/bohr)]
  Atomic number:  1;  ionic charge:  1.000000
    Local potential
File: C_01.recpot [ 2001 points up to Gmax=  52.9 (1/bohr)]
  Atomic number:  6;  ionic charge:  4.000000
    Shell 1: l = 0; rc = 1.48 bohr
File: S_00.recpot [ 2001 points up to Gmax=  52.9 (1/bohr)]
  Atomic number: 16;  ionic charge:  6.000000
    Shell 1: l = 0; rc = 1.90 bohr
    Shell 2: l = 2; rc = 1.84 bohr
File: O_02.recpot [ 2001 points up to Gmax=  52.9 (1/bohr)]
  Atomic number:  8;  ionic charge:  6.000000
    Shell 1: l = 0; rc = 1.31 bohr
<<<<<<<<<<<<<<<<<<<<<<<<<<<<<<<<<<<<<<<<>>>>>>>>>>>>>>>>>>>>>>>>>>>>>>>>>>>>>>>>

-------------------------- Atom counting information ---------------------------
Symbol    Natoms    Nngwfs    Nprojs
  N        236       944       236
  H       1317      1317         0
  C        816      3264       816
  S          6        54        36
  O        241       964       241
.......   ......    ......    ......
Totals:   2616      6543      1329
--------------------------------------------------------------------------------

=============================== PSINC grid sizes ===============================
                      Simulation cell:  286 x 294 x 320
                              FFT-box:  105 x 105 x  99
                                  PPD:   11 x   6 x   1
Grid space d1=  0.498842657343a0 (KE cutoff=  30.52649Eh = 830.66799eV)
Grid space d2=  0.498809523810a0 (KE cutoff=  30.53054Eh = 830.77835eV)
Grid space d3=  0.507487500000a0 (KE cutoff=  29.49533Eh = 802.60885eV)
================================================================================

********************* Fourier parallelisation information **********************
       Coarse grid (whole simulation cell) dimensions:    286   294   320
          Real-space ('12') slabs/node (min max mean):      5     6     5
         Recip-space ('23') slabs/node (min max mean):      2     3     2
********************************************************************************

********************* Fourier parallelisation information **********************
       Double grid (whole simulation cell) dimensions:    572   588   640
          Real-space ('12') slabs/node (min max mean):     10    11    10
         Recip-space ('23') slabs/node (min max mean):      4     5     4
********************************************************************************
ONETEP fine grid is 572 x 588 x 640 gridpoints, 142.6690 x 146.6500 x 162.3960 bohr.
FD multigrid is     569 x 585 x 633 gridpoints, 141.9207 x 145.9018 x 160.6198 bohr.


Calculating local pseudopotential in open BC on a radial grid ...
Discrepancy between calculated realspace psloc and -Z/x on [5a0,261.215a0]:
max |rel. diff| # avg |rel. diff| #  avg rel. diff #  f # pseudopotential file
 0.000261901569    0.000004963664   0.000000071970   55  'N_00.recpot'
 0.000422260137    0.000017549664  -0.000000063361   55  'H_04.recpot'
 0.000361991046    0.000016543264   0.000000134927   55  'C_01.recpot'
 0.000447743184    0.000019132268   0.000000438157   55  'S_00.recpot'
 0.000711628927    0.000028437426   0.000000135877   55  'O_02.recpot'
... done

Atom SCF Calculation for N  : Z (AE atom) =   7 : Z (PS atom) =   5
Config String:
Orbitals (num,occ):  2     2.00 3.00
Orbitals   (num,l):  2        0    1
Real-space Grid (nr,dr,rmax): 1203    0.0066555740    8.0000000000
Spherical Bessel Basis (nsws,lmax,cutoff):   47    1  176.3951722778
Confining potential (l,width,scale):  0    3.0000000000  100.0000000000
Confining potential (l,width,scale):  1    3.0000000000  100.0000000000
  1         -4.7312375307   -3.4155304497    7.0523828109   -1.9351020946
  2         -9.7309464766   -2.0532547791    8.2966052865   -2.2494486027
  3         -9.6627394379   -2.1124926340    8.2327997121   -2.2369778124
  4         -9.6814993499   -2.1215521045    8.2229805960   -2.2365178421
  5         -9.6843326483   -2.1250939529    8.2191374534   -2.2362718126
  6         -9.6859628709   -2.1267894855    8.2172963573   -2.2362066344
  7         -9.6867347035   -2.1276425665    8.2163697352   -2.2361903369
  8         -9.6870802100   -2.1280764625    8.2158983890   -2.2361891460
  9         -9.6872290423   -2.1282977424    8.2156580222   -2.2361920435
 10         -9.6872901988   -2.1284107021    8.2155353368   -2.2361953393
 11         -9.6873135296   -2.1284684031    8.2154726809   -2.2361979819
 12         -9.6873212476   -2.1284978948    8.2154406648   -2.2361998431
 13         -9.6873229586   -2.1285129774    8.2154242957   -2.2362010676
 14         -9.6873226456   -2.1285206957    8.2154159216   -2.2362018403
 15         -9.6873218534   -2.1285246479    8.2154116349   -2.2362023142
 16         -9.6873212599   -2.1285262679    8.2154098784   -2.2362025420
 17         -9.6873207834   -2.1285272564    8.2154088068   -2.2362026955
 18         -9.6873204210   -2.1285278596    8.2154081529   -2.2362027982
 19         -9.6873201550   -2.1285282280    8.2154077538   -2.2362028667
 20         -9.6873199645   -2.1285284529    8.2154075102   -2.2362029121
 21         -9.6873198305   -2.1285285903    8.2154073614   -2.2362029421
 22         -9.6873197377   -2.1285286742    8.2154072705   -2.2362029618
Atom SCF converged after  22 iterations to a total energy of     -9.68731974

Atom SCF Calculation for H  : Z (AE atom) =   1 : Z (PS atom) =   1
Config String:
Orbitals (num,occ):  1     1.00
Orbitals   (num,l):  1        0
Real-space Grid (nr,dr,rmax): 1203    0.0066555740    8.0000000000
Spherical Bessel Basis (nsws,lmax,cutoff):   47    0  176.3951722778
Confining potential (l,width,scale):  0    3.0000000000  100.0000000000
  1         -0.3194257691   -0.2393854593    0.2820953124   -0.2424203209
  2         -0.3951823392   -0.2377116493    0.2886404059   -0.2475147891
  3         -0.4317044583   -0.2352244387    0.2921333887   -0.2514046172
  4         -0.4470703708   -0.2341892222    0.2934391879   -0.2531009782
  5         -0.4532132900   -0.2338556667    0.2938388426   -0.2537313520
  6         -0.4556579251   -0.2337612552    0.2939448584   -0.2539550462
  7         -0.4566418315   -0.2337377355    0.2939680120   -0.2540342273
  8         -0.4570437922   -0.2337331116    0.2939708287   -0.2540627372
  9         -0.4572102946   -0.2337328328    0.2939698291   -0.2540732650
 10         -0.4572800424   -0.2337332404    0.2939687193   -0.2540772588
 11         -0.4573095100   -0.2337335791    0.2939680317   -0.2540788122
 12         -0.4573220379   -0.2337337762    0.2939676699   -0.2540794294
 13         -0.4573273880   -0.2337338775    0.2939674931   -0.2540796787
 14         -0.4573296803   -0.2337339266    0.2939674099   -0.2540797808
 15         -0.4573306647   -0.2337339495    0.2939673718   -0.2540798230
 16         -0.4573310882   -0.2337339601    0.2939673545   -0.2540798406
 17         -0.4573312706   -0.2337339649    0.2939673467   -0.2540798479
 18         -0.4573313493   -0.2337339670    0.2939673433   -0.2540798510
Atom SCF converged after  18 iterations to a total energy of     -0.45733135

Atom SCF Calculation for C  : Z (AE atom) =   6 : Z (PS atom) =   4
Config String:
Orbitals (num,occ):  2     2.00 2.00
Orbitals   (num,l):  2        0    1
Real-space Grid (nr,dr,rmax): 1203    0.0066555740    8.0000000000
Spherical Bessel Basis (nsws,lmax,cutoff):   47    1  176.3951722778
Confining potential (l,width,scale):  0    3.0000000000  100.0000000000
Confining potential (l,width,scale):  1    3.0000000000  100.0000000000
  1         -5.2976922011   -1.3069684169    4.5135249990   -1.4493313817
  2         -5.3721716256   -1.3429755895    4.4750154450   -1.4361613026
  3         -5.3809959565   -1.3617365618    4.4541655428   -1.4305930207
  4         -5.3918938866   -1.3667928461    4.4484735100   -1.4294652294
  5         -5.3956096428   -1.3688539142    4.4461376126   -1.4290734646
  6         -5.3968271862   -1.3696852393    4.4451910874   -1.4289366866
  7         -5.3972028401   -1.3700178062    4.4448112275   -1.4288900460
  8         -5.3973067903   -1.3701500158    4.4446598370   -1.4288749220
  9         -5.3973286940   -1.3702023868    4.4445997329   -1.4288704293
 10         -5.3973289850   -1.3702230869    4.4445759233   -1.4288693188
 11         -5.3973254264   -1.3702312560    4.4445665049   -1.4288691775
 12         -5.3973224003   -1.3702344755    4.4445627836   -1.4288692549
 13         -5.3973208708   -1.3702354890    4.4445616088   -1.4288693270
 14         -5.3973198783   -1.3702360102    4.4445610034   -1.4288693814
 15         -5.3973192535   -1.3702362780    4.4445606917   -1.4288694190
 16         -5.3973188684   -1.3702364155    4.4445605313   -1.4288694437
 17         -5.3973186349   -1.3702364860    4.4445604489   -1.4288694595
 18         -5.3973184951   -1.3702365221    4.4445604065   -1.4288694693
 19         -5.3973184122   -1.3702365405    4.4445603848   -1.4288694753
Atom SCF converged after  19 iterations to a total energy of     -5.39731841

Atom SCF Calculation for S  : Z (AE atom) =  16 : Z (PS atom) =   6
Config String:
Orbitals (num,occ):  3     2.00 4.00 0.00
Orbitals   (num,l):  3        0    1    2
Real-space Grid (nr,dr,rmax): 1203    0.0066555740    8.0000000000
Spherical Bessel Basis (nsws,lmax,cutoff):   47    2  176.3951722778
Confining potential (l,width,scale):  0    3.0000000000  100.0000000000
Confining potential (l,width,scale):  1    3.0000000000  100.0000000000
Confining potential (l,width,scale):  2    3.0000000000  100.0000000000
  1        -12.4735062396   -1.0328741412   10.1554312477   -2.4512393157
  2         -9.9458301913   -2.4607392455    8.3041325857   -2.0306994528
  3        -10.1450417646   -2.2931184565    8.4831893826   -2.0812538287
  4        -10.1528335592   -2.2733105793    8.5050388867   -2.0896035179
  5        -10.1571940363   -2.2633716629    8.5160794258   -2.0939370707
  6        -10.1594380571   -2.2584938667    8.5215163935   -2.0961289008
  7        -10.1605856507   -2.2561081821    8.5241804044   -2.0972291378
  8        -10.1611799191   -2.2549395235    8.5254868240   -2.0977806248
  9        -10.1614918752   -2.2543658586    8.5261285885   -2.0980571586
 10        -10.1616572884   -2.2540839121    8.5264441898   -2.0981959233
 11        -10.1617455602   -2.2539453058    8.5265994231   -2.0982656006
 12        -10.1617928447   -2.2538772062    8.5266757320   -2.0983006047
 13        -10.1618182292   -2.2538437891    8.5267131983   -2.0983181961
 14        -10.1618318741   -2.2538274201    8.5267315620   -2.0983270391
 15        -10.1618392144   -2.2538194197    8.5267405433   -2.0983314852
 16        -10.1618431651   -2.2538155200    8.5267449245   -2.0983337210
 17        -10.1618452923   -2.2538136252    8.5267470551   -2.0983348455
 18        -10.1618464380   -2.2538127080    8.5267480875   -2.0983354110
 19        -10.1618470552   -2.2538122659    8.5267485856   -2.0983356955
 20        -10.1618473878   -2.2538120540    8.5267488248   -2.0983358386
 21        -10.1618475670   -2.2538119530    8.5267489389   -2.0983359106
 22        -10.1618476637   -2.2538119053    8.5267489929   -2.0983359468
Atom SCF converged after  22 iterations to a total energy of    -10.16184766

Atom SCF Calculation for O  : Z (AE atom) =   8 : Z (PS atom) =   6
Config String:
Orbitals (num,occ):  2     2.00 4.00
Orbitals   (num,l):  2        0    1
Real-space Grid (nr,dr,rmax): 1203    0.0066555740    8.0000000000
Spherical Bessel Basis (nsws,lmax,cutoff):   47    1  176.3951722778
Confining potential (l,width,scale):  0    3.0000000000  100.0000000000
Confining potential (l,width,scale):  1    3.0000000000  100.0000000000
  1         -1.8735052164   -7.5539365035   10.1554312477   -2.4512393157
  2        -16.0318313751   -3.1285771268   13.6395848164   -3.2358799643
  3        -15.9524020423   -3.0762819706   13.6967272503   -3.2536856837
  4        -15.8521515939   -3.0781493909   13.6951909330   -3.2561700440
  5        -15.8357139793   -3.0748501933   13.6988803334   -3.2580493133
  6        -15.8246052853   -3.0740779781   13.6997881576   -3.2588327446
  7        -15.8189019501   -3.0737449687   13.7001869911   -3.2592378801
  8        -15.8159785510   -3.0736026016   13.7003615168   -3.2594475790
  9        -15.8144776168   -3.0735437994   13.7004360379   -3.2595560735
 10        -15.8137058024   -3.0735207882   13.7004667348   -3.2596122456
 11        -15.8133083127   -3.0735125946   13.7004786868   -3.2596413656
 12        -15.8131032938   -3.0735102195   13.7004828997   -3.2596564858
 13        -15.8129973902   -3.0735099286   13.7004840891   -3.2596643505
 14        -15.8129426040   -3.0735102506   13.7004842061   -3.2596684489
 15        -15.8129142203   -3.0735106556   13.7004840157   -3.2596705887
 16        -15.8128994940   -3.0735109855   13.7004837906   -3.2596717080
 17        -15.8128918425   -3.0735112169   13.7004836103   -3.2596722946
 18        -15.8128878614   -3.0735113674   13.7004834848   -3.2596726026
 19        -15.8128857871   -3.0735114608   13.7004834035   -3.2596727646
 20        -15.8128847048   -3.0735115170   13.7004833533   -3.2596728500
 21        -15.8128841394   -3.0735115501   13.7004833231   -3.2596728951
 22        -15.8128838436   -3.0735115693   13.7004833054   -3.2596729190
 23        -15.8128836887   -3.0735115802   13.7004832951   -3.2596729316
 24        -15.8128836074   -3.0735115864   13.7004832893   -3.2596729383
Atom SCF converged after  24 iterations to a total energy of    -15.81288361

========================== Calculation in vacuum ==============================
= Adjusting the following parameters: 
= is_implicit_solvent: F
= is_include_apolar: F
= write_denskern: T
= write_tightbox_ngwfs: T
= restart read filename prefix: ""
= restart write filename prefix: "vacuum_"
===============================================================================

Determining parallel strategy ...
... using space-filling curve
... NGWF load balancing: max    110;  min    109;  average    109
... Projector load balancing: max     26;  min     21;  average     22
... done
Calculating direct Ion-Ion energy ...
Ion-Ion Energy        :    833509.56888742651790
======================= Empirical dispersion information =======================
Model : Elstner
Dispersion Correction Energy: -0.32424935E+01 Hartree
================================================================================
Basis initialisation ...... NGWF spheres initialised
... Projector spheres initialised
... NGWF tight boxes initialised
... Tight-boxes gathered
... NGWF basis size (local,global):     989767  58999325
... Nonlocal pseudopotential projector initialisation
... done

========================== Sparse matrix information ===========================
                        Overlap matrix filling:   6.66%
                        Density kernel filling: 100.00%
              NGWF-Proj overlap matrix filling:   1.75%
                    Hamiltonian matrix filling:   7.49%
                  NGWF diagonal matrix filling:   0.05%
                             KS matrix filling: 100.00% 
                           KSKS matrix filling: 100.00% 
================================================================================

Sparse matrix initialisation ... done

Generating smeared ion density ... done
Smeared ion self correction:     -14543.939510
Smeared ion non-self correction: -833461.080319
NGWF initialisation ...... done
============ Calculation of NGWF S^-1 using Hotelling algorithm ================ 
         Iteration  |  Frobenius norm and Maximum abs value    (of I-S*S_n^-1)   
               1       0.78720685E+02     0.98262356E+00
               2       0.76872241E+02     0.96567686E+00
               3       0.73875693E+02     0.93300775E+00
               4       0.69611111E+02     0.87260331E+00
               5       0.64294851E+02     0.76942495E+00
               6       0.58316365E+02     0.70338748E+00
               7       0.52298746E+02     0.66968758E+00
               8       0.46737123E+02     0.64248082E+00
               9       0.40672656E+02     0.60050472E+00
              10       0.32419982E+02     0.53044780E+00
              11       0.21852738E+02     0.42694448E+00
              12       0.11226635E+02     0.29421239E+00
              13       0.37475429E+01     0.14893020E+00
              14       0.62165676E+00     0.42358111E-01
              15       0.35489998E-01     0.37321445E-02
              16       0.26328238E-03     0.38558854E-04
              17       0.21986077E-07     0.42622488E-08
              18       0.97176597E-13     0.62172489E-14
================================================================================
Calculating local pseudopotential in open BC on the fine real space grid ...
... done

MG BCs: +ve charge blocks (gridpoints):     20978 (   16450743).
MG BCs: -ve charge blocks (gridpoints):      8239 (    1102422).
MG BCs:     Elided blocks (gridpoints):    194254 (  193150380).
MG BCs: Computational effort saved:  99.9861%.
MG BCs: Charge after coarse-graining:           -9.0002346.
MG DL_MG: Calling solver with defect correction order = 8
MG DL_MG: Solver finished
MG Hartree energy from (\int phi*rho dr):              1471.276626
MG Hartree energy from (\int eps (grad phi)^2 dr):     1470.675169
MG Discrepancy due to finite box and discretization:     -0.601457 (  -0.04088%)
MG Correction to account for finite box:                  0.453688
MG Remaining discrepancy, due to discretization:         -0.147769 (  -0.01004%)
Up spin density kernel initialisation ... 
======= Optimisation of K by Palser-Manolopoulos canonical purification ======== 
         Iteration  |  Band structure energy |    c_n   
               1       -2597.95577215921321    0.5264869
               2       -2774.83878954287138    0.5169121
               3       -2955.55965550195651    0.5156576
               4       -3105.75653812794826    0.5295553
               5       -3197.56653871453636    0.5658058
               6       -3235.75067755705913    0.6103814
               7       -3248.75369791155845    0.6217764
               8       -3254.42919820316092    0.6214709
               9       -3257.16481677364163    0.6377818
              10       -3258.28878135615332    0.6625169
              11       -3258.73135042520971    0.6815453
              12       -3258.92487181513661    0.6863586
              13       -3259.02035739075200    0.6443220
              14       -3259.08107604281940    0.5615979
              15       -3259.12029224256867    0.4735644
              16       -3259.13238641650423    0.4460426
              17       -3259.13328692442428    0.4460632
              18       -3259.13389021620878    0.4141261
              19       -3259.13420632107182    0.4018546
              20       -3259.13435969533475    0.4322204
              21       -3259.13448763348924    0.4706486
              22       -3259.13460109734206    0.4945694
              23       -3259.13469457563679    0.4998200
              24       -3259.13475519201529    0.4999998
              25       -3259.13477329960097    0.5000000
              26       -3259.13477447545802    0.5000005
              27       -3259.13477447993500    0.5000005
Termination criterion satisfied: band energy change below threshold.
Final occupancy bounds: [    0.00000000000000:    1.00000000000000]
Closest occupancy to 0.5:     1.00000000000000
================================================================================
... done

Writing density kernel to file "complex_33161.vacuum_dkn" ... done

>>> Optimising kernel for current NGWFs:
   Initial electron number for spin 1:    7234.00000000
     Final electron number for spin 1:    7234.00000000

=================== Penalty functional idempotency correction ==================
 RMS occupancy error at iteration   1:  0.000000 (step -0.5000 Ne1=   7234.0000)
            Final RMS occupancy error   :  0.000000 (Ne1=   7234.0000)
               Final occupancy bounds   : [  0.0000,  1.0000]
================================================================================

................................................................................
<<<<<<<<<<<<<< LNV (Original version) density kernel optimisation >>>>>>>>>>>>>>
~~~~~~~~~~~~~~~~~~~~~~~~~~~~~~~~~~~~~~~~~~~~~~~~~~~~~~~~~~~~~~~~~~~~~~~~~~~~~~~~
   iter  |      energy (Eh)       | rms gradient |  commutator  |   dE (Eh)
MG BCs: +ve charge blocks (gridpoints):     31883 (   17611176).
MG BCs: -ve charge blocks (gridpoints):      8543 (    1136378).
MG BCs:     Elided blocks (gridpoints):    183339 (  191955991).
MG BCs: Computational effort saved:  99.9808%.
MG BCs: Charge after coarse-graining:           -9.0010146.
MG DL_MG: Calling solver with defect correction order = 8
MG DL_MG: Solver finished
MG Hartree energy from (\int phi*rho dr):              1426.498204
MG Hartree energy from (\int eps (grad phi)^2 dr):     1425.845189
MG Discrepancy due to finite box and discretization:     -0.653015 (  -0.04578%)
MG Correction to account for finite box:                  0.463140
MG Remaining discrepancy, due to discretization:         -0.189875 (  -0.01331%)
      ideal mu1:      -0.695166412377
             Q0:  -11576.358151732478
             G0:    -145.938658438813
   RMS gradient:       0.001846325443
MG BCs: +ve charge blocks (gridpoints):     31823 (   17697638).
MG BCs: -ve charge blocks (gridpoints):      8445 (    1115491).
MG BCs:     Elided blocks (gridpoints):    183398 (  191890416).
MG BCs: Computational effort saved:  99.9809%.
MG BCs: Charge after coarse-graining:           -9.0010366.
MG DL_MG: Calling solver with defect correction order = 8
MG DL_MG: Solver finished
MG Hartree energy from (\int phi*rho dr):              1451.553192
MG Hartree energy from (\int eps (grad phi)^2 dr):     1450.916271
MG Discrepancy due to finite box and discretization:     -0.636921 (  -0.04388%)
MG Correction to account for finite box:                  0.462654
MG Remaining discrepancy, due to discretization:         -0.174267 (  -0.01201%)
     Trial step:       0.500000000000
             Q1:  -11588.027526107500
 Quadratic coef:      61.299954844384
 Linear coef   :     -72.969329219407
           Qmin:  -11598.073188147460
Quadratic minimum step length (  0.297591284548) accepted
    Initial Ne1:    7234.00000000
      Final Ne1:    7234.00000000

=================== Penalty functional idempotency correction ==================
 RMS occupancy error at iteration   1:  0.003431 (step -0.4883 Ne1=   7234.0000)
 RMS occupancy error at iteration   2:  0.000028 (step -0.5001 Ne1=   7234.0000)
            Final RMS occupancy error   :  0.000000 (Ne1=   7234.0000)
               Final occupancy bounds   : [  0.0000,  1.0000]
================================================================================

    1        -1.157635815173E+04     1.8463E-03     1.6700E-03
MG BCs: +ve charge blocks (gridpoints):     31851 (   17664572).
MG BCs: -ve charge blocks (gridpoints):      8486 (    1124321).
MG BCs:     Elided blocks (gridpoints):    183371 (  191914652).
MG BCs: Computational effort saved:  99.9809%.
MG BCs: Charge after coarse-graining:           -9.0010274.
MG DL_MG: Calling solver with defect correction order = 8
MG DL_MG: Solver finished
MG Hartree energy from (\int phi*rho dr):              1433.448227
MG Hartree energy from (\int eps (grad phi)^2 dr):     1432.805717
MG Discrepancy due to finite box and discretization:     -0.642511 (  -0.04482%)
MG Correction to account for finite box:                  0.462745
MG Remaining discrepancy, due to discretization:         -0.179766 (  -0.01254%)
      ideal mu1:      -0.741391191424
             Q0:  -11598.481276993989
             G0:     -12.396180155405
   RMS gradient:       0.000534444065
MG BCs: +ve charge blocks (gridpoints):     31839 (   17682200).
MG BCs: -ve charge blocks (gridpoints):      8459 (    1118974).
MG BCs:     Elided blocks (gridpoints):    183382 (  191902371).
MG BCs: Computational effort saved:  99.9809%.
MG BCs: Charge after coarse-graining:           -9.0010307.
MG DL_MG: Calling solver with defect correction order = 8
MG DL_MG: Solver finished
MG Hartree energy from (\int phi*rho dr):              1438.626039
MG Hartree energy from (\int eps (grad phi)^2 dr):     1437.987354
MG Discrepancy due to finite box and discretization:     -0.638685 (  -0.04440%)
MG Correction to account for finite box:                  0.462061
MG Remaining discrepancy, due to discretization:         -0.176623 (  -0.01228%)
     Trial step:       0.385740381959
             Q1:  -11601.386463290663
 Quadratic coef:       1.876520971304
 Linear coef   :      -4.781707267977
           Qmin:  -11601.527435916043
Quadratic minimum step length (  0.491467352663) accepted
    Initial Ne1:    7233.99986182
      Final Ne1:    7234.00000000

=================== Penalty functional idempotency correction ==================
 RMS occupancy error at iteration   1:  0.001853 (step -0.4926 Ne1=   7234.0000)
 RMS occupancy error at iteration   2:  0.000015 (step -0.5003 Ne1=   7234.0000)
            Final RMS occupancy error   :  0.000000 (Ne1=   7234.0000)
               Final occupancy bounds   : [  0.0000,  1.0000]
================================================================================

    2        -1.159848127699E+04     5.3444E-04     4.8339E-04    -2.2123E+01
MG BCs: +ve charge blocks (gridpoints):     31835 (   17686915).
MG BCs: -ve charge blocks (gridpoints):      8453 (    1117554).
MG BCs:     Elided blocks (gridpoints):    183386 (  191899076).
MG BCs: Computational effort saved:  99.9809%.
MG BCs: Charge after coarse-graining:           -9.0010318.
MG DL_MG: Calling solver with defect correction order = 8
MG DL_MG: Solver finished
MG Hartree energy from (\int phi*rho dr):              1440.096727
MG Hartree energy from (\int eps (grad phi)^2 dr):     1439.459016
MG Discrepancy due to finite box and discretization:     -0.637711 (  -0.04428%)
MG Correction to account for finite box:                  0.461889
MG Remaining discrepancy, due to discretization:         -0.175822 (  -0.01221%)
      ideal mu1:      -0.767204662694
             Q0:  -11601.565886323689
             G0:      -1.998610925331
   RMS gradient:       0.000214669413
MG BCs: +ve charge blocks (gridpoints):     31835 (   17686217).
MG BCs: -ve charge blocks (gridpoints):      8459 (    1118324).
MG BCs:     Elided blocks (gridpoints):    183386 (  191899004).
MG BCs: Computational effort saved:  99.9809%.
MG BCs: Charge after coarse-graining:           -9.0010315.
MG DL_MG: Calling solver with defect correction order = 8
MG DL_MG: Solver finished
MG Hartree energy from (\int phi*rho dr):              1437.814148
MG Hartree energy from (\int eps (grad phi)^2 dr):     1437.176999
MG Discrepancy due to finite box and discretization:     -0.637148 (  -0.04431%)
MG Correction to account for finite box:                  0.461543
MG Remaining discrepancy, due to discretization:         -0.175605 (  -0.01221%)
     Trial step:       0.435406481735
             Q1:  -11602.082230655593
 Quadratic coef:       0.353863819451
 Linear coef   :      -0.870208151354
           Qmin:  -11602.100881839660
Quadratic minimum step length (  0.535367348583) accepted
    Initial Ne1:    7233.99985365
      Final Ne1:    7234.00000000

=================== Penalty functional idempotency correction ==================
 RMS occupancy error at iteration   1:  0.000700 (step -0.4951 Ne1=   7234.0000)
 RMS occupancy error at iteration   2:  0.000008 (step -0.5005 Ne1=   7234.0000)
            Final RMS occupancy error   :  0.000000 (Ne1=   7234.0000)
               Final occupancy bounds   : [  0.0000,  1.0000]
================================================================================

    3        -1.160156588632E+04     2.1467E-04     1.9416E-04    -3.0846E+00
MG BCs: +ve charge blocks (gridpoints):     31837 (   17685942).
MG BCs: -ve charge blocks (gridpoints):      8460 (    1118587).
MG BCs:     Elided blocks (gridpoints):    183385 (  191899016).
MG BCs: Computational effort saved:  99.9809%.
MG BCs: Charge after coarse-graining:           -9.0010315.
MG DL_MG: Calling solver with defect correction order = 8
MG DL_MG: Solver finished
MG Hartree energy from (\int phi*rho dr):              1437.301068
MG Hartree energy from (\int eps (grad phi)^2 dr):     1436.664037
MG Discrepancy due to finite box and discretization:     -0.637031 (  -0.04432%)
MG Correction to account for finite box:                  0.461465
MG Remaining discrepancy, due to discretization:         -0.175566 (  -0.01221%)
      ideal mu1:      -0.767824234944
             Q0:  -11602.105966503383
             G0:      -0.560789953016
   RMS gradient:       0.000113857825
MG BCs: +ve charge blocks (gridpoints):     31833 (   17686938).
MG BCs: -ve charge blocks (gridpoints):      8456 (    1118329).
MG BCs:     Elided blocks (gridpoints):    183388 (  191898278).
MG BCs: Computational effort saved:  99.9809%.
MG BCs: Charge after coarse-graining:           -9.0010317.
MG DL_MG: Calling solver with defect correction order = 8
MG DL_MG: Solver finished
MG Hartree energy from (\int phi*rho dr):              1438.619887
MG Hartree energy from (\int eps (grad phi)^2 dr):     1437.982932
MG Discrepancy due to finite box and discretization:     -0.636955 (  -0.04428%)
MG Correction to account for finite box:                  0.461305
MG Remaining discrepancy, due to discretization:         -0.175650 (  -0.01221%)
     Trial step:       0.482806807825
             Q1:  -11602.251737249666
 Quadratic coef:       0.124982460793
 Linear coef   :      -0.270753207076
           Qmin:  -11602.252601676584
Quadratic minimum step length (  0.522959344804) accepted
    Initial Ne1:    7233.99988559
      Final Ne1:    7234.00000000

=================== Penalty functional idempotency correction ==================
 RMS occupancy error at iteration   1:  0.000416 (step -0.4873 Ne1=   7234.0000)
 RMS occupancy error at iteration   2:  0.000009 (step -0.5002 Ne1=   7234.0000)
            Final RMS occupancy error   :  0.000000 (Ne1=   7234.0000)
               Final occupancy bounds   : [  0.0000,  1.0000]
================================================================================

    4        -1.160210596650E+04     1.1386E-04     1.0298E-04    -5.4008E-01
MG BCs: +ve charge blocks (gridpoints):     31833 (   17686999).
MG BCs: -ve charge blocks (gridpoints):      8455 (    1118321).
MG BCs:     Elided blocks (gridpoints):    183388 (  191898225).
MG BCs: Computational effort saved:  99.9809%.
MG BCs: Charge after coarse-graining:           -9.0010318.
MG DL_MG: Calling solver with defect correction order = 8
MG DL_MG: Solver finished
MG Hartree energy from (\int phi*rho dr):              1438.730729
MG Hartree energy from (\int eps (grad phi)^2 dr):     1438.093779
MG Discrepancy due to finite box and discretization:     -0.636950 (  -0.04427%)
MG Correction to account for finite box:                  0.461292
MG Remaining discrepancy, due to discretization:         -0.175658 (  -0.01221%)
      ideal mu1:      -0.768457129317
             Q0:  -11602.253313042107
             G0:      -0.243978796969
   RMS gradient:       0.000075320966
MG BCs: +ve charge blocks (gridpoints):     31836 (   17687181).
MG BCs: -ve charge blocks (gridpoints):      8451 (    1118175).
MG BCs:     Elided blocks (gridpoints):    183385 (  191898189).
MG BCs: Computational effort saved:  99.9809%.
MG BCs: Charge after coarse-graining:           -9.0010317.
MG DL_MG: Calling solver with defect correction order = 8
MG DL_MG: Solver finished
MG Hartree energy from (\int phi*rho dr):              1439.190941
MG Hartree energy from (\int eps (grad phi)^2 dr):     1438.553936
MG Discrepancy due to finite box and discretization:     -0.637005 (  -0.04426%)
MG Correction to account for finite box:                  0.461186
MG Remaining discrepancy, due to discretization:         -0.175819 (  -0.01222%)
     Trial step:       0.502482170715
             Q1:  -11602.334362562397
 Quadratic coef:       0.041545475220
 Linear coef   :      -0.122594995509
           Qmin:  -11602.343753293688
Quadratic minimum step length (  0.741377961570) accepted
    Initial Ne1:    7233.99984440
      Final Ne1:    7234.00000000

=================== Penalty functional idempotency correction ==================
 RMS occupancy error at iteration   1:  0.000922 (step -0.4484 Ne1=   7234.0000)
 RMS occupancy error at iteration   2:  0.000033 (step -0.4998 Ne1=   7234.0000)
            Final RMS occupancy error   :  0.000000 (Ne1=   7234.0000)
               Final occupancy bounds   : [ -0.0000,  1.0000]
================================================================================

    5        -1.160225331304E+04     7.5321E-05     6.8126E-05    -1.4735E-01
MG BCs: +ve charge blocks (gridpoints):     31836 (   17687254).
MG BCs: -ve charge blocks (gridpoints):      8451 (    1118113).
MG BCs:     Elided blocks (gridpoints):    183385 (  191898178).
MG BCs: Computational effort saved:  99.9809%.
MG BCs: Charge after coarse-graining:           -9.0010317.
MG DL_MG: Calling solver with defect correction order = 8
MG DL_MG: Solver finished
MG Hartree energy from (\int phi*rho dr):              1439.411334
MG Hartree energy from (\int eps (grad phi)^2 dr):     1438.774303
MG Discrepancy due to finite box and discretization:     -0.637031 (  -0.04426%)
MG Correction to account for finite box:                  0.461135
MG Remaining discrepancy, due to discretization:         -0.175897 (  -0.01222%)
      ideal mu1:      -0.768139468162
             Q0:  -11602.342194032855
             G0:      -0.235359742718
   RMS gradient:       0.000074790647
MG BCs: +ve charge blocks (gridpoints):     31842 (   17686384).
MG BCs: -ve charge blocks (gridpoints):      8455 (    1118697).
MG BCs:     Elided blocks (gridpoints):    183379 (  191898464).
MG BCs: Computational effort saved:  99.9809%.
MG BCs: Charge after coarse-graining:           -9.0010314.
MG DL_MG: Calling solver with defect correction order = 8
MG DL_MG: Solver finished
MG Hartree energy from (\int phi*rho dr):              1437.770962
MG Hartree energy from (\int eps (grad phi)^2 dr):     1437.134114
MG Discrepancy due to finite box and discretization:     -0.636847 (  -0.04429%)
MG Correction to account for finite box:                  0.460987
MG Remaining discrepancy, due to discretization:         -0.175860 (  -0.01223%)
     Trial step:       0.610351707993
             Q1:  -11602.436733633978
 Quadratic coef:       0.049112619838
 Linear coef   :      -0.143652220961
           Qmin:  -11602.447238116511
Quadratic minimum step length (  0.892625751899) accepted
    Initial Ne1:    7233.99994925
      Final Ne1:    7234.00000000

=================== Penalty functional idempotency correction ==================
 RMS occupancy error at iteration   1:  0.003800 (step -0.3354 Ne1=   7234.0000)
 RMS occupancy error at iteration   2:  0.000280 (step -0.4902 Ne1=   7234.0000)
 RMS occupancy error at iteration   3:  0.000006 (step -0.5003 Ne1=   7234.0000)
            Final RMS occupancy error   :  0.000000 (Ne1=   7234.0000)
               Final occupancy bounds   : [  0.0000,  1.0000]
================================================================================

    6        -1.160234219403E+04     7.4791E-05     6.7646E-05    -8.8881E-02
MG BCs: +ve charge blocks (gridpoints):     31845 (   17685985).
MG BCs: -ve charge blocks (gridpoints):      8457 (    1118921).
MG BCs:     Elided blocks (gridpoints):    183376 (  191898639).
MG BCs: Computational effort saved:  99.9809%.
MG BCs: Charge after coarse-graining:           -9.0010313.
MG DL_MG: Calling solver with defect correction order = 8
MG DL_MG: Solver finished
MG Hartree energy from (\int phi*rho dr):              1437.034743
MG Hartree energy from (\int eps (grad phi)^2 dr):     1436.397945
MG Discrepancy due to finite box and discretization:     -0.636798 (  -0.04431%)
MG Correction to account for finite box:                  0.460953
MG Remaining discrepancy, due to discretization:         -0.175846 (  -0.01224%)
      ideal mu1:      -0.767973613579
             Q0:  -11602.444768577116
             G0:      -0.261835883456
   RMS gradient:       0.000078205566
MG BCs: +ve charge blocks (gridpoints):     31839 (   17687540).
MG BCs: -ve charge blocks (gridpoints):      8455 (    1117985).
MG BCs:     Elided blocks (gridpoints):    183382 (  191898020).
MG BCs: Computational effort saved:  99.9809%.
MG BCs: Charge after coarse-graining:           -9.0010319.
MG DL_MG: Calling solver with defect correction order = 8
MG DL_MG: Solver finished
MG Hartree energy from (\int phi*rho dr):              1439.135452
MG Hartree energy from (\int eps (grad phi)^2 dr):     1438.498902
MG Discrepancy due to finite box and discretization:     -0.636550 (  -0.04423%)
MG Correction to account for finite box:                  0.460892
MG Remaining discrepancy, due to discretization:         -0.175658 (  -0.01221%)
     Trial step:       0.738116286415
             Q1:  -11602.536185033503
 Quadratic coef:       0.101848873559
 Linear coef   :      -0.193265329946
           Qmin:  -11602.536452182574
Quadratic minimum step length (  0.700313526541) accepted
    Initial Ne1:    7233.99996525
      Final Ne1:    7234.00000000

=================== Penalty functional idempotency correction ==================
 RMS occupancy error at iteration   1:  0.000215 (step -0.4865 Ne1=   7234.0000)
 RMS occupancy error at iteration   2:  0.000001 (step -0.5000 Ne1=   7234.0000)
            Final RMS occupancy error   :  0.000000 (Ne1=   7234.0000)
               Final occupancy bounds   : [  0.0000,  1.0000]
================================================================================

    7        -1.160244476858E+04     7.8206E-05     7.0735E-05    -1.0257E-01
MG BCs: +ve charge blocks (gridpoints):     31839 (   17687469).
MG BCs: -ve charge blocks (gridpoints):      8455 (    1118033).
MG BCs:     Elided blocks (gridpoints):    183382 (  191898043).
MG BCs: Computational effort saved:  99.9809%.
MG BCs: Charge after coarse-graining:           -9.0010319.
MG DL_MG: Calling solver with defect correction order = 8
MG DL_MG: Solver finished
MG Hartree energy from (\int phi*rho dr):              1439.027648
MG Hartree energy from (\int eps (grad phi)^2 dr):     1438.391085
MG Discrepancy due to finite box and discretization:     -0.636563 (  -0.04424%)
MG Correction to account for finite box:                  0.460895
MG Remaining discrepancy, due to discretization:         -0.175668 (  -0.01221%)
      ideal mu1:      -0.769222999418
             Q0:  -11602.536477320944
             G0:      -0.224006739747
   RMS gradient:       0.000072366825
MG BCs: +ve charge blocks (gridpoints):     31838 (   17687297).
MG BCs: -ve charge blocks (gridpoints):      8458 (    1117975).
MG BCs:     Elided blocks (gridpoints):    183384 (  191898273).
MG BCs: Computational effort saved:  99.9809%.
MG BCs: Charge after coarse-graining:           -9.0010318.
MG DL_MG: Calling solver with defect correction order = 8
MG DL_MG: Solver finished
MG Hartree energy from (\int phi*rho dr):              1438.848715
MG Hartree energy from (\int eps (grad phi)^2 dr):     1438.212288
MG Discrepancy due to finite box and discretization:     -0.636428 (  -0.04423%)
MG Correction to account for finite box:                  0.460898
MG Remaining discrepancy, due to discretization:         -0.175529 (  -0.01220%)
     Trial step:       0.718966494029
             Q1:  -11602.630020271987
 Quadratic coef:       0.067510389272
 Linear coef   :      -0.161053340315
           Qmin:  -11602.632529864510
Quadratic minimum step length (  0.857586192931) accepted
    Initial Ne1:    7233.99996319
      Final Ne1:    7234.00000000

=================== Penalty functional idempotency correction ==================
 RMS occupancy error at iteration   1:  0.001570 (step -0.4167 Ne1=   7234.0000)
 RMS occupancy error at iteration   2:  0.000053 (step -0.4983 Ne1=   7234.0000)
 RMS occupancy error at iteration   3:  0.000000 (step -0.5000 Ne1=   7234.0000)
            Final RMS occupancy error   :  0.000000 (Ne1=   7234.0000)
               Final occupancy bounds   : [  0.0000,  1.0000]
================================================================================

    8        -1.160253647732E+04     7.2367E-05     6.5454E-05    -9.1709E-02
MG BCs: +ve charge blocks (gridpoints):     31837 (   17687227).
MG BCs: -ve charge blocks (gridpoints):      8458 (    1118002).
MG BCs:     Elided blocks (gridpoints):    183385 (  191898316).
MG BCs: Computational effort saved:  99.9809%.
MG BCs: Charge after coarse-graining:           -9.0010318.
MG DL_MG: Calling solver with defect correction order = 8
MG DL_MG: Solver finished
MG Hartree energy from (\int phi*rho dr):              1438.819106
MG Hartree energy from (\int eps (grad phi)^2 dr):     1438.182703
MG Discrepancy due to finite box and discretization:     -0.636403 (  -0.04423%)
MG Correction to account for finite box:                  0.460899
MG Remaining discrepancy, due to discretization:         -0.175504 (  -0.01220%)
      ideal mu1:      -0.768981456489
             Q0:  -11602.631422545528
             G0:      -0.224148759060
   RMS gradient:       0.000072369439
MG BCs: +ve charge blocks (gridpoints):     31835 (   17686463).
MG BCs: -ve charge blocks (gridpoints):      8460 (    1118515).
MG BCs:     Elided blocks (gridpoints):    183386 (  191898567).
MG BCs: Computational effort saved:  99.9809%.
MG BCs: Charge after coarse-graining:           -9.0010316.
MG DL_MG: Calling solver with defect correction order = 8
MG DL_MG: Solver finished
MG Hartree energy from (\int phi*rho dr):              1437.634190
MG Hartree energy from (\int eps (grad phi)^2 dr):     1436.997712
MG Discrepancy due to finite box and discretization:     -0.636478 (  -0.04427%)
MG Correction to account for finite box:                  0.461020
MG Remaining discrepancy, due to discretization:         -0.175458 (  -0.01220%)
     Trial step:       0.785223368513
             Q1:  -11602.704176649218
 Quadratic coef:       0.103252739946
 Linear coef   :      -0.176006843637
           Qmin:  -11602.706428809341
Quadratic minimum step length (  0.669254330271) accepted
    Initial Ne1:    7233.99997127
      Final Ne1:    7234.00000000

=================== Penalty functional idempotency correction ==================
 RMS occupancy error at iteration   1:  0.003260 (step -0.3570 Ne1=   7234.0000)
 RMS occupancy error at iteration   2:  0.000154 (step -0.4954 Ne1=   7234.0000)
 RMS occupancy error at iteration   3:  0.000002 (step -0.5000 Ne1=   7234.0000)
            Final RMS occupancy error   :  0.000000 (Ne1=   7234.0000)
               Final occupancy bounds   : [ -0.0000,  1.0000]
================================================================================

    9        -1.160263142255E+04     7.2369E-05     6.5457E-05    -9.4945E-02
MG BCs: +ve charge blocks (gridpoints):     31836 (   17686564).
MG BCs: -ve charge blocks (gridpoints):      8459 (    1118452).
MG BCs:     Elided blocks (gridpoints):    183385 (  191898529).
MG BCs: Computational effort saved:  99.9809%.
MG BCs: Charge after coarse-graining:           -9.0010316.
MG DL_MG: Calling solver with defect correction order = 8
MG DL_MG: Solver finished
MG Hartree energy from (\int phi*rho dr):              1437.802241
MG Hartree energy from (\int eps (grad phi)^2 dr):     1437.165798
MG Discrepancy due to finite box and discretization:     -0.636443 (  -0.04426%)
MG Correction to account for finite box:                  0.460984
MG Remaining discrepancy, due to discretization:         -0.175458 (  -0.01220%)
      ideal mu1:      -0.767936803541
   10        -1.160271390592E+04     5.8492E-05     5.2905E-05    -8.2483E-02
Finished density kernel iterations (  10)

Writing density kernel to file "complex_33161.vacuum_dkn" ... done


>>> Density kernel optimised for the current NGWF basis:
     ~~~~~~~~~~~~~~~~~~~~~~~~~~~~~~~~~~~~~~~~~~~~~~~~~~~~~~~~~~~
     Total energy                =  -1.16027139059192E+04  Eh
     Estimated bandgap           =  -4.1627E-01  Eh
     RMS occupancy error         =   6.3392E-10
     [H,K] commutator            =   5.2905E-05
     Occupancy bounds            = [  0.000:  1.000]
     ~~~~~~~~~~~~~~~~~~~~~~~~~~~~~~~~~~~~~~~~~~~~~~~~~~~~~~~~~~~




################################################################################
########################### NGWF CG iteration  001 #############################
################################################################################
****** Reciprocal space K.E. preconditioning with k_zero =  3.5000 a0^-1 *******

>>> Checking for convergence of NGWFs:   NOT CONVERGED
  ========================================================================
         NGWF RMS gradient =  1.5638E-03 >  2.0000E-06  | above tolerance
  ========================================================================

>>> Improving NGWFs using line search:
============ Calculation of NGWF S^-1 using Hotelling algorithm ================ 
         Iteration  |  Frobenius norm and Maximum abs value    (of I-S*S_n^-1)   
               1       0.19336606E+00     0.54494442E-02
               2       0.86902419E-03     0.40918582E-04
               3       0.30113022E-07     0.22861726E-08
               4       0.12695871E-12     0.57731597E-14
================================================================================
MG BCs: +ve charge blocks (gridpoints):     31349 (   17626044).
MG BCs: -ve charge blocks (gridpoints):      8476 (    1118389).
MG BCs:     Elided blocks (gridpoints):    183877 (  191959112).
MG BCs: Computational effort saved:  99.9811%.
MG BCs: Charge after coarse-graining:           -9.0010342.
MG DL_MG: Calling solver with defect correction order = 8
MG DL_MG: Solver finished
MG Hartree energy from (\int phi*rho dr):              1406.298517
MG Hartree energy from (\int eps (grad phi)^2 dr):     1405.662849
MG Discrepancy due to finite box and discretization:     -0.635669 (  -0.04520%)
MG Correction to account for finite box:                  0.460912
MG Remaining discrepancy, due to discretization:         -0.174757 (  -0.01243%)
============ Calculation of NGWF S^-1 using Hotelling algorithm ================ 
         Iteration  |  Frobenius norm and Maximum abs value    (of I-S*S_n^-1)   
               1       0.18607753E+01     0.45460329E-01
               2       0.71980044E-01     0.25960729E-02
               3       0.14700191E-03     0.87753309E-05
               4       0.11210589E-08     0.10442386E-09
               5       0.10958322E-12     0.57731597E-14
================================================================================
------------------------------- NGWF line search -------------------------------
RMS gradient                =       0.00156376020326
Trial step length           =               0.122474
Gradient along search dir.  =       -271.73910062576
Functional at step 0        =  -11602.71390591922682
Functional at step 1        =  -11633.50250798452180
Functional predicted        =  -11713.81018435254555
Selected quadratic step     =               0.817669
--------------------------- NGWF line search finished --------------------------
                                               
Writing NGWFs to file "complex_33161.vacuum_tightbox_ngwfs"....  done

>>> Optimising kernel for current NGWFs:
   Initial electron number for spin 1:    7268.61383503
     Final electron number for spin 1:    7234.00000000

=================== Penalty functional idempotency correction ==================
 RMS occupancy error at iteration   1:  0.004252 (step -0.4863 Ne1=   7234.0000)
 RMS occupancy error at iteration   2:  0.000069 (step -0.5002 Ne1=   7234.0000)
            Final RMS occupancy error   :  0.000000 (Ne1=   7234.0000)
               Final occupancy bounds   : [  0.0000,  1.0000]
================================================================================

................................................................................
<<<<<<<<<<<<<< LNV (Original version) density kernel optimisation >>>>>>>>>>>>>>
~~~~~~~~~~~~~~~~~~~~~~~~~~~~~~~~~~~~~~~~~~~~~~~~~~~~~~~~~~~~~~~~~~~~~~~~~~~~~~~~
   iter  |      energy (Eh)       | rms gradient |  commutator  |   dE (Eh)
MG BCs: +ve charge blocks (gridpoints):     25223 (   17348621).
MG BCs: -ve charge blocks (gridpoints):      8631 (    1101949).
MG BCs:     Elided blocks (gridpoints):    190009 (  192252975).
MG BCs: Computational effort saved:  99.9839%.
MG BCs: Charge after coarse-graining:           -9.0006818.
MG DL_MG: Calling solver with defect correction order = 8
MG DL_MG: Solver finished
MG Hartree energy from (\int phi*rho dr):              1250.028113
MG Hartree energy from (\int eps (grad phi)^2 dr):     1249.392407
MG Discrepancy due to finite box and discretization:     -0.635706 (  -0.05086%)
MG Correction to account for finite box:                  0.460567
MG Remaining discrepancy, due to discretization:         -0.175139 (  -0.01401%)
      ideal mu1:      -0.708436010278
             Q0:  -11712.991175896954
             G0:     -10.031440879008
   RMS gradient:       0.000484066177
MG BCs: +ve charge blocks (gridpoints):     25295 (   17362548).
MG BCs: -ve charge blocks (gridpoints):      8609 (    1098714).
MG BCs:     Elided blocks (gridpoints):    189937 (  192242283).
MG BCs: Computational effort saved:  99.9839%.
MG BCs: Charge after coarse-graining:           -9.0006780.
MG DL_MG: Calling solver with defect correction order = 8
MG DL_MG: Solver finished
MG Hartree energy from (\int phi*rho dr):              1265.955441
MG Hartree energy from (\int eps (grad phi)^2 dr):     1265.314747
MG Discrepancy due to finite box and discretization:     -0.640694 (  -0.05061%)
MG Correction to account for finite box:                  0.459668
MG Remaining discrepancy, due to discretization:         -0.181026 (  -0.01430%)
     Trial step:       0.724923540525
             Q1:  -11712.308330362546
 Quadratic coef:       7.954873172986
 Linear coef   :      -7.272027638578
           Qmin:  -11714.653125271452
Quadratic minimum step length (  0.331348087387) accepted
    Initial Ne1:    7233.99961641
      Final Ne1:    7234.00000000

=================== Penalty functional idempotency correction ==================
 RMS occupancy error at iteration   1:  0.000362 (step -0.4986 Ne1=   7234.0000)
 RMS occupancy error at iteration   2:  0.000000 (step -0.5000 Ne1=   7234.0000)
            Final RMS occupancy error   :  0.000000 (Ne1=   7234.0000)
               Final occupancy bounds   : [  0.0000,  1.0000]
================================================================================

    1        -1.171299117590E+04     4.8407E-04     4.3783E-04
MG BCs: +ve charge blocks (gridpoints):     25259 (   17355189).
MG BCs: -ve charge blocks (gridpoints):      8619 (    1100479).
MG BCs:     Elided blocks (gridpoints):    189973 (  192247877).
MG BCs: Computational effort saved:  99.9839%.
MG BCs: Charge after coarse-graining:           -9.0006799.
MG DL_MG: Calling solver with defect correction order = 8
MG DL_MG: Solver finished
MG Hartree energy from (\int phi*rho dr):              1256.348708
MG Hartree energy from (\int eps (grad phi)^2 dr):     1255.710824
MG Discrepancy due to finite box and discretization:     -0.637884 (  -0.05077%)
MG Correction to account for finite box:                  0.460129
MG Remaining discrepancy, due to discretization:         -0.177756 (  -0.01415%)
      ideal mu1:      -0.714624023808
             Q0:  -11714.626894687302
             G0:      -1.019354881082
   RMS gradient:       0.000154977975
MG BCs: +ve charge blocks (gridpoints):     25262 (   17354663).
MG BCs: -ve charge blocks (gridpoints):      8624 (    1101266).
MG BCs:     Elided blocks (gridpoints):    189970 (  192247616).
MG BCs: Computational effort saved:  99.9839%.
MG BCs: Charge after coarse-graining:           -9.0006800.
MG DL_MG: Calling solver with defect correction order = 8
MG DL_MG: Solver finished
MG Hartree energy from (\int phi*rho dr):              1257.411276
MG Hartree energy from (\int eps (grad phi)^2 dr):     1256.773119
MG Discrepancy due to finite box and discretization:     -0.638156 (  -0.05075%)
MG Correction to account for finite box:                  0.460020
MG Remaining discrepancy, due to discretization:         -0.178136 (  -0.01417%)
     Trial step:       0.490104099814
             Q1:  -11714.838931843988
 Quadratic coef:       0.287552849699
 Linear coef   :      -0.499590006384
           Qmin:  -11714.843889732509
Quadratic minimum step length (  0.425749754544) accepted
    Initial Ne1:    7233.99994947
      Final Ne1:    7234.00000000

=================== Penalty functional idempotency correction ==================
 RMS occupancy error at iteration   1:  0.000151 (step -0.4992 Ne1=   7234.0000)
 RMS occupancy error at iteration   2:  0.000000 (step -0.5000 Ne1=   7234.0000)
            Final RMS occupancy error   :  0.000000 (Ne1=   7234.0000)
               Final occupancy bounds   : [  0.0000,  1.0000]
================================================================================

    2        -1.171462689469E+04     1.5498E-04     1.4017E-04    -1.6357E+00
MG BCs: +ve charge blocks (gridpoints):     25261 (   17354734).
MG BCs: -ve charge blocks (gridpoints):      8624 (    1101147).
MG BCs:     Elided blocks (gridpoints):    189971 (  192247664).
MG BCs: Computational effort saved:  99.9839%.
MG BCs: Charge after coarse-graining:           -9.0006800.
MG DL_MG: Calling solver with defect correction order = 8
MG DL_MG: Solver finished
MG Hartree energy from (\int phi*rho dr):              1257.271482
MG Hartree energy from (\int eps (grad phi)^2 dr):     1256.633363
MG Discrepancy due to finite box and discretization:     -0.638119 (  -0.05075%)
MG Correction to account for finite box:                  0.460034
MG Remaining discrepancy, due to discretization:         -0.178085 (  -0.01416%)
      ideal mu1:      -0.715425419973
             Q0:  -11714.844363213517
             G0:      -0.169725901722
   RMS gradient:       0.000062896952
MG BCs: +ve charge blocks (gridpoints):     25261 (   17354114).
MG BCs: -ve charge blocks (gridpoints):      8626 (    1101531).
MG BCs:     Elided blocks (gridpoints):    189971 (  192247900).
MG BCs: Computational effort saved:  99.9839%.
MG BCs: Charge after coarse-graining:           -9.0006800.
MG DL_MG: Calling solver with defect correction order = 8
MG DL_MG: Solver finished
MG Hartree energy from (\int phi*rho dr):              1256.789869
MG Hartree energy from (\int eps (grad phi)^2 dr):     1256.151854
MG Discrepancy due to finite box and discretization:     -0.638015 (  -0.05077%)
MG Correction to account for finite box:                  0.459942
MG Remaining discrepancy, due to discretization:         -0.178073 (  -0.01417%)
     Trial step:       0.456795030837
             Q1:  -11714.898318880820
 Quadratic coef:       0.023574281207
 Linear coef   :      -0.077529948511
           Qmin:  -11714.908107393701
Quadratic minimum step length (  0.751142631015) accepted
    Initial Ne1:    7233.99998531
      Final Ne1:    7234.00000000

=================== Penalty functional idempotency correction ==================
 RMS occupancy error at iteration   1:  0.000167 (step -0.4931 Ne1=   7234.0000)
 RMS occupancy error at iteration   2:  0.000001 (step -0.5000 Ne1=   7234.0000)
            Final RMS occupancy error   :  0.000000 (Ne1=   7234.0000)
               Final occupancy bounds   : [  0.0000,  1.0000]
================================================================================

    3        -1.171484436321E+04     6.2897E-05     5.6889E-05    -2.1747E-01
MG BCs: +ve charge blocks (gridpoints):     25261 (   17353683).
MG BCs: -ve charge blocks (gridpoints):      8626 (    1101832).
MG BCs:     Elided blocks (gridpoints):    189971 (  192248030).
MG BCs: Computational effort saved:  99.9839%.
MG BCs: Charge after coarse-graining:           -9.0006800.
MG DL_MG: Calling solver with defect correction order = 8
MG DL_MG: Solver finished
MG Hartree energy from (\int phi*rho dr):              1256.479665
MG Hartree energy from (\int eps (grad phi)^2 dr):     1255.841718
MG Discrepancy due to finite box and discretization:     -0.637946 (  -0.05077%)
MG Correction to account for finite box:                  0.459880
MG Remaining discrepancy, due to discretization:         -0.178066 (  -0.01417%)
      ideal mu1:      -0.714504220834
             Q0:  -11714.908147542505
             G0:      -0.072999305248
   RMS gradient:       0.000041262624
MG BCs: +ve charge blocks (gridpoints):     25262 (   17353496).
MG BCs: -ve charge blocks (gridpoints):      8626 (    1101891).
MG BCs:     Elided blocks (gridpoints):    189970 (  192248158).
MG BCs: Computational effort saved:  99.9839%.
MG BCs: Charge after coarse-graining:           -9.0006801.
MG DL_MG: Calling solver with defect correction order = 8
MG DL_MG: Solver finished
MG Hartree energy from (\int phi*rho dr):              1256.485918
MG Hartree energy from (\int eps (grad phi)^2 dr):     1255.848211
MG Discrepancy due to finite box and discretization:     -0.637707 (  -0.05075%)
MG Correction to account for finite box:                  0.459770
MG Remaining discrepancy, due to discretization:         -0.177937 (  -0.01416%)
     Trial step:       0.585762939504
             Q1:  -11714.935320708319
 Quadratic coef:       0.015587121810
 Linear coef   :      -0.042760287624
           Qmin:  -11714.937473710284
Quadratic minimum step length (  0.803464298197) accepted
    Initial Ne1:    7233.99999302
      Final Ne1:    7234.00000000

=================== Penalty functional idempotency correction ==================
 RMS occupancy error at iteration   1:  0.000340 (step -0.4806 Ne1=   7234.0000)
 RMS occupancy error at iteration   2:  0.000003 (step -0.5000 Ne1=   7234.0000)
            Final RMS occupancy error   :  0.000000 (Ne1=   7234.0000)
               Final occupancy bounds   : [  0.0000,  1.0000]
================================================================================

    4        -1.171490814754E+04     4.1263E-05     3.7321E-05    -6.3784E-02
MG BCs: +ve charge blocks (gridpoints):     25262 (   17353476).
MG BCs: -ve charge blocks (gridpoints):      8625 (    1101885).
MG BCs:     Elided blocks (gridpoints):    189970 (  192248184).
MG BCs: Computational effort saved:  99.9839%.
MG BCs: Charge after coarse-graining:           -9.0006801.
MG DL_MG: Calling solver with defect correction order = 8
MG DL_MG: Solver finished
MG Hartree energy from (\int phi*rho dr):              1256.489921
MG Hartree energy from (\int eps (grad phi)^2 dr):     1255.852305
MG Discrepancy due to finite box and discretization:     -0.637615 (  -0.05075%)
MG Correction to account for finite box:                  0.459726
MG Remaining discrepancy, due to discretization:         -0.177889 (  -0.01416%)
      ideal mu1:      -0.714664486646
             Q0:  -11714.937334522023
             G0:      -0.078024924529
   RMS gradient:       0.000042755580
MG BCs: +ve charge blocks (gridpoints):     25260 (   17355140).
MG BCs: -ve charge blocks (gridpoints):      8622 (    1101242).
MG BCs:     Elided blocks (gridpoints):    189972 (  192247163).
MG BCs: Computational effort saved:  99.9839%.
MG BCs: Charge after coarse-graining:           -9.0006798.
MG DL_MG: Calling solver with defect correction order = 8
MG DL_MG: Solver finished
MG Hartree energy from (\int phi*rho dr):              1257.446041
MG Hartree energy from (\int eps (grad phi)^2 dr):     1256.808823
MG Discrepancy due to finite box and discretization:     -0.637218 (  -0.05068%)
MG Correction to account for finite box:                  0.459416
MG Remaining discrepancy, due to discretization:         -0.177802 (  -0.01414%)
     Trial step:       0.686031784321
             Q1:  -11714.970542852068
 Quadratic coef:       0.020319248151
 Linear coef   :      -0.053527578196
           Qmin:  -11714.972586830649
Quadratic minimum step length (  0.903616603011) accepted
    Initial Ne1:    7233.99999038
      Final Ne1:    7234.00000000

=================== Penalty functional idempotency correction ==================
 RMS occupancy error at iteration   1:  0.001405 (step -0.4253 Ne1=   7234.0000)
 RMS occupancy error at iteration   2:  0.000037 (step -0.4990 Ne1=   7234.0000)
            Final RMS occupancy error   :  0.000000 (Ne1=   7234.0000)
               Final occupancy bounds   : [ -0.0000,  1.0000]
================================================================================

    5        -1.171493733452E+04     4.2756E-05     3.8672E-05    -2.9187E-02
MG BCs: +ve charge blocks (gridpoints):     25260 (   17355677).
MG BCs: -ve charge blocks (gridpoints):      8620 (    1101071).
MG BCs:     Elided blocks (gridpoints):    189972 (  192246797).
MG BCs: Computational effort saved:  99.9839%.
MG BCs: Charge after coarse-graining:           -9.0006796.
MG DL_MG: Calling solver with defect correction order = 8
MG DL_MG: Solver finished
MG Hartree energy from (\int phi*rho dr):              1257.752584
MG Hartree energy from (\int eps (grad phi)^2 dr):     1257.115481
MG Discrepancy due to finite box and discretization:     -0.637103 (  -0.05065%)
MG Correction to account for finite box:                  0.459328
MG Remaining discrepancy, due to discretization:         -0.177775 (  -0.01413%)
      ideal mu1:      -0.716134529738
             Q0:  -11714.971989544458
             G0:      -0.082870515221
   RMS gradient:       0.000043797434
MG BCs: +ve charge blocks (gridpoints):     25261 (   17355678).
MG BCs: -ve charge blocks (gridpoints):      8619 (    1101135).
MG BCs:     Elided blocks (gridpoints):    189971 (  192246732).
MG BCs: Computational effort saved:  99.9839%.
MG BCs: Charge after coarse-graining:           -9.0006797.
MG DL_MG: Calling solver with defect correction order = 8
MG DL_MG: Solver finished
MG Hartree energy from (\int phi*rho dr):              1257.518423
MG Hartree energy from (\int eps (grad phi)^2 dr):     1256.881804
MG Discrepancy due to finite box and discretization:     -0.636620 (  -0.05063%)
MG Correction to account for finite box:                  0.458826
MG Remaining discrepancy, due to discretization:         -0.177794 (  -0.01414%)
     Trial step:       0.787343451427
             Q1:  -11715.008296822198
 Quadratic coef:       0.028940279735
 Linear coef   :      -0.065247557476
           Qmin:  -11715.008765655431
Quadratic minimum step length (  0.887555987196) accepted
    Initial Ne1:    7234.00062811
      Final Ne1:    7234.00000000

=================== Penalty functional idempotency correction ==================
 RMS occupancy error at iteration   1:  0.003313 (step -0.3530 Ne1=   7234.0000)
 RMS occupancy error at iteration   2:  0.000173 (step -0.4930 Ne1=   7234.0000)
 RMS occupancy error at iteration   3:  0.000003 (step -0.5000 Ne1=   7234.0000)
            Final RMS occupancy error   :  0.000000 (Ne1=   7234.0000)
               Final occupancy bounds   : [  0.0000,  1.0000]
================================================================================

    6        -1.171497198954E+04     4.3797E-05     3.9614E-05    -3.4655E-02
MG BCs: +ve charge blocks (gridpoints):     25261 (   17355665).
MG BCs: -ve charge blocks (gridpoints):      8619 (    1101155).
MG BCs:     Elided blocks (gridpoints):    189971 (  192246725).
MG BCs: Computational effort saved:  99.9839%.
MG BCs: Charge after coarse-graining:           -9.0006797.
MG DL_MG: Calling solver with defect correction order = 8
MG DL_MG: Solver finished
MG Hartree energy from (\int phi*rho dr):              1257.489620
MG Hartree energy from (\int eps (grad phi)^2 dr):     1256.853020
MG Discrepancy due to finite box and discretization:     -0.636600 (  -0.05062%)
MG Correction to account for finite box:                  0.458804
MG Remaining discrepancy, due to discretization:         -0.177796 (  -0.01414%)
      ideal mu1:      -0.715953851732
             Q0:  -11715.010564340511
             G0:      -0.068030319359
   RMS gradient:       0.000039863400
MG BCs: +ve charge blocks (gridpoints):     25259 (   17353272).
MG BCs: -ve charge blocks (gridpoints):      8620 (    1101822).
MG BCs:     Elided blocks (gridpoints):    189973 (  192248451).
MG BCs: Computational effort saved:  99.9839%.
MG BCs: Charge after coarse-graining:           -9.0006802.
MG DL_MG: Calling solver with defect correction order = 8
MG DL_MG: Solver finished
MG Hartree energy from (\int phi*rho dr):              1256.384484
MG Hartree energy from (\int eps (grad phi)^2 dr):     1255.747876
MG Discrepancy due to finite box and discretization:     -0.636608 (  -0.05067%)
MG Correction to account for finite box:                  0.458738
MG Remaining discrepancy, due to discretization:         -0.177870 (  -0.01416%)
     Trial step:       0.835949396970
             Q1:  -11715.033065496827
 Quadratic coef:       0.034368748127
 Linear coef   :      -0.056869904444
           Qmin:  -11715.034089972136
Quadratic minimum step length (  0.691621966411) accepted
    Initial Ne1:    7233.99999874
      Final Ne1:    7234.00000000

=================== Penalty functional idempotency correction ==================
 RMS occupancy error at iteration   1:  0.000044 (step -0.4974 Ne1=   7234.0000)
            Final RMS occupancy error   :  0.000000 (Ne1=   7234.0000)
               Final occupancy bounds   : [ -0.0000,  1.0000]
================================================================================

    7        -1.171501056434E+04     3.9863E-05     3.6056E-05    -3.8575E-02
MG BCs: +ve charge blocks (gridpoints):     25260 (   17353704).
MG BCs: -ve charge blocks (gridpoints):      8619 (    1101698).
MG BCs:     Elided blocks (gridpoints):    189972 (  192248143).
MG BCs: Computational effort saved:  99.9839%.
MG BCs: Charge after coarse-graining:           -9.0006801.
MG DL_MG: Calling solver with defect correction order = 8
MG DL_MG: Solver finished
MG Hartree energy from (\int phi*rho dr):              1256.574180
MG Hartree energy from (\int eps (grad phi)^2 dr):     1255.937573
MG Discrepancy due to finite box and discretization:     -0.636607 (  -0.05066%)
MG Correction to account for finite box:                  0.458750
MG Remaining discrepancy, due to discretization:         -0.177857 (  -0.01415%)
      ideal mu1:      -0.715102067889
             Q0:  -11715.034099413897
             G0:      -0.056728401088
   RMS gradient:       0.000036399814
MG BCs: +ve charge blocks (gridpoints):     25260 (   17353838).
MG BCs: -ve charge blocks (gridpoints):      8622 (    1101651).
MG BCs:     Elided blocks (gridpoints):    189972 (  192248056).
MG BCs: Computational effort saved:  99.9839%.
MG BCs: Charge after coarse-graining:           -9.0006800.
MG DL_MG: Calling solver with defect correction order = 8
MG DL_MG: Solver finished
MG Hartree energy from (\int phi*rho dr):              1256.461358
MG Hartree energy from (\int eps (grad phi)^2 dr):     1255.824836
MG Discrepancy due to finite box and discretization:     -0.636522 (  -0.05066%)
[...]
MG Correction to account for finite box:                  0.006177
MG Remaining discrepancy, due to discretization:         -0.177161 (  -0.01458%)
     Trial step:       0.371912403873
             Q1:  -11749.582558583817
 Quadratic coef:       0.000000001557
 Linear coef   :      -0.000000001557
           Qmin:  -11749.582558584207
Quadratic minimum step length (  0.185979485175) accepted
    Initial Ne1:    7234.00000000
      Final Ne1:    7234.00000000

=================== Penalty functional idempotency correction ==================
 RMS occupancy error at iteration   1:  0.000000 (step -0.5000 Ne1=   7234.0000)
            Final RMS occupancy error   :  0.000000 (Ne1=   7234.0000)
               Final occupancy bounds   : [  0.0000,  1.0000]
================================================================================

    7        -1.174958255858E+04     9.8897E-09     8.9450E-09    -9.3132E-10

Reusing previously generated solute cavity.
MG BCs: +ve charge blocks (gridpoints):     29434 (   19612685).
MG BCs: -ve charge blocks (gridpoints):      8597 (    1069715).
MG BCs:     Elided blocks (gridpoints):    185798 (  190021145).
MG BCs: Computational effort saved:  99.9820%.
MG BCs: Charge after coarse-graining:           -9.0009919.
MG DL_MG: Calling solver with defect correction order = 8
MG DL_MG: Solver finished
MG Hartree energy from (\int phi*rho dr):              1214.915014
MG Hartree energy from (\int eps (grad phi)^2 dr):     1214.731675
MG Discrepancy due to finite box and discretization:     -0.183339 (  -0.01509%)
MG Correction to account for finite box:                  0.006177
MG Remaining discrepancy, due to discretization:         -0.177161 (  -0.01458%)
      ideal mu1:      -0.481019477415
             Q0:  -11749.582558583934
             G0:      -0.000000003203
   RMS gradient:       0.000000006746

Reusing previously generated solute cavity.
MG BCs: +ve charge blocks (gridpoints):     29434 (   19612685).
MG BCs: -ve charge blocks (gridpoints):      8597 (    1069715).
MG BCs:     Elided blocks (gridpoints):    185798 (  190021145).
MG BCs: Computational effort saved:  99.9820%.
MG BCs: Charge after coarse-graining:           -9.0009919.
MG DL_MG: Calling solver with defect correction order = 8
MG DL_MG: Solver finished
MG Hartree energy from (\int phi*rho dr):              1214.915012
MG Hartree energy from (\int eps (grad phi)^2 dr):     1214.731673
MG Discrepancy due to finite box and discretization:     -0.183339 (  -0.01509%)
MG Correction to account for finite box:                  0.006177
MG Remaining discrepancy, due to discretization:         -0.177161 (  -0.01458%)
     Trial step:       0.262998246006
             Q1:  -11749.582558583701
 Quadratic coef:       0.000000001075
 Linear coef   :      -0.000000000842
           Qmin:  -11749.582558584099
Quadratic minimum step length (  0.103050608352) accepted
    Initial Ne1:    7234.00000000
      Final Ne1:    7234.00000000

=================== Penalty functional idempotency correction ==================
 RMS occupancy error at iteration   1:  0.000000 (step -0.5000 Ne1=   7234.0000)
            Final RMS occupancy error   :  0.000000 (Ne1=   7234.0000)
               Final occupancy bounds   : [  0.0000,  1.0000]
================================================================================

    8        -1.174958255858E+04     6.7457E-09     6.1013E-09    -1.1642E-10

Reusing previously generated solute cavity.
MG BCs: +ve charge blocks (gridpoints):     29434 (   19612685).
MG BCs: -ve charge blocks (gridpoints):      8597 (    1069715).
MG BCs:     Elided blocks (gridpoints):    185798 (  190021145).
MG BCs: Computational effort saved:  99.9820%.
MG BCs: Charge after coarse-graining:           -9.0009919.
MG DL_MG: Calling solver with defect correction order = 8
MG DL_MG: Solver finished
MG Hartree energy from (\int phi*rho dr):              1214.915013
MG Hartree energy from (\int eps (grad phi)^2 dr):     1214.731674
MG Discrepancy due to finite box and discretization:     -0.183339 (  -0.01509%)
MG Correction to account for finite box:                  0.006177
MG Remaining discrepancy, due to discretization:         -0.177161 (  -0.01458%)
      ideal mu1:      -0.481019476255
             Q0:  -11749.582558583817
             G0:      -0.000000002814
   RMS gradient:       0.000000005429

Reusing previously generated solute cavity.
MG BCs: +ve charge blocks (gridpoints):     29434 (   19612684).
MG BCs: -ve charge blocks (gridpoints):      8597 (    1069715).
MG BCs:     Elided blocks (gridpoints):    185798 (  190021146).
MG BCs: Computational effort saved:  99.9820%.
MG BCs: Charge after coarse-graining:           -9.0009919.
MG DL_MG: Calling solver with defect correction order = 8
MG DL_MG: Solver finished
MG Hartree energy from (\int phi*rho dr):              1214.915011
MG Hartree energy from (\int eps (grad phi)^2 dr):     1214.731672
MG Discrepancy due to finite box and discretization:     -0.183339 (  -0.01509%)
MG Correction to account for finite box:                  0.006177
MG Remaining discrepancy, due to discretization:         -0.177161 (  -0.01458%)
     Trial step:       0.164627243330
             Q1:  -11749.582558583701
 Quadratic coef:       0.000000000580
 Linear coef   :      -0.000000000463
           Qmin:  -11749.582558583910
Quadratic minimum step length (  0.065719882082) accepted
    Initial Ne1:    7234.00000000
      Final Ne1:    7234.00000000

=================== Penalty functional idempotency correction ==================
 RMS occupancy error at iteration   1:  0.000000 (step -0.5000 Ne1=   7234.0000)
            Final RMS occupancy error   :  0.000000 (Ne1=   7234.0000)
               Final occupancy bounds   : [ -0.0000,  1.0000]
================================================================================

    9        -1.174958255858E+04     5.4292E-09     4.9106E-09     1.1642E-10

Reusing previously generated solute cavity.
MG BCs: +ve charge blocks (gridpoints):     29434 (   19612685).
MG BCs: -ve charge blocks (gridpoints):      8597 (    1069715).
MG BCs:     Elided blocks (gridpoints):    185798 (  190021145).
MG BCs: Computational effort saved:  99.9820%.
MG BCs: Charge after coarse-graining:           -9.0009919.
MG DL_MG: Calling solver with defect correction order = 8
MG DL_MG: Solver finished
MG Hartree energy from (\int phi*rho dr):              1214.915012
MG Hartree energy from (\int eps (grad phi)^2 dr):     1214.731673
MG Discrepancy due to finite box and discretization:     -0.183339 (  -0.01509%)
MG Correction to account for finite box:                  0.006177
MG Remaining discrepancy, due to discretization:         -0.177161 (  -0.01458%)
      ideal mu1:      -0.481019474505
   10        -1.174958255858E+04     4.7418E-09     4.2888E-09     0.0000E+00
Finished density kernel iterations (  10)

Writing density kernel to file "complex_33161.dkn" ... done


>>> Density kernel optimised for the current NGWF basis:
     ~~~~~~~~~~~~~~~~~~~~~~~~~~~~~~~~~~~~~~~~~~~~~~~~~~~~~~~~~~~
     Total energy                =  -1.17495825585838E+04  Eh
     Estimated bandgap           =   8.9112E-02  Eh
     RMS occupancy error         =   3.5941E-16
     [H,K] commutator            =   4.2888E-09
     Occupancy bounds            = [ -0.000:  1.000]
     ~~~~~~~~~~~~~~~~~~~~~~~~~~~~~~~~~~~~~~~~~~~~~~~~~~~~~~~~~~~




################################################################################
########################### NGWF CG iteration  005 #############################
################################################################################
****** Reciprocal space K.E. preconditioning with k_zero =  3.5000 a0^-1 *******

>>> Checking for convergence of NGWFs: 
           ........................................................
           |         *** NGWF optimisation converged ***          |
           | RMS NGWF gradient =    0.00000091258844              |
           | Criteria satisfied:                                  |
           | -> RMS NGWF gradient lower than set threshold.       |
           ========================================================

Reusing previously generated solute cavity.
MG BCs: +ve charge blocks (gridpoints):     29434 (   19612685).
MG BCs: -ve charge blocks (gridpoints):      8597 (    1069715).
MG BCs:     Elided blocks (gridpoints):    185798 (  190021145).
MG BCs: Computational effort saved:  99.9820%.
MG BCs: Charge after coarse-graining:           -9.0009919.
MG DL_MG: Calling solver with defect correction order = 8
MG DL_MG: Solver finished
MG Hartree energy from (\int phi*rho dr):              1214.915012
MG Hartree energy from (\int eps (grad phi)^2 dr):     1214.731673
MG Discrepancy due to finite box and discretization:     -0.183339 (  -0.01509%)
MG Correction to account for finite box:                  0.006177
MG Remaining discrepancy, due to discretization:         -0.177161 (  -0.01458%)

================================================================================
           ---------------- ENERGY COMPONENTS (Eh) ----------------
           | Kinetic                    :     8586.08660007190701 |
           | Pseudo. (local,OBC,corr'd) :    -5085.89233458386752 |
           | Pseudopotential (non-local):     1411.39874421011518 |
           | Hartree (molecular)        :     1214.91501210027491 |
           | Exchange-correlation       :    -3378.06294973221929 |
           | Ion-ion (open BC)          :   833509.56888742651790 |
           | Dispersion Correction      :       -3.24249354016568 |
           | Smeared ion non-self corr. :  -833461.08031910960563 |
           | Smeared ion self corr.     :   -14543.93950988473262 |
           | Solvent cavitation energy  :        2.36877864600096 |
           | Solute-solvent dis-rep en. :       -1.70297418807624 |
           | Total                      :   -11749.58255858385928 |
           --------------------------------------------------------
           ------ LOCAL ENERGY COMPONENTS FROM MATRIX TRACES ------
           | Pseudopotential (local)    :    -5085.89233458387207 |
           | Hartree                    :    -2001.70309868652225 |
           --------------------------------------------------------
           Integrated density           :     7233.99999999881493
           Integrated density tr(KS)    :     7233.99999999999909
================================================================================


                        <<<<< CALCULATION SUMMARY >>>>>                         
|ITER|    RMS GRADIENT   |     TOTAL ENERGY    |   step   |     Epredicted              
   0     0.00003866873260 -11749.52227169123944   0.625895 -11749.57427169790935        
   1     0.00001042652614 -11749.58182508731261   0.101245 -11749.58243664308611        
   2     0.00000461044409 -11749.58253260655329   0.018494 -11749.58255444915812        
   3     0.00000206569484 -11749.58255752862897   0.003770 -11749.58255842256040        
   4     0.00000091258844 -11749.58255858381744  <-- CG                                 

=================== Finished the calculation in solvent ========================
= Adjusting the following parameters: 
= read_denskern: F
= read_tightbox_ngwfs: F
= maxit_pen: 0 (restored to user-specified value)
= restart read filename prefix: ""
= restart write filename prefix: ""
================================================================================

================================================================================
IS: Calculation in solvent completed (NGWFs converged).      

Individual components of total energy in solvent:     hartree           kcal/mol
- Usual non-electrostatic DFT terms:    -12965.16337514201768    -8135762.674171
- Electrostatic fixed charge energy:      1214.91501210027491      762370.663735
- Apolar cavitation energy:                  2.36877864600096        1486.431010
- Apolar dispersion-repulsion energy:       -1.70297418807624       -1068.632414
 -------------------------------------------------------------------------------
- Total energy in solvent:              -11749.58255858381744    -7372974.211840

Components of total energy in solvent:                hartree           kcal/mol
- Usual non-electrostatic DFT terms:    -12965.16337514201768    -8135762.674171
- Electrostatic energy:                   1214.91501210027491      762370.663735
- Apolar energy terms:                       0.66580445792472         417.798596
 -------------------------------------------------------------------------------
- Total energy in solvent:              -11749.58255858381744    -7372974.211840

Calculation of free energy of solvation:              hartree           kcal/mol
- Total energy in solvent:         (+)  -11749.58255858381744    -7372974.211840
- Total energy in vacuum:          (-)  -11745.74886509345379    -7370568.532907
 -------------------------------------------------------------------------------
- Total free energy of solvation:           -3.83369349036366       -2405.678934

Components of polar term in f.e. of solvation:        hartree           kcal/mol
- Electrostatic:                            -4.74611246430050       -2978.230472
- Change in nonelectrostatic DFT terms:      0.24661451601241         154.752942
 -------------------------------------------------------------------------------
- Polar term in f.e. of solvation:          -4.49949794828808       -2823.477530

Components of free energy of solvation:               hartree           kcal/mol
- Polar term in f.e. of solvation: (+)      -4.49949794828808       -2823.477530
- Apolar (cavitation, dis., rep.): (+)       0.66580445792472         417.798596
 -------------------------------------------------------------------------------
- Total free energy of solvation:           -3.83369349036336       -2405.678934
================================================================================


------------------------------ TIMING INFORMATION ------------------------------
AVERAGE TIME:   34353.949s on     60 node(s)                                    
TOTAL TIME:     34353.949s on     60 node(s)                                    
================= AVERAGE TIMINGS FROM ALL NODES (CUMULATIVE) ==================
|| TAG                                    #calls    cpu time   %total  Gflops ||
|| work_imbalance                       :     1        0.00s   0.000%  ------ ||
|| sparse_set_to_garbage                :   176        0.03s   0.000%  ------ ||
|| parallel_prepare_fd_halos_request    :  1947        0.03s   0.000%  ------ ||
|| parallel_prepare_fd_halos_alloc      :  1947        0.10s   0.000%  ------ ||
|| ngwfs_initialise_from_radial         :     1        0.11s   0.000%  ------ ||
|| basis_extract_function_from_box      :  3598        0.16s   0.000%  ------ ||
|| parallel_prepare_fd_halos_satisfy    :  1947        0.61s   0.002%  ------ ||
|| pseudopotentials_nonlocal_mat        :    30        0.96s   0.003%  ------ ||
|| density_init_guess_real              :     1        3.86s   0.011%  ------ ||
|| restart_kernel_read                  :     1        4.31s   0.013%  ------ ||
|| openbc_locps_radial                  :     1        4.79s   0.014%  ------ ||
|| restart_ngwfs_tightbox_input         :     1        7.72s   0.022%  ------ ||
|| parallel_prepare_fd_halos_comms_imbal:  1947       11.11s   0.032%  ------ ||
|| parallel_prepare_fd_halos_clear      :  1947       20.86s   0.061%  ------ ||
|| sparse_init                          :     2       22.59s   0.066%  ------ ||
|| projectors_func_ovlp_box             :    30       29.06s   0.085%  ------ ||
|| function_ops_brappd_ketppd           :    30       29.11s   0.085%  ------ ||
|| projectors_init_fftbox_recip         :   142       29.38s   0.086%  ------ ||
|| parallel_prepare_fd_halos_comms_wait :  1947       29.95s   0.087%  ------ ||
|| palser_mano_kernel_optimise          :     1       36.03s   0.105%  ------ ||
|| basis_copy_function_to_box           : 58450       44.87s   0.131%  ------ ||
|| ngwf_gradient_coeffs                 :    16       49.55s   0.144%  ------ ||
|| fourier_apply_box_pair               :  5139       56.89s   0.166% 593.315 ||
|| parallel_prepare_fd_halos            :  1947       62.68s   0.182%  ------ ||
|| pseudo_make_structure_factor         :     2       65.83s   0.192%  ------ ||
|| sparse_embed_hotelling_invert_embed  :    30       76.49s   0.223%  ------ ||
|| restart_kernel_write                 :    17      105.48s   0.307%  ------ ||
|| finite_difference_derivative         :  1947      150.07s   0.437%  ------ ||
|| integrals_kinetic                    :    30      154.82s   0.451%  ------ ||
|| projectors_gradient_batch            :   112      162.28s   0.472%  ------ ||
|| basis_dot_function_with_box          : 8.817M     166.68s   0.485%  ------ ||
|| sparse_trace                         :  5369      186.63s   0.543%  ------ ||
|| fourier_apply_cell_backward          :  1299      187.57s   0.546% 103.405 ||
|| fourier_apply_cell_forward           :  1297      219.34s   0.638%  88.290 ||
|| openbc_locps_on_grid                 :     2      284.38s   0.828%  ------ ||
|| kernel_purify                        :   495      301.96s   0.879%  ------ ||
|| basis_add_function_to_box            : 18.38M     403.61s   1.175%  ------ ||
|| lnv_gradient_norm                    :   160      433.94s   1.263%  ------ ||
|| xc_energy_potential                  :   324      475.75s   1.385%  ------ ||
|| hamiltonian_energy_components        :     4      539.27s   1.570%  ------ ||
|| kernel_fix                           :   160      541.60s   1.577%  ------ ||
|| integrals_locpot_mat_els_batch       :  1183      764.00s   2.224%  ------ ||
|| ngwf_gradient_build_batch            :   112      861.69s   2.508%  ------ ||
|| restart_ngwfs_tightbox_output        :    14     1108.27s   3.226%  ------ ||
|| ngwf_gradient_batch                  :   112     1191.20s   3.467%  ------ ||
|| density_batch_row_sums               :  2261     1221.14s   3.555%  ------ ||
|| ngwf_gradient_lnv                    :    16     1352.96s   3.938%  ------ ||
|| cell_grid_deposit_box_real           : 37520     1463.50s   4.260%  ------ ||
|| sparse_product                       :  6711     1868.66s   5.439%  ------ ||
|| cell_grid_extract_box_real           : 41086     2066.06s   6.014%  ------ ||
|| density_fftbox_deposit_to_cell       : 35530     2325.95s   6.771%  ------ ||
|| density_fftbox_interpolate_multiply  : 35530     4074.89s  11.861%  ------ ||
|| potential_apply_to_ngwf_batch        :  1183     4144.35s  12.064%  ------ ||
|| fourier_apply_box                    : 122.2k    4892.62s  14.242% 794.497 ||
|| integrals_locpot_dbl_grid            :   169     4928.18s  14.345%  ------ ||
|| multigrid_prepare_bound_cond         :   324     5147.14s  14.983%  ------ ||
|| density_batch_interp_deposit         :  2261     7469.77s  21.744%  ------ ||
|| dl_mg_solver_calls                   :   324     8246.71s  24.005%  ------ ||
|| density_on_dbl_grid                  :   323     9133.68s  26.587%  ------ ||
|| multigrid_calculate_hartree          :   324    13598.17s  39.583%  ------ ||
|| hamiltonian_lhxc_calculate           :   319    23133.35s  67.338%  ------ ||
|| lnv_denskernel_optimise_cg           :    16    28862.22s  84.014%  ------ ||
|| ngwf_cg_optimise                     :     2    33289.74s  96.902%  ------ ||
|| total_time                           :     1    34353.95s 100.000%  ------ ||
================================================================================
Overhead of generating timer report: 
- 0 ms averaging over threads,
- 15 ms ensuring consistency across MPI ranks,
- 0 ms printing in order.

Job completed: 30-03-2020 16:16 (+0100)

Application 40013355 resources: utime ~7055276s, stime ~342900s, Rss ~4216592, inblocks ~341933985, outblocks ~69177654
