 +---------------------------------------------------------------+
 |                                                               |
 |        ####### #     # ####### ####### ####### ######         |
 |        #     # ##    # #          #    #       #     #        |
 |        #     # # #   # #          #    #       #     #        |
 |        #     # #  #  # #####      #    #####   ######         |
 |        #     # #   # # #          #    #       #              |
 |        #     # #    ## #          #    #       #              |
 |        ####### #     # #######    #    ####### #              |
 |                                                               |
 |        Linear-Scaling Ab Initio Total Energy Program          |
 |                                                               |
 |          Release for academic collaborators of ODG            |
 |                                             Version 5.3.2.6.  |
 |                                                               |
 +---------------------------------------------------------------+
 |                                                               |
 |  Authors:                                                     |
 |  Jacek Dziedzic, Peter D. Haynes, Nicholas D. M. Hine,        |
 |  Arash. A. Mostofi, Mike C. Payne and Chris-Kriton Skylaris   |
 |                                                               |
 |  Contributors:                                                |
 |  J. Aarons, L. Andrinopoulos, P. W. Avraam, R. A. Bell,       |
 |  A. Bhandari, G. A. Bramley, R. J. Charlton, S. J. Clark,     |
 |  R. J. Clements, G. C. Constantinescu, F. Corsetti,           |
 |  N. Corsini, O. Dieguez, S. M. M. Dubois, K. K. B. Duff,      |
 |  J. M. Escartin, A. Greco, H. Helal, Q. O. Hill, L. P. Lee,   |
 |  J.-H. Li, E. B. Linscott, G. Moynihan, D. D. O`Regan,        |
 |  O. K. Okan, M. J. S. Phipps, C. J. Pickard,                  |
 |  J. C. A. Prentice, M. I. J. Probert, L. E. Ratcliff,         |
 |  M. Robinson, A. Ruiz Serrano, J. S. Spencer, E. W. Tait,     |
 |  G. Teobaldi, D. Turban, V. Vitale, K. A. Wilkinson,          |
 |  C. Weber, J. C. Womack, N. Yeung and T. J. Zuehlsdorff       |
 |                                                               |
 |                                   Copyright (c) 2004-2019     |
 |                                                               |
 |  Please cite:                                                 |
 |  "Introducing ONETEP: Linear-scaling density functional       |
 |   simulations on parallel computers".                         |
 |   C.-K. Skylaris, P. D. Haynes, A. A. Mostofi, M. C. Payne.   |
 |   J. Chem. Phys. 122 084119 (2005).                           |
 |                                                               |
 |          in all publications arising from your use of ONETEP. |
 |                                                               |
 +---------------------------------------------------------------+
 |                                                               |
 |   ONETEP is based on developments described in the following  |
 |   publications:                                               |
 |                                                               |
 |  "Nonorthogonal generalized Wannier function pseudopotential  |
 |   plane-wave method".                                         |
 |   C.-K. Skylaris, A. A. Mostofi, P. D. Haynes, O. Dieguez,    |
 |   M. C. Payne.                                                |
 |   Phys. Rev. B 66 035119 (2002).                              |
 |                                                               |
 |  "Preconditioned iterative minimization for linear-scaling    |
 |   electronic structure calculations".                         |
 |   A. A. Mostofi, P. D. Haynes, C.-K. Skylaris, M. C. Payne.   |
 |   J. Chem. Phys. 119(17), pp.8842-8848 (2003).                |
 |                                                               |
 |  "Total-energy calculations on a real space grid with         |
 |   localized functions and a plane-wave basis".                |
 |   A. A. Mostofi, C.-K. Skylaris, P. D. Haynes, M. C. Payne.   |
 |   Comput. Phys. Commun. 147, pp.788-802 (2002).               |
 |                                                               |
 |  "Accurate kinetic energy evaluation in electronic structure  |
 |   calculations with localized functions on real space grids"  |
 |   C.-K. Skylaris, A. A. Mostofi, P. D. Haynes, C. J. Pickard, |
 |   M. C. Payne.                                                |
 |   Comput. Phys. Commun. 140, pp.315-322 (2001).               |
 |                                                               |
 |  "Accurate ionic forces and geometry optimization in linear-  |
 |   scaling density-functional theory with local orbitals"      |
 |   N. D. M. Hine, M. Robinson, P. D. Haynes, C.-K. Skylaris,   |
 |   M. C. Payne, and A. A. Mostofi.                             |
 |   Phys. Rev. B 83 195102 (2011).                              |
 |                                                               |
 +---------------------------------------------------------------+

Job started: 07-05-2020 22:31 (+0100)
 
Reading parameters from file "complex_34301.dat" ...... done

If your calculation crashes here, before "Checking processes and threads..."
is displayed, then your stack size is insufficient.
If so, use "ulimit -s unlimited" at runtime.
You can disable this check with "check_stack_size F".

Checking processes and threads...
   Determining the default number of threads...
      No default threads set at compilation time: defaulting to 1.
      OpenMP library call suggests 4 threads.
      Hybrid MPI-OpenMP compilation detected.
      Number of MPI processes > 1.
      OMP_NUM_THREADS environment variable present and
      its value matches the one obtained from the OpenMP library call.
      Using this value as default.
      Default threads: 4
      Default applies to threads_max and threads_num_fftboxes.
      Settings in the input file override this default.
   ... done

   Running with 60 MPI processes.
   There are 6 MPI processes running on the same node as the root process.
   Each MPI process is using: 
               1 threads for simulation cell FFTs.
               1 threads for parallel FFT box operations.
               4 threads for loops over batched FFT box operations.
               4 threads in other parallel regions.
... done

Basic input checks...... done

Reading geometry and species blocks from file "complex_34301.dat" ...
  <species_atomic_set> block not found: NGWF initialisation set to SOLVE
IS: Dielectric excluded regions:
    - NONE.
    
  Number of PPD points along a3 set to 1.  This is 
  the default value, it may have been provided also in the input file.
... done
 Writing xyz coordinates to file "complex_34301.xyz" ... done


--------------------------------------------------------------------------------
---------------------------------- INPUT FILE ----------------------------------
--------------------------------------------------------------------------------

cutoff_energy       : 800 eV                                                    
xc_functional PBE                                                               
task SINGLEPOINT                                                                
write_xyz true                                                                  
output_detail VERBOSE                                                           
ngwf_threshold_orig : 0.000002                                                  
kernel_cutoff       : 1000                                                      
k_zero              : 3.5                                                       
elec_cg_max 0                                                                   
occ_mix 1.0                                                                     
dispersion 1                                                                    
maxit_ngwf_cg 40                                                                
minit_lnv 10                                                                    
maxit_lnv 10                                                                    
write_denskern T                                                                
write_tightbox_ngwfs T                                                          
charge 9                                                                        
is_implicit_solvent T                                                           
is_auto_solvation T                                                             
is_include_apolar T                                                             
is_smeared_ion_rep T                                                            
is_solvent_surf_tension 4.7624E-5 Ha/bohr**2                                    
is_apolar_scaling_factor 0.281075                                               
is_solvation_beta 1.3                                                           
is_density_threshold 0.00035                                                    
is_bulk_permittivity 78.54                                                      
is_dielectric_model fix_initial                                                 
is_smeared_ion_width 0.8                                                        
mg_defco_fd_order 8                                                             
is_bc_coarseness 10                                                             
is_bc_surface_coarseness 1                                                      
fine_grid_scale 2.0                                                             
%block species                                                                  
N   N   7 4 8.0                                                                 
H   H   1 1 8.0                                                                 
C   C   6 4 8.0                                                                 
S   S  16 9 8.0                                                                 
O   O   8 4 8.0                                                                 
%endblock species                                                               
%block species_pot                                                              
N   N_00.recpot                                                                 
H   H_04.recpot                                                                 
C   C_01.recpot                                                                 
S   S_00.recpot                                                                 
O   O_02.recpot                                                                 
%endblock species_pot                                                           
%block lattice_cart                                                             
142.669   0.000   0.000                                                         
0.000 146.65   0.000                                                            
0.000   0.000   162.396                                                         
%endblock lattice_cart                                                          
%block positions_abs                                                            
     Hash =  -000005851818947368946349
%endblock positions_abs                                                         

--------------------------------------------------------------------------------
-------------------------------- END INPUT FILE --------------------------------
--------------------------------------------------------------------------------


 
 ESDF WARNING(1): "kernelcutoff" (esdf_physical) has no units. Assume "bohr".
 ESDF WARNING(2): "kzero" (esdf_physical) has no units. Assume "1/bohr".
 ESDF WARNING(3
 ): "issmearedionwidth" (esdf_physical) has no units. Assume "bohr".
<<<<<<<<<<<<<<<<<<<<<<<<<<<<<<<<< Full system >>>>>>>>>>>>>>>>>>>>>>>>>>>>>>>>>>
<<<<<<<<<<<<<<<<<<<<<<<<< Pseudopotential information >>>>>>>>>>>>>>>>>>>>>>>>>>
File: N_00.recpot [ 2001 points up to Gmax=  52.9 (1/bohr)]
  Atomic number:  7;  ionic charge:  5.000000
    Shell 1: l = 0; rc = 1.48 bohr
File: H_04.recpot [ 2001 points up to Gmax=  52.9 (1/bohr)]
  Atomic number:  1;  ionic charge:  1.000000
    Local potential
File: C_01.recpot [ 2001 points up to Gmax=  52.9 (1/bohr)]
  Atomic number:  6;  ionic charge:  4.000000
    Shell 1: l = 0; rc = 1.48 bohr
File: S_00.recpot [ 2001 points up to Gmax=  52.9 (1/bohr)]
  Atomic number: 16;  ionic charge:  6.000000
    Shell 1: l = 0; rc = 1.90 bohr
    Shell 2: l = 2; rc = 1.84 bohr
File: O_02.recpot [ 2001 points up to Gmax=  52.9 (1/bohr)]
  Atomic number:  8;  ionic charge:  6.000000
    Shell 1: l = 0; rc = 1.31 bohr
<<<<<<<<<<<<<<<<<<<<<<<<<<<<<<<<<<<<<<<<>>>>>>>>>>>>>>>>>>>>>>>>>>>>>>>>>>>>>>>>

-------------------------- Atom counting information ---------------------------
Symbol    Natoms    Nngwfs    Nprojs
  N        236       944       236
  H       1317      1317         0
  C        816      3264       816
  S          6        54        36
  O        241       964       241
.......   ......    ......    ......
Totals:   2616      6543      1329
--------------------------------------------------------------------------------

=============================== PSINC grid sizes ===============================
                      Simulation cell:  286 x 294 x 320
                              FFT-box:  105 x 105 x  99
                                  PPD:   11 x   6 x   1
Grid space d1=  0.498842657343a0 (KE cutoff=  30.52649Eh = 830.66799eV)
Grid space d2=  0.498809523810a0 (KE cutoff=  30.53054Eh = 830.77835eV)
Grid space d3=  0.507487500000a0 (KE cutoff=  29.49533Eh = 802.60885eV)
================================================================================

********************* Fourier parallelisation information **********************
       Coarse grid (whole simulation cell) dimensions:    286   294   320
          Real-space ('12') slabs/node (min max mean):      5     6     5
         Recip-space ('23') slabs/node (min max mean):      2     3     2
********************************************************************************

********************* Fourier parallelisation information **********************
       Double grid (whole simulation cell) dimensions:    572   588   640
          Real-space ('12') slabs/node (min max mean):     10    11    10
         Recip-space ('23') slabs/node (min max mean):      4     5     4
********************************************************************************
ONETEP fine grid is 572 x 588 x 640 gridpoints, 142.6690 x 146.6500 x 162.3960 bohr.
FD multigrid is     569 x 585 x 633 gridpoints, 141.9207 x 145.9018 x 160.6198 bohr.


Calculating local pseudopotential in open BC on a radial grid ...
Discrepancy between calculated realspace psloc and -Z/x on [5a0,261.215a0]:
max |rel. diff| # avg |rel. diff| #  avg rel. diff #  f # pseudopotential file
 0.000261901569    0.000004963664   0.000000071970   55  'N_00.recpot'
 0.000422260137    0.000017549664  -0.000000063361   55  'H_04.recpot'
 0.000361991046    0.000016543264   0.000000134927   55  'C_01.recpot'
 0.000447743184    0.000019132268   0.000000438157   55  'S_00.recpot'
 0.000711628927    0.000028437426   0.000000135877   55  'O_02.recpot'
... done

Atom SCF Calculation for N  : Z (AE atom) =   7 : Z (PS atom) =   5
Config String:
Orbitals (num,occ):  2     2.00 3.00
Orbitals   (num,l):  2        0    1
Real-space Grid (nr,dr,rmax): 1203    0.0066555740    8.0000000000
Spherical Bessel Basis (nsws,lmax,cutoff):   47    1  176.3951722778
Confining potential (l,width,scale):  0    3.0000000000  100.0000000000
Confining potential (l,width,scale):  1    3.0000000000  100.0000000000
  1         -4.7312375307   -3.4155304497    7.0523828109   -1.9351020946
  2         -9.7309464766   -2.0532547791    8.2966052865   -2.2494486027
  3         -9.6627394379   -2.1124926340    8.2327997121   -2.2369778124
  4         -9.6814993499   -2.1215521045    8.2229805960   -2.2365178421
  5         -9.6843326483   -2.1250939529    8.2191374534   -2.2362718126
  6         -9.6859628709   -2.1267894855    8.2172963573   -2.2362066344
  7         -9.6867347035   -2.1276425665    8.2163697352   -2.2361903369
  8         -9.6870802100   -2.1280764625    8.2158983890   -2.2361891460
  9         -9.6872290423   -2.1282977424    8.2156580222   -2.2361920435
 10         -9.6872901988   -2.1284107021    8.2155353368   -2.2361953393
 11         -9.6873135296   -2.1284684031    8.2154726809   -2.2361979819
 12         -9.6873212476   -2.1284978948    8.2154406648   -2.2361998431
 13         -9.6873229586   -2.1285129774    8.2154242957   -2.2362010676
 14         -9.6873226456   -2.1285206957    8.2154159216   -2.2362018403
 15         -9.6873218534   -2.1285246479    8.2154116349   -2.2362023142
 16         -9.6873212599   -2.1285262679    8.2154098784   -2.2362025420
 17         -9.6873207834   -2.1285272564    8.2154088068   -2.2362026955
 18         -9.6873204210   -2.1285278596    8.2154081529   -2.2362027982
 19         -9.6873201550   -2.1285282280    8.2154077538   -2.2362028667
 20         -9.6873199645   -2.1285284529    8.2154075102   -2.2362029121
 21         -9.6873198305   -2.1285285903    8.2154073614   -2.2362029421
 22         -9.6873197377   -2.1285286742    8.2154072705   -2.2362029618
Atom SCF converged after  22 iterations to a total energy of     -9.68731974

Atom SCF Calculation for H  : Z (AE atom) =   1 : Z (PS atom) =   1
Config String:
Orbitals (num,occ):  1     1.00
Orbitals   (num,l):  1        0
Real-space Grid (nr,dr,rmax): 1203    0.0066555740    8.0000000000
Spherical Bessel Basis (nsws,lmax,cutoff):   47    0  176.3951722778
Confining potential (l,width,scale):  0    3.0000000000  100.0000000000
  1         -0.3194257691   -0.2393854593    0.2820953124   -0.2424203209
  2         -0.3951823392   -0.2377116493    0.2886404059   -0.2475147891
  3         -0.4317044583   -0.2352244387    0.2921333887   -0.2514046172
  4         -0.4470703708   -0.2341892222    0.2934391879   -0.2531009782
  5         -0.4532132900   -0.2338556667    0.2938388426   -0.2537313520
  6         -0.4556579251   -0.2337612552    0.2939448584   -0.2539550462
  7         -0.4566418315   -0.2337377355    0.2939680120   -0.2540342273
  8         -0.4570437922   -0.2337331116    0.2939708287   -0.2540627372
  9         -0.4572102946   -0.2337328328    0.2939698291   -0.2540732650
 10         -0.4572800424   -0.2337332404    0.2939687193   -0.2540772588
 11         -0.4573095100   -0.2337335791    0.2939680317   -0.2540788122
 12         -0.4573220379   -0.2337337762    0.2939676699   -0.2540794294
 13         -0.4573273880   -0.2337338775    0.2939674931   -0.2540796787
 14         -0.4573296803   -0.2337339266    0.2939674099   -0.2540797808
 15         -0.4573306647   -0.2337339495    0.2939673718   -0.2540798230
 16         -0.4573310882   -0.2337339601    0.2939673545   -0.2540798406
 17         -0.4573312706   -0.2337339649    0.2939673467   -0.2540798479
 18         -0.4573313493   -0.2337339670    0.2939673433   -0.2540798510
Atom SCF converged after  18 iterations to a total energy of     -0.45733135

Atom SCF Calculation for C  : Z (AE atom) =   6 : Z (PS atom) =   4
Config String:
Orbitals (num,occ):  2     2.00 2.00
Orbitals   (num,l):  2        0    1
Real-space Grid (nr,dr,rmax): 1203    0.0066555740    8.0000000000
Spherical Bessel Basis (nsws,lmax,cutoff):   47    1  176.3951722778
Confining potential (l,width,scale):  0    3.0000000000  100.0000000000
Confining potential (l,width,scale):  1    3.0000000000  100.0000000000
  1         -5.2976922011   -1.3069684169    4.5135249990   -1.4493313817
  2         -5.3721716256   -1.3429755895    4.4750154450   -1.4361613026
  3         -5.3809959565   -1.3617365618    4.4541655428   -1.4305930207
  4         -5.3918938866   -1.3667928461    4.4484735100   -1.4294652294
  5         -5.3956096428   -1.3688539142    4.4461376126   -1.4290734646
  6         -5.3968271862   -1.3696852393    4.4451910874   -1.4289366866
  7         -5.3972028401   -1.3700178062    4.4448112275   -1.4288900460
  8         -5.3973067903   -1.3701500158    4.4446598370   -1.4288749220
  9         -5.3973286940   -1.3702023868    4.4445997329   -1.4288704293
 10         -5.3973289850   -1.3702230869    4.4445759233   -1.4288693188
 11         -5.3973254264   -1.3702312560    4.4445665049   -1.4288691775
 12         -5.3973224003   -1.3702344755    4.4445627836   -1.4288692549
 13         -5.3973208708   -1.3702354890    4.4445616088   -1.4288693270
 14         -5.3973198783   -1.3702360102    4.4445610034   -1.4288693814
 15         -5.3973192535   -1.3702362780    4.4445606917   -1.4288694190
 16         -5.3973188684   -1.3702364155    4.4445605313   -1.4288694437
 17         -5.3973186349   -1.3702364860    4.4445604489   -1.4288694595
 18         -5.3973184951   -1.3702365221    4.4445604065   -1.4288694693
 19         -5.3973184122   -1.3702365405    4.4445603848   -1.4288694753
Atom SCF converged after  19 iterations to a total energy of     -5.39731841

Atom SCF Calculation for S  : Z (AE atom) =  16 : Z (PS atom) =   6
Config String:
Orbitals (num,occ):  3     2.00 4.00 0.00
Orbitals   (num,l):  3        0    1    2
Real-space Grid (nr,dr,rmax): 1203    0.0066555740    8.0000000000
Spherical Bessel Basis (nsws,lmax,cutoff):   47    2  176.3951722778
Confining potential (l,width,scale):  0    3.0000000000  100.0000000000
Confining potential (l,width,scale):  1    3.0000000000  100.0000000000
Confining potential (l,width,scale):  2    3.0000000000  100.0000000000
  1        -12.4735062396   -1.0328741412   10.1554312477   -2.4512393157
  2         -9.9458301913   -2.4607392455    8.3041325857   -2.0306994528
  3        -10.1450417646   -2.2931184565    8.4831893826   -2.0812538287
  4        -10.1528335592   -2.2733105793    8.5050388867   -2.0896035179
  5        -10.1571940363   -2.2633716629    8.5160794258   -2.0939370707
  6        -10.1594380571   -2.2584938667    8.5215163935   -2.0961289008
  7        -10.1605856507   -2.2561081821    8.5241804044   -2.0972291378
  8        -10.1611799191   -2.2549395235    8.5254868240   -2.0977806248
  9        -10.1614918752   -2.2543658586    8.5261285885   -2.0980571586
 10        -10.1616572884   -2.2540839121    8.5264441898   -2.0981959233
 11        -10.1617455602   -2.2539453058    8.5265994231   -2.0982656006
 12        -10.1617928447   -2.2538772062    8.5266757320   -2.0983006047
 13        -10.1618182292   -2.2538437891    8.5267131983   -2.0983181961
 14        -10.1618318741   -2.2538274201    8.5267315620   -2.0983270391
 15        -10.1618392144   -2.2538194197    8.5267405433   -2.0983314852
 16        -10.1618431651   -2.2538155200    8.5267449245   -2.0983337210
 17        -10.1618452923   -2.2538136252    8.5267470551   -2.0983348455
 18        -10.1618464380   -2.2538127080    8.5267480875   -2.0983354110
 19        -10.1618470552   -2.2538122659    8.5267485856   -2.0983356955
 20        -10.1618473878   -2.2538120540    8.5267488248   -2.0983358386
 21        -10.1618475670   -2.2538119530    8.5267489389   -2.0983359106
 22        -10.1618476637   -2.2538119053    8.5267489929   -2.0983359468
Atom SCF converged after  22 iterations to a total energy of    -10.16184766

Atom SCF Calculation for O  : Z (AE atom) =   8 : Z (PS atom) =   6
Config String:
Orbitals (num,occ):  2     2.00 4.00
Orbitals   (num,l):  2        0    1
Real-space Grid (nr,dr,rmax): 1203    0.0066555740    8.0000000000
Spherical Bessel Basis (nsws,lmax,cutoff):   47    1  176.3951722778
Confining potential (l,width,scale):  0    3.0000000000  100.0000000000
Confining potential (l,width,scale):  1    3.0000000000  100.0000000000
  1         -1.8735052164   -7.5539365035   10.1554312477   -2.4512393157
  2        -16.0318313751   -3.1285771268   13.6395848164   -3.2358799643
  3        -15.9524020423   -3.0762819706   13.6967272503   -3.2536856837
  4        -15.8521515939   -3.0781493909   13.6951909330   -3.2561700440
  5        -15.8357139793   -3.0748501933   13.6988803334   -3.2580493133
  6        -15.8246052853   -3.0740779781   13.6997881576   -3.2588327446
  7        -15.8189019501   -3.0737449687   13.7001869911   -3.2592378801
  8        -15.8159785510   -3.0736026016   13.7003615168   -3.2594475790
  9        -15.8144776168   -3.0735437994   13.7004360379   -3.2595560735
 10        -15.8137058024   -3.0735207882   13.7004667348   -3.2596122456
 11        -15.8133083127   -3.0735125946   13.7004786868   -3.2596413656
 12        -15.8131032938   -3.0735102195   13.7004828997   -3.2596564858
 13        -15.8129973902   -3.0735099286   13.7004840891   -3.2596643505
 14        -15.8129426040   -3.0735102506   13.7004842061   -3.2596684489
 15        -15.8129142203   -3.0735106556   13.7004840157   -3.2596705887
 16        -15.8128994940   -3.0735109855   13.7004837906   -3.2596717080
 17        -15.8128918425   -3.0735112169   13.7004836103   -3.2596722946
 18        -15.8128878614   -3.0735113674   13.7004834848   -3.2596726026
 19        -15.8128857871   -3.0735114608   13.7004834035   -3.2596727646
 20        -15.8128847048   -3.0735115170   13.7004833533   -3.2596728500
 21        -15.8128841394   -3.0735115501   13.7004833231   -3.2596728951
 22        -15.8128838436   -3.0735115693   13.7004833054   -3.2596729190
 23        -15.8128836887   -3.0735115802   13.7004832951   -3.2596729316
 24        -15.8128836074   -3.0735115864   13.7004832893   -3.2596729383
Atom SCF converged after  24 iterations to a total energy of    -15.81288361

========================== Calculation in vacuum ==============================
= Adjusting the following parameters: 
= is_implicit_solvent: F
= is_include_apolar: F
= write_denskern: T
= write_tightbox_ngwfs: T
= restart read filename prefix: ""
= restart write filename prefix: "vacuum_"
===============================================================================

Determining parallel strategy ...
... using space-filling curve
... NGWF load balancing: max    110;  min    109;  average    109
... Projector load balancing: max     26;  min     21;  average     22
... done
Calculating direct Ion-Ion energy ...
Ion-Ion Energy        :    834057.99112542858347
======================= Empirical dispersion information =======================
Model : Elstner
Dispersion Correction Energy: -0.32688133E+01 Hartree
================================================================================
Basis initialisation ...... NGWF spheres initialised
... Projector spheres initialised
... NGWF tight boxes initialised
... Tight-boxes gathered
... NGWF basis size (local,global):     982319  59015717
... Nonlocal pseudopotential projector initialisation
... done

========================== Sparse matrix information ===========================
                        Overlap matrix filling:   6.75%
                        Density kernel filling: 100.00%
              NGWF-Proj overlap matrix filling:   1.76%
                    Hamiltonian matrix filling:   7.59%
                  NGWF diagonal matrix filling:   0.05%
                             KS matrix filling: 100.00% 
                           KSKS matrix filling: 100.00% 
================================================================================

Sparse matrix initialisation ... done

Generating smeared ion density ... done
Smeared ion self correction:     -14543.939510
Smeared ion non-self correction: -834009.648767
NGWF initialisation ...... done
============ Calculation of NGWF S^-1 using Hotelling algorithm ================ 
         Iteration  |  Frobenius norm and Maximum abs value    (of I-S*S_n^-1)   
               1       0.78659085E+02     0.98213951E+00
               2       0.76767827E+02     0.96478344E+00
               3       0.73718953E+02     0.93147998E+00
               4       0.69407813E+02     0.86998268E+00
               5       0.64059273E+02     0.76485973E+00
               6       0.58066385E+02     0.70249375E+00
               7       0.52063186E+02     0.67014706E+00
               8       0.46512841E+02     0.64255551E+00
               9       0.40390044E+02     0.60451062E+00
              10       0.32030256E+02     0.53771325E+00
              11       0.21395902E+02     0.42866127E+00
              12       0.10830189E+02     0.27950977E+00
              13       0.35221417E+01     0.13442804E+00
              14       0.55229572E+00     0.34705881E-01
              15       0.28104127E-01     0.29418185E-02
              16       0.19266892E-03     0.27886852E-04
              17       0.16091346E-07     0.27966421E-08
              18       0.91997597E-13     0.42188475E-14
================================================================================
Calculating local pseudopotential in open BC on the fine real space grid ...
... done

MG BCs: +ve charge blocks (gridpoints):     20673 (   16246135).
MG BCs: -ve charge blocks (gridpoints):      8110 (    1102042).
MG BCs:     Elided blocks (gridpoints):    194559 (  193355368).
MG BCs: Computational effort saved:  99.9863%.
MG BCs: Charge after coarse-graining:           -9.0002282.
MG DL_MG: Calling solver with defect correction order = 8
MG DL_MG: Solver finished
MG Hartree energy from (\int phi*rho dr):              1470.921730
MG Hartree energy from (\int eps (grad phi)^2 dr):     1470.320132
MG Discrepancy due to finite box and discretization:     -0.601598 (  -0.04090%)
MG Correction to account for finite box:                  0.453774
MG Remaining discrepancy, due to discretization:         -0.147823 (  -0.01005%)
Up spin density kernel initialisation ... 
======= Optimisation of K by Palser-Manolopoulos canonical purification ======== 
         Iteration  |  Band structure energy |    c_n   
               1       -2593.72281100313285    0.5270207
               2       -2770.60966824413390    0.5171714
               3       -2952.01952404153053    0.5155207
               4       -3103.62337216474407    0.5291766
               5       -3196.90876090596066    0.5655216
               6       -3235.91287491728053    0.6112211
               7       -3249.14870526017876    0.6233125
               8       -3254.91131632359975    0.6224026
               9       -3257.72532348832920    0.6410941
              10       -3258.88072674872819    0.6715559
              11       -3259.32847888004426    0.6878842
              12       -3259.53334451979481    0.6876784
              13       -3259.64189744357645    0.6712417
              14       -3259.70429092027325    0.6347694
              15       -3259.74165070584149    0.5933871
              16       -3259.76112558481054    0.5780093
              17       -3259.76831722567067    0.6133461
              18       -3259.77027695435754    0.6240148
              19       -3259.77109606410795    0.5947677
              20       -3259.77165916204012    0.5564699
              21       -3259.77206694520009    0.5213133
              22       -3259.77230157908707    0.5031027
              23       -3259.77237172455762    0.5000631
              24       -3259.77237715388173    0.5000001
              25       -3259.77237718545257    0.5000001
Termination criterion satisfied: band energy change below threshold.
Final occupancy bounds: [    0.00000000000105:    1.00000000000000]
Closest occupancy to 0.5:     0.99999999999996
================================================================================
... done

Writing density kernel to file "complex_34301.vacuum_dkn" ... done

>>> Optimising kernel for current NGWFs:
   Initial electron number for spin 1:    7234.00000000
     Final electron number for spin 1:    7234.00000000

=================== Penalty functional idempotency correction ==================
 RMS occupancy error at iteration   1:  0.000000 (step -0.5000 Ne1=   7234.0000)
            Final RMS occupancy error   :  0.000000 (Ne1=   7234.0000)
               Final occupancy bounds   : [  0.0000,  1.0000]
================================================================================

................................................................................
<<<<<<<<<<<<<< LNV (Original version) density kernel optimisation >>>>>>>>>>>>>>
~~~~~~~~~~~~~~~~~~~~~~~~~~~~~~~~~~~~~~~~~~~~~~~~~~~~~~~~~~~~~~~~~~~~~~~~~~~~~~~~
   iter  |      energy (Eh)       | rms gradient |  commutator  |   dE (Eh)
MG BCs: +ve charge blocks (gridpoints):     31737 (   17379601).
MG BCs: -ve charge blocks (gridpoints):      8417 (    1135247).
MG BCs:     Elided blocks (gridpoints):    183485 (  192188697).
MG BCs: Computational effort saved:  99.9809%.
MG BCs: Charge after coarse-graining:           -9.0010049.
MG DL_MG: Calling solver with defect correction order = 8
MG DL_MG: Solver finished
MG Hartree energy from (\int phi*rho dr):              1425.193089
MG Hartree energy from (\int eps (grad phi)^2 dr):     1424.541330
MG Discrepancy due to finite box and discretization:     -0.651760 (  -0.04573%)
MG Correction to account for finite box:                  0.462327
MG Remaining discrepancy, due to discretization:         -0.189432 (  -0.01329%)
      ideal mu1:      -0.695361519209
             Q0:  -11577.409085608320
             G0:    -145.179687296397
   RMS gradient:       0.001841518169
MG BCs: +ve charge blocks (gridpoints):     31707 (   17466494).
MG BCs: -ve charge blocks (gridpoints):      8299 (    1114456).
MG BCs:     Elided blocks (gridpoints):    183517 (  192122595).
MG BCs: Computational effort saved:  99.9810%.
MG BCs: Charge after coarse-graining:           -9.0010249.
MG DL_MG: Calling solver with defect correction order = 8
MG DL_MG: Solver finished
MG Hartree energy from (\int phi*rho dr):              1450.374470
MG Hartree energy from (\int eps (grad phi)^2 dr):     1449.741024
MG Discrepancy due to finite box and discretization:     -0.633446 (  -0.04367%)
MG Correction to account for finite box:                  0.459395
MG Remaining discrepancy, due to discretization:         -0.174051 (  -0.01200%)
     Trial step:       0.500000000000
             Q1:  -11588.945246214746
 Quadratic coef:      61.053683041773
 Linear coef   :     -72.589843648199
           Qmin:  -11598.985529232797
Quadratic minimum step length (  0.297237775150) accepted
    Initial Ne1:    7234.00000000
      Final Ne1:    7234.00000000

=================== Penalty functional idempotency correction ==================
 RMS occupancy error at iteration   1:  0.003400 (step -0.4885 Ne1=   7234.0000)
 RMS occupancy error at iteration   2:  0.000026 (step -0.5001 Ne1=   7234.0000)
            Final RMS occupancy error   :  0.000000 (Ne1=   7234.0000)
               Final occupancy bounds   : [  0.0000,  1.0000]
================================================================================

    1        -1.157740908561E+04     1.8415E-03     1.6656E-03
MG BCs: +ve charge blocks (gridpoints):     31725 (   17433520).
MG BCs: -ve charge blocks (gridpoints):      8354 (    1123102).
MG BCs:     Elided blocks (gridpoints):    183499 (  192146923).
MG BCs: Computational effort saved:  99.9810%.
MG BCs: Charge after coarse-graining:           -9.0010163.
MG DL_MG: Calling solver with defect correction order = 8
MG DL_MG: Solver finished
MG Hartree energy from (\int phi*rho dr):              1432.216619
MG Hartree energy from (\int eps (grad phi)^2 dr):     1431.576686
MG Discrepancy due to finite box and discretization:     -0.639933 (  -0.04468%)
MG Correction to account for finite box:                  0.460455
MG Remaining discrepancy, due to discretization:         -0.179478 (  -0.01253%)
      ideal mu1:      -0.742110171319
             Q0:  -11599.389551895787
             G0:     -12.183805216018
   RMS gradient:       0.000529872508
MG BCs: +ve charge blocks (gridpoints):     31711 (   17450942).
MG BCs: -ve charge blocks (gridpoints):      8332 (    1117991).
MG BCs:     Elided blocks (gridpoints):    183513 (  192134612).
MG BCs: Computational effort saved:  99.9810%.
MG BCs: Charge after coarse-graining:           -9.0010199.
MG DL_MG: Calling solver with defect correction order = 8
MG DL_MG: Solver finished
MG Hartree energy from (\int phi*rho dr):              1437.507567
MG Hartree energy from (\int eps (grad phi)^2 dr):     1436.871742
MG Discrepancy due to finite box and discretization:     -0.635825 (  -0.04423%)
MG Correction to account for finite box:                  0.459499
MG Remaining discrepancy, due to discretization:         -0.176326 (  -0.01227%)
     Trial step:       0.385511202918
             Q1:  -11602.251863281126
 Quadratic coef:       1.834682019602
 Linear coef   :      -4.696993404941
           Qmin:  -11602.395760439058
Quadratic minimum step length (  0.493476133272) accepted
    Initial Ne1:    7233.99990487
      Final Ne1:    7234.00000000

=================== Penalty functional idempotency correction ==================
 RMS occupancy error at iteration   1:  0.001820 (step -0.4930 Ne1=   7234.0000)
 RMS occupancy error at iteration   2:  0.000011 (step -0.5001 Ne1=   7234.0000)
            Final RMS occupancy error   :  0.000000 (Ne1=   7234.0000)
               Final occupancy bounds   : [  0.0000,  1.0000]
================================================================================

    2        -1.159938955190E+04     5.2987E-04     4.7926E-04    -2.1980E+01
MG BCs: +ve charge blocks (gridpoints):     31714 (   17455849).
MG BCs: -ve charge blocks (gridpoints):      8330 (    1116419).
MG BCs:     Elided blocks (gridpoints):    183510 (  192131277).
MG BCs: Computational effort saved:  99.9810%.
MG BCs: Charge after coarse-graining:           -9.0010211.
MG DL_MG: Calling solver with defect correction order = 8
MG DL_MG: Solver finished
MG Hartree energy from (\int phi*rho dr):              1439.039589
MG Hartree energy from (\int eps (grad phi)^2 dr):     1438.404838
MG Discrepancy due to finite box and discretization:     -0.634751 (  -0.04411%)
MG Correction to account for finite box:                  0.459246
MG Remaining discrepancy, due to discretization:         -0.175505 (  -0.01220%)
      ideal mu1:      -0.767948031760
             Q0:  -11602.432437533047
             G0:      -1.964476932386
   RMS gradient:       0.000212907802
MG BCs: +ve charge blocks (gridpoints):     31714 (   17454689).
MG BCs: -ve charge blocks (gridpoints):      8324 (    1117484).
MG BCs:     Elided blocks (gridpoints):    183510 (  192131372).
MG BCs: Computational effort saved:  99.9810%.
MG BCs: Charge after coarse-graining:           -9.0010209.
MG DL_MG: Calling solver with defect correction order = 8
MG DL_MG: Solver finished
MG Hartree energy from (\int phi*rho dr):              1436.848095
MG Hartree energy from (\int eps (grad phi)^2 dr):     1436.213763
MG Discrepancy due to finite box and discretization:     -0.634332 (  -0.04415%)
MG Correction to account for finite box:                  0.459048
MG Remaining discrepancy, due to discretization:         -0.175284 (  -0.01220%)
     Trial step:       0.436165768658
             Q1:  -11602.938986032386
 Quadratic coef:       0.350289091886
 Linear coef   :      -0.856837591225
           Qmin:  -11602.956412354661
Quadratic minimum step length (  0.533449706611) accepted
    Initial Ne1:    7233.99993931
      Final Ne1:    7234.00000000

=================== Penalty functional idempotency correction ==================
 RMS occupancy error at iteration   1:  0.000681 (step -0.4955 Ne1=   7234.0000)
 RMS occupancy error at iteration   2:  0.000007 (step -0.5005 Ne1=   7234.0000)
            Final RMS occupancy error   :  0.000000 (Ne1=   7234.0000)
               Final occupancy bounds   : [  0.0000,  1.0000]
================================================================================

    3        -1.160243243753E+04     2.1291E-04     1.9257E-04    -3.0429E+00
MG BCs: +ve charge blocks (gridpoints):     31716 (   17454493).
MG BCs: -ve charge blocks (gridpoints):      8328 (    1117668).
MG BCs:     Elided blocks (gridpoints):    183508 (  192131384).
MG BCs: Computational effort saved:  99.9810%.
MG BCs: Charge after coarse-graining:           -9.0010209.
MG DL_MG: Calling solver with defect correction order = 8
MG DL_MG: Solver finished
MG Hartree energy from (\int phi*rho dr):              1436.369730
MG Hartree energy from (\int eps (grad phi)^2 dr):     1435.735480
MG Discrepancy due to finite box and discretization:     -0.634250 (  -0.04416%)
MG Correction to account for finite box:                  0.459005
MG Remaining discrepancy, due to discretization:         -0.175245 (  -0.01220%)
      ideal mu1:      -0.768477110512
             Q0:  -11602.961199037032
             G0:      -0.542145178490
   RMS gradient:       0.000111990803
MG BCs: +ve charge blocks (gridpoints):     31715 (   17455428).
MG BCs: -ve charge blocks (gridpoints):      8323 (    1117424).
MG BCs:     Elided blocks (gridpoints):    183509 (  192130693).
MG BCs: Computational effort saved:  99.9810%.
MG BCs: Charge after coarse-graining:           -9.0010210.
MG DL_MG: Calling solver with defect correction order = 8
MG DL_MG: Solver finished
MG Hartree energy from (\int phi*rho dr):              1437.623853
MG Hartree energy from (\int eps (grad phi)^2 dr):     1436.989559
MG Discrepancy due to finite box and discretization:     -0.634294 (  -0.04412%)
MG Correction to account for finite box:                  0.458970
MG Remaining discrepancy, due to discretization:         -0.175324 (  -0.01220%)
     Trial step:       0.482361380424
             Q1:  -11603.101187860477
 Quadratic coef:       0.121521073243
 Linear coef   :      -0.261509896687
           Qmin:  -11603.101889503798
Quadratic minimum step length (  0.519013992366) accepted
    Initial Ne1:    7233.99992396
      Final Ne1:    7234.00000000

=================== Penalty functional idempotency correction ==================
 RMS occupancy error at iteration   1:  0.000408 (step -0.4851 Ne1=   7234.0000)
 RMS occupancy error at iteration   2:  0.000010 (step -0.5002 Ne1=   7234.0000)
            Final RMS occupancy error   :  0.000000 (Ne1=   7234.0000)
               Final occupancy bounds   : [  0.0000,  1.0000]
================================================================================

    4        -1.160296119904E+04     1.1199E-04     1.0129E-04    -5.2876E-01
MG BCs: +ve charge blocks (gridpoints):     31715 (   17455516).
MG BCs: -ve charge blocks (gridpoints):      8324 (    1117394).
MG BCs:     Elided blocks (gridpoints):    183509 (  192130635).
MG BCs: Computational effort saved:  99.9810%.
MG BCs: Charge after coarse-graining:           -9.0010210.
MG DL_MG: Calling solver with defect correction order = 8
MG DL_MG: Solver finished
MG Hartree energy from (\int phi*rho dr):              1437.720301
MG Hartree energy from (\int eps (grad phi)^2 dr):     1437.086003
MG Discrepancy due to finite box and discretization:     -0.634298 (  -0.04412%)
MG Correction to account for finite box:                  0.458967
MG Remaining discrepancy, due to discretization:         -0.175331 (  -0.01220%)
      ideal mu1:      -0.768701195460
             Q0:  -11603.102454949869
             G0:      -0.228640225773
   RMS gradient:       0.000072975941
MG BCs: +ve charge blocks (gridpoints):     31716 (   17455805).
MG BCs: -ve charge blocks (gridpoints):      8322 (    1117232).
MG BCs:     Elided blocks (gridpoints):    183508 (  192130508).
MG BCs: Computational effort saved:  99.9810%.
MG BCs: Charge after coarse-graining:           -9.0010208.
MG DL_MG: Calling solver with defect correction order = 8
MG DL_MG: Solver finished
MG Hartree energy from (\int phi*rho dr):              1438.176755
MG Hartree energy from (\int eps (grad phi)^2 dr):     1437.542207
MG Discrepancy due to finite box and discretization:     -0.634548 (  -0.04412%)
MG Correction to account for finite box:                  0.459060
MG Remaining discrepancy, due to discretization:         -0.175488 (  -0.01220%)
     Trial step:       0.500352181785
             Q1:  -11603.176588839036
 Quadratic coef:       0.040266746642
 Linear coef   :      -0.114400635809
           Qmin:  -11603.183709996309
Quadratic minimum step length (  0.710767723963) accepted
    Initial Ne1:    7233.99987481
      Final Ne1:    7234.00000000

=================== Penalty functional idempotency correction ==================
 RMS occupancy error at iteration   1:  0.000880 (step -0.4412 Ne1=   7234.0000)
 RMS occupancy error at iteration   2:  0.000028 (step -0.4998 Ne1=   7234.0000)
            Final RMS occupancy error   :  0.000000 (Ne1=   7234.0000)
               Final occupancy bounds   : [ -0.0000,  1.0000]
================================================================================

    5        -1.160310245495E+04     7.2976E-05     6.6005E-05    -1.4126E-01
MG BCs: +ve charge blocks (gridpoints):     31715 (   17455901).
MG BCs: -ve charge blocks (gridpoints):      8320 (    1117171).
MG BCs:     Elided blocks (gridpoints):    183509 (  192130473).
MG BCs: Computational effort saved:  99.9810%.
MG BCs: Charge after coarse-graining:           -9.0010208.
MG DL_MG: Calling solver with defect correction order = 8
MG DL_MG: Solver finished
MG Hartree energy from (\int phi*rho dr):              1438.370601
MG Hartree energy from (\int eps (grad phi)^2 dr):     1437.735948
MG Discrepancy due to finite box and discretization:     -0.634653 (  -0.04412%)
MG Correction to account for finite box:                  0.459098
MG Remaining discrepancy, due to discretization:         -0.175555 (  -0.01221%)
      ideal mu1:      -0.768263841102
             Q0:  -11603.182240459137
             G0:      -0.198102785295
   RMS gradient:       0.000068644631
MG BCs: +ve charge blocks (gridpoints):     31712 (   17455046).
MG BCs: -ve charge blocks (gridpoints):      8328 (    1117608).
MG BCs:     Elided blocks (gridpoints):    183512 (  192130891).
MG BCs: Computational effort saved:  99.9810%.
MG BCs: Charge after coarse-graining:           -9.0010207.
MG DL_MG: Calling solver with defect correction order = 8
MG DL_MG: Solver finished
MG Hartree energy from (\int phi*rho dr):              1436.909890
MG Hartree energy from (\int eps (grad phi)^2 dr):     1436.275223
MG Discrepancy due to finite box and discretization:     -0.634666 (  -0.04417%)
MG Correction to account for finite box:                  0.459153
MG Remaining discrepancy, due to discretization:         -0.175513 (  -0.01221%)
     Trial step:       0.596350720153
             Q1:  -11603.258998845471
 Quadratic coef:       0.041380352341
 Linear coef   :      -0.118138738675
           Qmin:  -11603.266560437014
Quadratic minimum step length (  0.851275036363) accepted
    Initial Ne1:    7234.00002480
      Final Ne1:    7234.00000000

=================== Penalty functional idempotency correction ==================
 RMS occupancy error at iteration   1:  0.003122 (step -0.3350 Ne1=   7234.0000)
 RMS occupancy error at iteration   2:  0.000160 (step -0.4945 Ne1=   7234.0000)
 RMS occupancy error at iteration   3:  0.000001 (step -0.5000 Ne1=   7234.0000)
            Final RMS occupancy error   :  0.000000 (Ne1=   7234.0000)
               Final occupancy bounds   : [  0.0000,  1.0000]
================================================================================

    6        -1.160318224046E+04     6.8645E-05     6.2088E-05    -7.9786E-02
MG BCs: +ve charge blocks (gridpoints):     31712 (   17454656).
MG BCs: -ve charge blocks (gridpoints):      8329 (    1117855).
MG BCs:     Elided blocks (gridpoints):    183512 (  192131034).
MG BCs: Computational effort saved:  99.9810%.
MG BCs: Charge after coarse-graining:           -9.0010206.
MG DL_MG: Calling solver with defect correction order = 8
MG DL_MG: Solver finished
MG Hartree energy from (\int phi*rho dr):              1436.298620
MG Hartree energy from (\int eps (grad phi)^2 dr):     1435.663952
MG Discrepancy due to finite box and discretization:     -0.634668 (  -0.04419%)
MG Correction to account for finite box:                  0.459168
MG Remaining discrepancy, due to discretization:         -0.175500 (  -0.01222%)
      ideal mu1:      -0.767860960360
             Q0:  -11603.266261456651
             G0:      -0.204637112560
   RMS gradient:       0.000069137756
MG BCs: +ve charge blocks (gridpoints):     31718 (   17456039).
MG BCs: -ve charge blocks (gridpoints):      8322 (    1117137).
MG BCs:     Elided blocks (gridpoints):    183506 (  192130369).
MG BCs: Computational effort saved:  99.9810%.
MG BCs: Charge after coarse-graining:           -9.0010209.
MG DL_MG: Calling solver with defect correction order = 8
MG DL_MG: Solver finished
MG Hartree energy from (\int phi*rho dr):              1438.030112
MG Hartree energy from (\int eps (grad phi)^2 dr):     1437.395652
MG Discrepancy due to finite box and discretization:     -0.634460 (  -0.04412%)
MG Correction to account for finite box:                  0.459118
MG Remaining discrepancy, due to discretization:         -0.175342 (  -0.01219%)
     Trial step:       0.712501565601
             Q1:  -11603.339778101188
 Quadratic coef:       0.072287618541
 Linear coef   :      -0.145804263079
           Qmin:  -11603.339783325129
Quadratic minimum step length (  0.718558501525) accepted
    Initial Ne1:    7233.99999969
      Final Ne1:    7234.00000000

=================== Penalty functional idempotency correction ==================
 RMS occupancy error at iteration   1:  0.000205 (step -0.4849 Ne1=   7234.0000)
 RMS occupancy error at iteration   2:  0.000002 (step -0.5000 Ne1=   7234.0000)
            Final RMS occupancy error   :  0.000000 (Ne1=   7234.0000)
               Final occupancy bounds   : [  0.0000,  1.0000]
================================================================================

    7        -1.160326626146E+04     6.9138E-05     6.2534E-05    -8.4021E-02
MG BCs: +ve charge blocks (gridpoints):     31718 (   17456069).
MG BCs: -ve charge blocks (gridpoints):      8322 (    1117130).
MG BCs:     Elided blocks (gridpoints):    183506 (  192130346).
MG BCs: Computational effort saved:  99.9810%.
MG BCs: Charge after coarse-graining:           -9.0010209.
MG DL_MG: Calling solver with defect correction order = 8
MG DL_MG: Solver finished
MG Hartree energy from (\int phi*rho dr):              1438.045023
MG Hartree energy from (\int eps (grad phi)^2 dr):     1437.410565
MG Discrepancy due to finite box and discretization:     -0.634458 (  -0.04412%)
MG Correction to account for finite box:                  0.459118
MG Remaining discrepancy, due to discretization:         -0.175340 (  -0.01219%)
      ideal mu1:      -0.768894299179
             Q0:  -11603.339732838329
             G0:      -0.187916926320
   RMS gradient:       0.000066360952
MG BCs: +ve charge blocks (gridpoints):     31713 (   17455883).
MG BCs: -ve charge blocks (gridpoints):      8320 (    1117120).
MG BCs:     Elided blocks (gridpoints):    183511 (  192130542).
MG BCs: Computational effort saved:  99.9810%.
MG BCs: Charge after coarse-graining:           -9.0010210.
MG DL_MG: Calling solver with defect correction order = 8
MG DL_MG: Solver finished
MG Hartree energy from (\int phi*rho dr):              1437.946760
MG Hartree energy from (\int eps (grad phi)^2 dr):     1437.312384
MG Discrepancy due to finite box and discretization:     -0.634376 (  -0.04412%)
MG Correction to account for finite box:                  0.459160
MG Remaining discrepancy, due to discretization:         -0.175216 (  -0.01219%)
     Trial step:       0.715523624566
             Q1:  -11603.417503720499
 Quadratic coef:       0.056688118068
 Linear coef   :      -0.134459000238
           Qmin:  -11603.419463932609
Quadratic minimum step length (  0.848578101421) accepted
    Initial Ne1:    7233.99999927
      Final Ne1:    7234.00000000

=================== Penalty functional idempotency correction ==================
 RMS occupancy error at iteration   1:  0.001510 (step -0.4071 Ne1=   7234.0000)
 RMS occupancy error at iteration   2:  0.000061 (step -0.4968 Ne1=   7234.0000)
 RMS occupancy error at iteration   3:  0.000000 (step -0.5000 Ne1=   7234.0000)
            Final RMS occupancy error   :  0.000000 (Ne1=   7234.0000)
               Final occupancy bounds   : [  0.0000,  1.0000]
================================================================================

    8        -1.160333973284E+04     6.6361E-05     6.0022E-05    -7.3471E-02
MG BCs: +ve charge blocks (gridpoints):     31712 (   17455827).
MG BCs: -ve charge blocks (gridpoints):      8319 (    1117123).
MG BCs:     Elided blocks (gridpoints):    183512 (  192130595).
MG BCs: Computational effort saved:  99.9810%.
MG BCs: Charge after coarse-graining:           -9.0010211.
MG DL_MG: Calling solver with defect correction order = 8
MG DL_MG: Solver finished
MG Hartree energy from (\int phi*rho dr):              1437.933193
MG Hartree energy from (\int eps (grad phi)^2 dr):     1437.298833
MG Discrepancy due to finite box and discretization:     -0.634360 (  -0.04412%)
MG Correction to account for finite box:                  0.459165
MG Remaining discrepancy, due to discretization:         -0.175194 (  -0.01218%)
      ideal mu1:      -0.768515725730
             Q0:  -11603.418664809084
             G0:      -0.176989992277
   RMS gradient:       0.000064468461
MG BCs: +ve charge blocks (gridpoints):     31710 (   17454932).
MG BCs: -ve charge blocks (gridpoints):      8318 (    1117616).
MG BCs:     Elided blocks (gridpoints):    183514 (  192130997).
MG BCs: Computational effort saved:  99.9810%.
MG BCs: Charge after coarse-graining:           -9.0010209.
MG DL_MG: Calling solver with defect correction order = 8
MG DL_MG: Solver finished
MG Hartree energy from (\int phi*rho dr):              1436.747477
MG Hartree energy from (\int eps (grad phi)^2 dr):     1436.113094
MG Discrepancy due to finite box and discretization:     -0.634383 (  -0.04415%)
MG Correction to account for finite box:                  0.459219
MG Remaining discrepancy, due to discretization:         -0.175164 (  -0.01219%)
     Trial step:       0.779216066862
             Q1:  -11603.473741603666
 Quadratic coef:       0.082836651074
 Linear coef   :      -0.137913445656
           Qmin:  -11603.476067294114
Quadratic minimum step length (  0.648652325378) accepted
    Initial Ne1:    7233.99999947
      Final Ne1:    7234.00000000

=================== Penalty functional idempotency correction ==================
 RMS occupancy error at iteration   1:  0.002675 (step -0.3605 Ne1=   7234.0000)
 RMS occupancy error at iteration   2:  0.000165 (step -0.4907 Ne1=   7234.0000)
 RMS occupancy error at iteration   3:  0.000002 (step -0.5000 Ne1=   7234.0000)
            Final RMS occupancy error   :  0.000000 (Ne1=   7234.0000)
               Final occupancy bounds   : [  0.0000,  1.0000]
================================================================================

    9        -1.160341866481E+04     6.4468E-05     5.8310E-05    -7.8932E-02
MG BCs: +ve charge blocks (gridpoints):     31711 (   17455082).
MG BCs: -ve charge blocks (gridpoints):      8318 (    1117531).
MG BCs:     Elided blocks (gridpoints):    183513 (  192130932).
MG BCs: Computational effort saved:  99.9810%.
MG BCs: Charge after coarse-graining:           -9.0010209.
MG DL_MG: Calling solver with defect correction order = 8
MG DL_MG: Solver finished
MG Hartree energy from (\int phi*rho dr):              1436.940841
MG Hartree energy from (\int eps (grad phi)^2 dr):     1436.306448
MG Discrepancy due to finite box and discretization:     -0.634393 (  -0.04415%)
MG Correction to account for finite box:                  0.459230
MG Remaining discrepancy, due to discretization:         -0.175163 (  -0.01219%)
      ideal mu1:      -0.767864127856
   10        -1.160348096646E+04     5.0147E-05     4.5357E-05    -6.2302E-02
Finished density kernel iterations (  10)

Writing density kernel to file "complex_34301.vacuum_dkn" ... done


>>> Density kernel optimised for the current NGWF basis:
     ~~~~~~~~~~~~~~~~~~~~~~~~~~~~~~~~~~~~~~~~~~~~~~~~~~~~~~~~~~~
     Total energy                =  -1.16034809664566E+04  Eh
     Estimated bandgap           =  -3.8996E-01  Eh
     RMS occupancy error         =   3.0677E-10
     [H,K] commutator            =   4.5357E-05
     Occupancy bounds            = [  0.000:  1.000]
     ~~~~~~~~~~~~~~~~~~~~~~~~~~~~~~~~~~~~~~~~~~~~~~~~~~~~~~~~~~~




################################################################################
########################### NGWF CG iteration  001 #############################
################################################################################
****** Reciprocal space K.E. preconditioning with k_zero =  3.5000 a0^-1 *******

>>> Checking for convergence of NGWFs:   NOT CONVERGED
  ========================================================================
         NGWF RMS gradient =  1.5614E-03 >  2.0000E-06  | above tolerance
  ========================================================================

>>> Improving NGWFs using line search:
============ Calculation of NGWF S^-1 using Hotelling algorithm ================ 
         Iteration  |  Frobenius norm and Maximum abs value    (of I-S*S_n^-1)   
               1       0.19101268E+00     0.49702637E-02
               2       0.83460337E-03     0.35006279E-04
               3       0.27031116E-07     0.21648251E-08
               4       0.12900610E-12     0.53290705E-14
================================================================================
MG BCs: +ve charge blocks (gridpoints):     31168 (   17394156).
MG BCs: -ve charge blocks (gridpoints):      8338 (    1117633).
MG BCs:     Elided blocks (gridpoints):    184057 (  192191756).
MG BCs: Computational effort saved:  99.9813%.
MG BCs: Charge after coarse-graining:           -9.0010216.
MG DL_MG: Calling solver with defect correction order = 8
MG DL_MG: Solver finished
MG Hartree energy from (\int phi*rho dr):              1405.506788
MG Hartree energy from (\int eps (grad phi)^2 dr):     1404.873118
MG Discrepancy due to finite box and discretization:     -0.633669 (  -0.04508%)
MG Correction to account for finite box:                  0.459139
MG Remaining discrepancy, due to discretization:         -0.174530 (  -0.01242%)
============ Calculation of NGWF S^-1 using Hotelling algorithm ================ 
         Iteration  |  Frobenius norm and Maximum abs value    (of I-S*S_n^-1)   
               1       0.18495245E+01     0.42025675E-01
               2       0.70602782E-01     0.22408175E-02
               3       0.13785153E-03     0.90160866E-05
               4       0.95994568E-09     0.15679107E-09
               5       0.11141639E-12     0.53290705E-14
================================================================================
------------------------------- NGWF line search -------------------------------
RMS gradient                =       0.00156144371940
Trial step length           =               0.122474
Gradient along search dir.  =       -270.93461283059
Functional at step 0        =  -11603.48096645658370
Functional at step 1        =  -11634.17898220312782
Functional predicted        =  -11714.27347866221862
Selected quadratic step     =               0.817854
--------------------------- NGWF line search finished --------------------------
                                               
Writing NGWFs to file "complex_34301.vacuum_tightbox_ngwfs"....  done

>>> Optimising kernel for current NGWFs:
   Initial electron number for spin 1:    7268.29447345
     Final electron number for spin 1:    7234.00000000

=================== Penalty functional idempotency correction ==================
 RMS occupancy error at iteration   1:  0.004200 (step -0.4865 Ne1=   7234.0000)
 RMS occupancy error at iteration   2:  0.000067 (step -0.5002 Ne1=   7234.0000)
            Final RMS occupancy error   :  0.000000 (Ne1=   7234.0000)
               Final occupancy bounds   : [  0.0000,  1.0000]
================================================================================

................................................................................
<<<<<<<<<<<<<< LNV (Original version) density kernel optimisation >>>>>>>>>>>>>>
~~~~~~~~~~~~~~~~~~~~~~~~~~~~~~~~~~~~~~~~~~~~~~~~~~~~~~~~~~~~~~~~~~~~~~~~~~~~~~~~
   iter  |      energy (Eh)       | rms gradient |  commutator  |   dE (Eh)
MG BCs: +ve charge blocks (gridpoints):     24937 (   17122000).
MG BCs: -ve charge blocks (gridpoints):      8528 (    1101737).
MG BCs:     Elided blocks (gridpoints):    190295 (  192479808).
MG BCs: Computational effort saved:  99.9841%.
MG BCs: Charge after coarse-graining:           -9.0006696.
MG DL_MG: Calling solver with defect correction order = 8
MG DL_MG: Solver finished
MG Hartree energy from (\int phi*rho dr):              1249.506973
MG Hartree energy from (\int eps (grad phi)^2 dr):     1248.873043
MG Discrepancy due to finite box and discretization:     -0.633930 (  -0.05073%)
MG Correction to account for finite box:                  0.458647
MG Remaining discrepancy, due to discretization:         -0.175284 (  -0.01403%)
      ideal mu1:      -0.708880128670
             Q0:  -11713.456195418257
             G0:     -10.013479784275
   RMS gradient:       0.000483632628
MG BCs: +ve charge blocks (gridpoints):     25016 (   17136440).
MG BCs: -ve charge blocks (gridpoints):      8517 (    1098121).
MG BCs:     Elided blocks (gridpoints):    190216 (  192468984).
MG BCs: Computational effort saved:  99.9841%.
MG BCs: Charge after coarse-graining:           -9.0006659.
MG DL_MG: Calling solver with defect correction order = 8
MG DL_MG: Solver finished
MG Hartree energy from (\int phi*rho dr):              1265.066110
MG Hartree energy from (\int eps (grad phi)^2 dr):     1264.425840
MG Discrepancy due to finite box and discretization:     -0.640270 (  -0.05061%)
MG Correction to account for finite box:                  0.459227
MG Remaining discrepancy, due to discretization:         -0.181043 (  -0.01431%)
     Trial step:       0.710943256345
             Q1:  -11712.900980192702
 Quadratic coef:       7.674231150731
 Linear coef   :      -7.119015925177
           Qmin:  -11715.107187770049
Quadratic minimum step length (  0.329753969121) accepted
    Initial Ne1:    7233.99964346
      Final Ne1:    7234.00000000

=================== Penalty functional idempotency correction ==================
 RMS occupancy error at iteration   1:  0.000358 (step -0.4986 Ne1=   7234.0000)
 RMS occupancy error at iteration   2:  0.000000 (step -0.5000 Ne1=   7234.0000)
            Final RMS occupancy error   :  0.000000 (Ne1=   7234.0000)
               Final occupancy bounds   : [  0.0000,  1.0000]
================================================================================

    1        -1.171345619542E+04     4.8363E-04     4.3744E-04
MG BCs: +ve charge blocks (gridpoints):     24967 (   17128753).
MG BCs: -ve charge blocks (gridpoints):      8524 (    1100149).
MG BCs:     Elided blocks (gridpoints):    190265 (  192474643).
MG BCs: Computational effort saved:  99.9841%.
MG BCs: Charge after coarse-graining:           -9.0006678.
MG DL_MG: Calling solver with defect correction order = 8
MG DL_MG: Solver finished
MG Hartree energy from (\int phi*rho dr):              1255.786894
MG Hartree energy from (\int eps (grad phi)^2 dr):     1255.150107
MG Discrepancy due to finite box and discretization:     -0.636787 (  -0.05071%)
MG Correction to account for finite box:                  0.458906
MG Remaining discrepancy, due to discretization:         -0.177881 (  -0.01416%)
      ideal mu1:      -0.714330380765
             Q0:  -11715.082513331086
             G0:      -0.999726907277
   RMS gradient:       0.000153425740
MG BCs: +ve charge blocks (gridpoints):     24975 (   17128283).
MG BCs: -ve charge blocks (gridpoints):      8524 (    1100976).
MG BCs:     Elided blocks (gridpoints):    190257 (  192474286).
MG BCs: Computational effort saved:  99.9841%.
MG BCs: Charge after coarse-graining:           -9.0006678.
MG DL_MG: Calling solver with defect correction order = 8
MG DL_MG: Solver finished
MG Hartree energy from (\int phi*rho dr):              1256.882610
MG Hartree energy from (\int eps (grad phi)^2 dr):     1256.245353
MG Discrepancy due to finite box and discretization:     -0.637257 (  -0.05070%)
MG Correction to account for finite box:                  0.458996
MG Remaining discrepancy, due to discretization:         -0.178261 (  -0.01418%)
     Trial step:       0.484186287084
             Q1:  -11715.290661275969
 Quadratic coef:       0.275906114450
 Linear coef   :      -0.484054059332
           Qmin:  -11715.294821359148
Quadratic minimum step length (  0.424732047354) accepted
    Initial Ne1:    7233.99995377
      Final Ne1:    7234.00000000

=================== Penalty functional idempotency correction ==================
 RMS occupancy error at iteration   1:  0.000145 (step -0.4994 Ne1=   7234.0000)
            Final RMS occupancy error   :  0.000000 (Ne1=   7234.0000)
               Final occupancy bounds   : [ -0.0000,  1.0000]
================================================================================

    2        -1.171508251333E+04     1.5343E-04     1.3877E-04    -1.6263E+00
MG BCs: +ve charge blocks (gridpoints):     24975 (   17128309).
MG BCs: -ve charge blocks (gridpoints):      8524 (    1100937).
MG BCs:     Elided blocks (gridpoints):    190257 (  192474299).
MG BCs: Computational effort saved:  99.9841%.
MG BCs: Charge after coarse-graining:           -9.0006678.
MG DL_MG: Calling solver with defect correction order = 8
MG DL_MG: Solver finished
MG Hartree energy from (\int phi*rho dr):              1256.747956
MG Hartree energy from (\int eps (grad phi)^2 dr):     1256.110758
MG Discrepancy due to finite box and discretization:     -0.637198 (  -0.05070%)
MG Correction to account for finite box:                  0.458985
MG Remaining discrepancy, due to discretization:         -0.178213 (  -0.01418%)
      ideal mu1:      -0.715029680272
             Q0:  -11715.295264720218
             G0:      -0.156819499034
   RMS gradient:       0.000060459472
MG BCs: +ve charge blocks (gridpoints):     24976 (   17127731).
MG BCs: -ve charge blocks (gridpoints):      8524 (    1101257).
MG BCs:     Elided blocks (gridpoints):    190256 (  192474557).
MG BCs: Computational effort saved:  99.9841%.
MG BCs: Charge after coarse-graining:           -9.0006678.
MG DL_MG: Calling solver with defect correction order = 8
MG DL_MG: Solver finished
MG Hartree energy from (\int phi*rho dr):              1256.272265
MG Hartree energy from (\int eps (grad phi)^2 dr):     1255.635064
MG Discrepancy due to finite box and discretization:     -0.637201 (  -0.05072%)
MG Correction to account for finite box:                  0.459000
MG Remaining discrepancy, due to discretization:         -0.178201 (  -0.01418%)
     Trial step:       0.453485868593
             Q1:  -11715.343952500145
 Quadratic coef:       0.022427646805
 Linear coef   :      -0.071115426732
           Qmin:  -11715.351639380957
Quadratic minimum step length (  0.718975141303) accepted
    Initial Ne1:    7234.00095102
      Final Ne1:    7234.00000000

=================== Penalty functional idempotency correction ==================
 RMS occupancy error at iteration   1:  0.000113 (step -0.4964 Ne1=   7234.0000)
 RMS occupancy error at iteration   2:  0.000001 (step -0.5000 Ne1=   7234.0000)
            Final RMS occupancy error   :  0.000000 (Ne1=   7234.0000)
               Final occupancy bounds   : [  0.0000,  1.0000]
================================================================================

    3        -1.171529526472E+04     6.0459E-05     5.4684E-05    -2.1275E-01
MG BCs: +ve charge blocks (gridpoints):     24976 (   17127414).
MG BCs: -ve charge blocks (gridpoints):      8524 (    1101439).
MG BCs:     Elided blocks (gridpoints):    190256 (  192474692).
MG BCs: Computational effort saved:  99.9841%.
MG BCs: Charge after coarse-graining:           -9.0006678.
MG DL_MG: Calling solver with defect correction order = 8
MG DL_MG: Solver finished
MG Hartree energy from (\int phi*rho dr):              1255.993906
MG Hartree energy from (\int eps (grad phi)^2 dr):     1255.356703
MG Discrepancy due to finite box and discretization:     -0.637202 (  -0.05073%)
MG Correction to account for finite box:                  0.459008
MG Remaining discrepancy, due to discretization:         -0.178194 (  -0.01419%)
      ideal mu1:      -0.714189281672
             Q0:  -11715.351710483548
             G0:      -0.057144425041
   RMS gradient:       0.000036498653
MG BCs: +ve charge blocks (gridpoints):     24977 (   17127353).
MG BCs: -ve charge blocks (gridpoints):      8526 (    1101465).
MG BCs:     Elided blocks (gridpoints):    190255 (  192474727).
MG BCs: Computational effort saved:  99.9841%.
MG BCs: Charge after coarse-graining:           -9.0006678.
MG DL_MG: Calling solver with defect correction order = 8
MG DL_MG: Solver finished
MG Hartree energy from (\int phi*rho dr):              1256.007347
MG Hartree energy from (\int eps (grad phi)^2 dr):     1255.370304
MG Discrepancy due to finite box and discretization:     -0.637043 (  -0.05072%)
MG Correction to account for finite box:                  0.458968
MG Remaining discrepancy, due to discretization:         -0.178074 (  -0.01418%)
     Trial step:       0.571003560804
             Q1:  -11715.371453497792
 Quadratic coef:       0.012886655935
 Linear coef   :      -0.032629670178
           Qmin:  -11715.372365480882
Quadratic minimum step length (  0.722905071466) accepted
    Initial Ne1:    7234.00034843
      Final Ne1:    7234.00000000

=================== Penalty functional idempotency correction ==================
 RMS occupancy error at iteration   1:  0.000166 (step -0.4907 Ne1=   7234.0000)
 RMS occupancy error at iteration   2:  0.000001 (step -0.5000 Ne1=   7234.0000)
            Final RMS occupancy error   :  0.000000 (Ne1=   7234.0000)
               Final occupancy bounds   : [  0.0000,  1.0000]
================================================================================

    4        -1.171535171048E+04     3.6499E-05     3.3012E-05    -5.6446E-02
MG BCs: +ve charge blocks (gridpoints):     24977 (   17127348).
MG BCs: -ve charge blocks (gridpoints):      8526 (    1101479).
MG BCs:     Elided blocks (gridpoints):    190255 (  192474718).
MG BCs: Computational effort saved:  99.9841%.
MG BCs: Charge after coarse-graining:           -9.0006678.
MG DL_MG: Calling solver with defect correction order = 8
MG DL_MG: Solver finished
MG Hartree energy from (\int phi*rho dr):              1256.011717
MG Hartree energy from (\int eps (grad phi)^2 dr):     1255.374718
MG Discrepancy due to finite box and discretization:     -0.636999 (  -0.05072%)
MG Correction to account for finite box:                  0.458957
MG Remaining discrepancy, due to discretization:         -0.178042 (  -0.01418%)
      ideal mu1:      -0.714525362765
             Q0:  -11715.372342282441
             G0:      -0.048627297089
   RMS gradient:       0.000033724669
MG BCs: +ve charge blocks (gridpoints):     24977 (   17128509).
MG BCs: -ve charge blocks (gridpoints):      8522 (    1101050).
MG BCs:     Elided blocks (gridpoints):    190255 (  192473986).
MG BCs: Computational effort saved:  99.9841%.
MG BCs: Charge after coarse-graining:           -9.0006676.
MG DL_MG: Calling solver with defect correction order = 8
MG DL_MG: Solver finished
MG Hartree energy from (\int phi*rho dr):              1256.759504
MG Hartree energy from (\int eps (grad phi)^2 dr):     1256.122674
MG Discrepancy due to finite box and discretization:     -0.636830 (  -0.05067%)
MG Correction to account for finite box:                  0.458854
MG Remaining discrepancy, due to discretization:         -0.177976 (  -0.01416%)
     Trial step:       0.642480637786
             Q1:  -11715.392047465895
 Quadratic coef:       0.011536913393
 Linear coef   :      -0.031242096848
           Qmin:  -11715.393493273659
Quadratic minimum step length (  0.869922553160) accepted
    Initial Ne1:    7234.00035786
      Final Ne1:    7234.00000000

=================== Penalty functional idempotency correction ==================
 RMS occupancy error at iteration   1:  0.000592 (step -0.4665 Ne1=   7234.0000)
 RMS occupancy error at iteration   2:  0.000006 (step -0.5000 Ne1=   7234.0000)
            Final RMS occupancy error   :  0.000000 (Ne1=   7234.0000)
               Final occupancy bounds   : [ -0.0000,  1.0000]
================================================================================

    5        -1.171537234228E+04     3.3725E-05     3.0503E-05    -2.0632E-02
MG BCs: +ve charge blocks (gridpoints):     24977 (   17128946).
MG BCs: -ve charge blocks (gridpoints):      8522 (    1100888).
MG BCs:     Elided blocks (gridpoints):    190255 (  192473711).
MG BCs: Computational effort saved:  99.9841%.
MG BCs: Charge after coarse-graining:           -9.0006675.
MG DL_MG: Calling solver with defect correction order = 8
MG DL_MG: Solver finished
MG Hartree energy from (\int phi*rho dr):              1257.025725
MG Hartree energy from (\int eps (grad phi)^2 dr):     1256.388957
MG Discrepancy due to finite box and discretization:     -0.636768 (  -0.05066%)
MG Correction to account for finite box:                  0.458816
MG Remaining discrepancy, due to discretization:         -0.177953 (  -0.01416%)
      ideal mu1:      -0.715941462962
             Q0:  -11715.393337983638
             G0:      -0.046782967684
   RMS gradient:       0.000033059914
MG BCs: +ve charge blocks (gridpoints):     24974 (   17128789).
MG BCs: -ve charge blocks (gridpoints):      8522 (    1101082).
MG BCs:     Elided blocks (gridpoints):    190258 (  192473674).
MG BCs: Computational effort saved:  99.9841%.
MG BCs: Charge after coarse-graining:           -9.0006675.
MG DL_MG: Calling solver with defect correction order = 8
MG DL_MG: Solver finished
MG Hartree energy from (\int phi*rho dr):              1256.801867
MG Hartree energy from (\int eps (grad phi)^2 dr):     1256.165242
MG Discrepancy due to finite box and discretization:     -0.636625 (  -0.05065%)
MG Correction to account for finite box:                  0.458667
MG Remaining discrepancy, due to discretization:         -0.177959 (  -0.01416%)
     Trial step:       0.747601763494
             Q1:  -11715.415173468180
 Quadratic coef:       0.013139544601
 Linear coef   :      -0.034975029142
           Qmin:  -11715.416612242767
Quadratic minimum step length (  0.994988573033) accepted
    Initial Ne1:    7234.00039542
      Final Ne1:    7234.00000000

=================== Penalty functional idempotency correction ==================
 RMS occupancy error at iteration   1:  0.001675 (step -0.4165 Ne1=   7234.0000)
 RMS occupancy error at iteration   2:  0.000025 (step -0.4998 Ne1=   7234.0000)
            Final RMS occupancy error   :  0.000000 (Ne1=   7234.0000)
               Final occupancy bounds   : [ -0.0000,  1.0000]
================================================================================

    6        -1.171539333798E+04     3.3060E-05     2.9902E-05    -2.0996E-02
MG BCs: +ve charge blocks (gridpoints):     24974 (   17128777).
MG BCs: -ve charge blocks (gridpoints):      8522 (    1101094).
MG BCs:     Elided blocks (gridpoints):    190258 (  192473674).
MG BCs: Computational effort saved:  99.9841%.
MG BCs: Charge after coarse-graining:           -9.0006675.
MG DL_MG: Calling solver with defect correction order = 8
MG DL_MG: Solver finished
MG Hartree energy from (\int phi*rho dr):              1256.730225
MG Hartree energy from (\int eps (grad phi)^2 dr):     1256.093640
MG Discrepancy due to finite box and discretization:     -0.636585 (  -0.05065%)
MG Correction to account for finite box:                  0.458624
MG Remaining discrepancy, due to discretization:         -0.177961 (  -0.01416%)
      ideal mu1:      -0.716152393142
             Q0:  -11715.416784335859
             G0:      -0.042597186960
   RMS gradient:       0.000031543766
MG BCs: +ve charge blocks (gridpoints):     24975 (   17127359).
MG BCs: -ve charge blocks (gridpoints):      8524 (    1101470).
MG BCs:     Elided blocks (gridpoints):    190257 (  192474716).
MG BCs: Computational effort saved:  99.9841%.
MG BCs: Charge after coarse-graining:           -9.0006678.
MG DL_MG: Calling solver with defect correction order = 8
MG DL_MG: Solver finished
MG Hartree energy from (\int phi*rho dr):              1256.049163
MG Hartree energy from (\int eps (grad phi)^2 dr):     1255.412510
MG Discrepancy due to finite box and discretization:     -0.636652 (  -0.05069%)
MG Correction to account for finite box:                  0.458625
MG Remaining discrepancy, due to discretization:         -0.178027 (  -0.01417%)
     Trial step:       0.862470412163
             Q1:  -11715.425710150506
 Quadratic coef:       0.027812998747
 Linear coef   :      -0.036738813395
           Qmin:  -11715.428916616362
Quadratic minimum step length (  0.569628248626) accepted
    Initial Ne1:    7234.00003353
      Final Ne1:    7234.00000000

=================== Penalty functional idempotency correction ==================
 RMS occupancy error at iteration   1:  0.000014 (step -0.4993 Ne1=   7234.0000)
            Final RMS occupancy error   :  0.000000 (Ne1=   7234.0000)
               Final occupancy bounds   : [ -0.0000,  1.0000]
================================================================================

    7        -1.171541678434E+04     3.1544E-05     2.8531E-05    -2.3446E-02
MG BCs: +ve charge blocks (gridpoints):     24975 (   17127824).
MG BCs: -ve charge blocks (gridpoints):      8524 (    1101338).
MG BCs:     Elided blocks (gridpoints):    190257 (  192474383).
MG BCs: Computational effort saved:  99.9841%.
MG BCs: Charge after coarse-graining:           -9.0006677.
MG DL_MG: Calling solver with defect correction order = 8
MG DL_MG: Solver finished
MG Hartree energy from (\int phi*rho dr):              1256.278792
MG Hartree energy from (\int eps (grad phi)^2 dr):     1255.642162
MG Discrepancy due to finite box and discretization:     -0.636630 (  -0.05068%)
MG Correction to account for finite box:                  0.458625
MG Remaining discrepancy, due to discretization:         -0.178004 (  -0.01417%)
      ideal mu1:      -0.715699896122
             Q0:  -11715.428916328470
             G0:      -0.027192077216
   RMS gradient:       0.000025200075
MG BCs: +ve charge blocks (gridpoints):     24977 (   17127696).
MG BCs: -ve charge blocks (gridpoints):      8523 (    1101386).
MG BCs:     Elided blocks (gridpoints):    190255 (  192474463).
MG BCs: Computational effort saved:  99.9841%.
MG BCs: Charge after coarse-graining:           -9.0006677.
MG DL_MG: Calling solver with defect correction order = 8
MG DL_MG: Solver finished
MG Hartree energy from (\int phi*rho dr):              1256.091642
MG Hartree energy from (\int eps (grad phi)^2 dr):     1255.454984
MG Discrepancy due to finite box and discretization:     -0.636658 (  -0.05069%)
MG Correction to account for finite box:                  0.458593
MG Remaining discrepancy, due to discretization:         -0.178065 (  -0.01418%)
     Trial step:       0.700919046946
             Q1:  -11715.439913495211
 Quadratic coef:       0.008062278106
 Linear coef   :      -0.019059444847
[...]
MG Hartree energy from (\int phi*rho dr):              1214.709901
MG Hartree energy from (\int eps (grad phi)^2 dr):     1214.526634
MG Discrepancy due to finite box and discretization:     -0.183267 (  -0.01509%)
MG Correction to account for finite box:                  0.006201
MG Remaining discrepancy, due to discretization:         -0.177066 (  -0.01458%)
             Q2:  -11749.719461045577
  Cubic LS coeff:       0.959755793294
Predicted energy:  -11749.719461045659
Cubic minimum step length accepted
    Initial Ne1:    7234.00000000
      Final Ne1:    7234.00000000

=================== Penalty functional idempotency correction ==================
 RMS occupancy error at iteration   1:  0.000000 (step -0.5000 Ne1=   7234.0000)
            Final RMS occupancy error   :  0.000000 (Ne1=   7234.0000)
               Final occupancy bounds   : [  0.0000,  1.0000]
================================================================================

    7        -1.174971946104E+04     8.7136E-09     7.8813E-09    -2.3283E-09

Reusing previously generated solute cavity.
MG BCs: +ve charge blocks (gridpoints):     29307 (   19346857).
MG BCs: -ve charge blocks (gridpoints):      8521 (    1069733).
MG BCs:     Elided blocks (gridpoints):    185925 (  190286955).
MG BCs: Computational effort saved:  99.9820%.
MG BCs: Charge after coarse-graining:           -9.0009725.
MG DL_MG: Calling solver with defect correction order = 8
MG DL_MG: Solver finished
MG Hartree energy from (\int phi*rho dr):              1214.709898
MG Hartree energy from (\int eps (grad phi)^2 dr):     1214.526631
MG Discrepancy due to finite box and discretization:     -0.183267 (  -0.01509%)
MG Correction to account for finite box:                  0.006201
MG Remaining discrepancy, due to discretization:         -0.177066 (  -0.01458%)
      ideal mu1:      -0.480979580603
             Q0:  -11749.719461045577
             G0:      -0.000000003455
   RMS gradient:       0.000000011542

Reusing previously generated solute cavity.
MG BCs: +ve charge blocks (gridpoints):     29307 (   19346857).
MG BCs: -ve charge blocks (gridpoints):      8521 (    1069733).
MG BCs:     Elided blocks (gridpoints):    185925 (  190286955).
MG BCs: Computational effort saved:  99.9820%.
MG BCs: Charge after coarse-graining:           -9.0009725.
MG DL_MG: Calling solver with defect correction order = 8
MG DL_MG: Solver finished
MG Hartree energy from (\int phi*rho dr):              1214.709876
MG Hartree energy from (\int eps (grad phi)^2 dr):     1214.526609
MG Discrepancy due to finite box and discretization:     -0.183267 (  -0.01509%)
MG Correction to account for finite box:                  0.006201
MG Remaining discrepancy, due to discretization:         -0.177066 (  -0.01458%)
     Trial step:       0.710997408725
             Q1:  -11749.719461046625
 Quadratic coef:       0.000000001408
 Linear coef   :      -0.000000002456
           Qmin:  -11749.719461046649
Quadratic minimum step length (  0.620186588296) accepted
    Initial Ne1:    7234.00000000
      Final Ne1:    7234.00000000

=================== Penalty functional idempotency correction ==================
 RMS occupancy error at iteration   1:  0.000000 (step -0.5000 Ne1=   7234.0000)
            Final RMS occupancy error   :  0.000000 (Ne1=   7234.0000)
               Final occupancy bounds   : [  0.0000,  1.0000]
================================================================================

    8        -1.174971946105E+04     1.1542E-08     1.0439E-08    -3.3760E-09

Reusing previously generated solute cavity.
MG BCs: +ve charge blocks (gridpoints):     29307 (   19346857).
MG BCs: -ve charge blocks (gridpoints):      8521 (    1069733).
MG BCs:     Elided blocks (gridpoints):    185925 (  190286955).
MG BCs: Computational effort saved:  99.9820%.
MG BCs: Charge after coarse-graining:           -9.0009725.
MG DL_MG: Calling solver with defect correction order = 8
MG DL_MG: Solver finished
MG Hartree energy from (\int phi*rho dr):              1214.709879
MG Hartree energy from (\int eps (grad phi)^2 dr):     1214.526612
MG Discrepancy due to finite box and discretization:     -0.183267 (  -0.01509%)
MG Correction to account for finite box:                  0.006201
MG Remaining discrepancy, due to discretization:         -0.177066 (  -0.01458%)
      ideal mu1:      -0.480979557341
             Q0:  -11749.719461046625
             G0:      -0.000000004636
   RMS gradient:       0.000000009794

Reusing previously generated solute cavity.
MG BCs: +ve charge blocks (gridpoints):     29307 (   19346858).
MG BCs: -ve charge blocks (gridpoints):      8521 (    1069733).
MG BCs:     Elided blocks (gridpoints):    185925 (  190286954).
MG BCs: Computational effort saved:  99.9820%.
MG BCs: Charge after coarse-graining:           -9.0009725.
MG DL_MG: Calling solver with defect correction order = 8
MG DL_MG: Solver finished
MG Hartree energy from (\int phi*rho dr):              1214.709821
MG Hartree energy from (\int eps (grad phi)^2 dr):     1214.526554
MG Discrepancy due to finite box and discretization:     -0.183267 (  -0.01509%)
MG Correction to account for finite box:                  0.006201
MG Remaining discrepancy, due to discretization:         -0.177066 (  -0.01458%)
     Trial step:       0.664041457444
             Q1:  -11749.719461044879
 Quadratic coef:       0.000000004824
 Linear coef   :      -0.000000003079
           Qmin:  -11749.719461047116
Quadratic minimum step length (  0.211887542718) accepted
    Initial Ne1:    7234.00000000
      Final Ne1:    7234.00000000

=================== Penalty functional idempotency correction ==================
 RMS occupancy error at iteration   1:  0.000000 (step -0.5000 Ne1=   7234.0000)
            Final RMS occupancy error   :  0.000000 (Ne1=   7234.0000)
               Final occupancy bounds   : [  0.0000,  1.0000]
================================================================================

    9        -1.174971946105E+04     9.7939E-09     8.8584E-09    -1.0477E-09

Reusing previously generated solute cavity.
MG BCs: +ve charge blocks (gridpoints):     29307 (   19346858).
MG BCs: -ve charge blocks (gridpoints):      8521 (    1069733).
MG BCs:     Elided blocks (gridpoints):    185925 (  190286954).
MG BCs: Computational effort saved:  99.9820%.
MG BCs: Charge after coarse-graining:           -9.0009725.
MG DL_MG: Calling solver with defect correction order = 8
MG DL_MG: Solver finished
MG Hartree energy from (\int phi*rho dr):              1214.709860
MG Hartree energy from (\int eps (grad phi)^2 dr):     1214.526594
MG Discrepancy due to finite box and discretization:     -0.183267 (  -0.01509%)
MG Correction to account for finite box:                  0.006201
MG Remaining discrepancy, due to discretization:         -0.177066 (  -0.01458%)
      ideal mu1:      -0.480979532728
   10        -1.174971946105E+04     5.6526E-09     5.1127E-09     0.0000E+00
Finished density kernel iterations (  10)

Writing density kernel to file "complex_34301.dkn" ... done


>>> Density kernel optimised for the current NGWF basis:
     ~~~~~~~~~~~~~~~~~~~~~~~~~~~~~~~~~~~~~~~~~~~~~~~~~~~~~~~~~~~
     Total energy                =  -1.17497194610466E+04  Eh
     Estimated bandgap           =   9.4429E-02  Eh
     RMS occupancy error         =   4.0291E-16
     [H,K] commutator            =   5.1127E-09
     Occupancy bounds            = [  0.000:  1.000]
     ~~~~~~~~~~~~~~~~~~~~~~~~~~~~~~~~~~~~~~~~~~~~~~~~~~~~~~~~~~~




################################################################################
########################### NGWF CG iteration  004 #############################
################################################################################
****** Reciprocal space K.E. preconditioning with k_zero =  3.5000 a0^-1 *******

>>> Checking for convergence of NGWFs: 
           ........................................................
           |         *** NGWF optimisation converged ***          |
           | RMS NGWF gradient =    0.00000195110637              |
           | Criteria satisfied:                                  |
           | -> RMS NGWF gradient lower than set threshold.       |
           ========================================================

Reusing previously generated solute cavity.
MG BCs: +ve charge blocks (gridpoints):     29307 (   19346858).
MG BCs: -ve charge blocks (gridpoints):      8521 (    1069733).
MG BCs:     Elided blocks (gridpoints):    185925 (  190286954).
MG BCs: Computational effort saved:  99.9820%.
MG BCs: Charge after coarse-graining:           -9.0009725.
MG DL_MG: Calling solver with defect correction order = 8
MG DL_MG: Solver finished
MG Hartree energy from (\int phi*rho dr):              1214.709860
MG Hartree energy from (\int eps (grad phi)^2 dr):     1214.526594
MG Discrepancy due to finite box and discretization:     -0.183267 (  -0.01509%)
MG Correction to account for finite box:                  0.006201
MG Remaining discrepancy, due to discretization:         -0.177066 (  -0.01458%)

================================================================================
           ---------------- ENERGY COMPONENTS (Eh) ----------------
           | Kinetic                    :     8585.88040669617476 |
           | Pseudo. (local,OBC,corr'd) :    -5085.20776506270613 |
           | Pseudopotential (non-local):     1411.24628239164349 |
           | Hartree (molecular)        :     1214.70986039876220 |
           | Exchange-correlation       :    -3378.13870128042208 |
           | Ion-ion (open BC)          :   834057.99112542858347 |
           | Dispersion Correction      :       -3.26881328644050 |
           | Smeared ion non-self corr. :  -834009.64876654150430 |
           | Smeared ion self corr.     :   -14543.93950988473262 |
           | Solvent cavitation energy  :        2.33539124417487 |
           | Solute-solvent dis-rep en. :       -1.67897115021842 |
           | Total                      :   -11749.71946104674498 |
           --------------------------------------------------------
           ------ LOCAL ENERGY COMPONENTS FROM MATRIX TRACES ------
           | Pseudopotential (local)    :    -5085.20776506270613 |
           | Hartree                    :    -2001.66437498595997 |
           --------------------------------------------------------
           Integrated density           :     7233.99999999883948
           Integrated density tr(KS)    :     7234.00000000000000
================================================================================


                        <<<<< CALCULATION SUMMARY >>>>>                         
|ITER|    RMS GRADIENT   |     TOTAL ENERGY    |   step   |     Epredicted              
   0     0.00003872253279 -11749.65889115678146   0.626103 -11749.71105325972530        
   1     0.00001011266981 -11749.71880918915849   0.095583 -11749.71935230844065        
   2     0.00000441254913 -11749.71943994052708   0.017046 -11749.71945838123793        
   3     0.00000195110637 -11749.71946104662493  <-- CG                                 

=================== Finished the calculation in solvent ========================
= Adjusting the following parameters: 
= read_denskern: F
= read_tightbox_ngwfs: F
= maxit_pen: 0 (restored to user-specified value)
= restart read filename prefix: ""
= restart write filename prefix: ""
================================================================================

================================================================================
IS: Calculation in solvent completed (NGWFs converged).      

Individual components of total energy in solvent:     hartree           kcal/mol
- Usual non-electrostatic DFT terms:    -12965.08574153934205    -8135713.958351
- Electrostatic fixed charge energy:      1214.70986039876220      762241.929101
- Apolar cavitation energy:                  2.33539124417487        1465.480100
- Apolar dispersion-repulsion energy:       -1.67897115021842       -1053.570281
 -------------------------------------------------------------------------------
- Total energy in solvent:              -11749.71946104662493    -7373060.119431

Components of total energy in solvent:                hartree           kcal/mol
- Usual non-electrostatic DFT terms:    -12965.08574153934205    -8135713.958351
- Electrostatic energy:                   1214.70986039876220      762241.929101
- Apolar energy terms:                       0.65642009395645         411.909819
 -------------------------------------------------------------------------------
- Total energy in solvent:              -11749.71946104662493    -7373060.119431

Calculation of free energy of solvation:              hartree           kcal/mol
- Total energy in solvent:         (+)  -11749.71946104662493    -7373060.119431
- Total energy in vacuum:          (-)  -11745.95794148626737    -7370699.730321
 -------------------------------------------------------------------------------
- Total free energy of solvation:           -3.76151956035756       -2360.389110

Components of polar term in f.e. of solvation:        hartree           kcal/mol
- Electrostatic:                            -4.61434797588504       -2895.547009
- Change in nonelectrostatic DFT terms:      0.19640832157347         123.248080
 -------------------------------------------------------------------------------
- Polar term in f.e. of solvation:          -4.41793965431157       -2772.298929

Components of free energy of solvation:               hartree           kcal/mol
- Polar term in f.e. of solvation: (+)      -4.41793965431157       -2772.298929
- Apolar (cavitation, dis., rep.): (+)       0.65642009395645         411.909819
 -------------------------------------------------------------------------------
- Total free energy of solvation:           -3.76151956035512       -2360.389110
================================================================================


------------------------------ TIMING INFORMATION ------------------------------
AVERAGE TIME:   31603.429s on     60 node(s)                                    
TOTAL TIME:     31603.430s on     60 node(s)                                    
================= AVERAGE TIMINGS FROM ALL NODES (CUMULATIVE) ==================
|| TAG                                    #calls    cpu time   %total  Gflops ||
|| work_imbalance                       :     1        0.00s   0.000%  ------ ||
|| sparse_set_to_garbage                :   164        0.03s   0.000%  ------ ||
|| parallel_prepare_fd_halos_request    :  1827        0.03s   0.000%  ------ ||
|| parallel_prepare_fd_halos_alloc      :  1827        0.09s   0.000%  ------ ||
|| ngwfs_initialise_from_radial         :     1        0.11s   0.000%  ------ ||
|| basis_extract_function_from_box      :  3380        0.15s   0.000%  ------ ||
|| parallel_prepare_fd_halos_satisfy    :  1827        0.57s   0.002%  ------ ||
|| pseudopotentials_nonlocal_mat        :    28        1.05s   0.003%  ------ ||
|| openbc_locps_radial                  :     1        3.05s   0.010%  ------ ||
|| density_init_guess_real              :     1        3.82s   0.012%  ------ ||
|| restart_kernel_read                  :     1        4.53s   0.014%  ------ ||
|| restart_ngwfs_tightbox_input         :     1        8.64s   0.027%  ------ ||
|| parallel_prepare_fd_halos_comms_imbal:  1827        9.50s   0.030%  ------ ||
|| parallel_prepare_fd_halos_clear      :  1827       19.54s   0.062%  ------ ||
|| sparse_init                          :     2       22.34s   0.071%  ------ ||
|| projectors_func_ovlp_box             :    28       26.74s   0.085%  ------ ||
|| projectors_init_fftbox_recip         :   133       27.46s   0.087%  ------ ||
|| parallel_prepare_fd_halos_comms_wait :  1827       27.81s   0.088%  ------ ||
|| function_ops_brappd_ketppd           :    28       27.97s   0.089%  ------ ||
|| palser_mano_kernel_optimise          :     1       34.16s   0.108%  ------ ||
|| basis_copy_function_to_box           : 54852       42.20s   0.134%  ------ ||
|| ngwf_gradient_coeffs                 :    15       44.99s   0.142%  ------ ||
|| fourier_apply_box_pair               :  4811       53.61s   0.170% 589.492 ||
|| pseudo_make_structure_factor         :     2       55.70s   0.176%  ------ ||
|| parallel_prepare_fd_halos            :  1827       57.57s   0.182%  ------ ||
|| sparse_embed_hotelling_invert_embed  :    28       71.52s   0.226%  ------ ||
|| restart_kernel_write                 :    16       93.09s   0.295%  ------ ||
|| finite_difference_derivative         :  1827      129.55s   0.410%  ------ ||
|| integrals_kinetic                    :    28      145.27s   0.460%  ------ ||
|| basis_dot_function_with_box          : 8.403M     159.33s   0.504%  ------ ||
|| sparse_trace                         :  5353      167.74s   0.531%  ------ ||
|| projectors_gradient_batch            :   105      172.42s   0.546%  ------ ||
|| fourier_apply_cell_backward          :  1219      191.83s   0.607%  94.883 ||
|| fourier_apply_cell_forward           :  1217      218.57s   0.692%  83.137 ||
|| kernel_purify                        :   464      273.75s   0.866%  ------ ||
|| openbc_locps_on_grid                 :     2      284.83s   0.901%  ------ ||
|| basis_add_function_to_box            : 17.48M     377.42s   1.194%  ------ ||
|| lnv_gradient_norm                    :   150      397.92s   1.259%  ------ ||
|| xc_energy_potential                  :   304      478.21s   1.513%  ------ ||
|| hamiltonian_energy_components        :     4      524.66s   1.660%  ------ ||
|| kernel_fix                           :   150      551.26s   1.744%  ------ ||
|| integrals_locpot_mat_els_batch       :  1113      676.38s   2.140%  ------ ||
|| ngwf_gradient_build_batch            :   105      792.35s   2.507%  ------ ||
|| restart_ngwfs_tightbox_output        :    13     1013.56s   3.207%  ------ ||
|| ngwf_gradient_batch                  :   105     1080.93s   3.420%  ------ ||
|| ngwf_gradient_lnv                    :    15     1210.32s   3.830%  ------ ||
|| density_batch_row_sums               :  2121     1212.15s   3.836%  ------ ||
|| cell_grid_deposit_box_real           : 35200     1240.95s   3.927%  ------ ||
|| sparse_product                       :  6469     1771.97s   5.607%  ------ ||
|| density_fftbox_deposit_to_cell       : 33330     1974.76s   6.249%  ------ ||
|| cell_grid_extract_box_real           : 38596     2031.19s   6.427%  ------ ||
|| potential_apply_to_ngwf_batch        :  1113     3856.96s  12.204%  ------ ||
|| density_fftbox_interpolate_multiply  : 33330     3940.40s  12.468%  ------ ||
|| integrals_locpot_dbl_grid            :   159     4554.86s  14.413%  ------ ||
|| fourier_apply_box                    : 114.7k    4752.79s  15.039% 767.901 ||
|| multigrid_prepare_bound_cond         :   304     4878.11s  15.435%  ------ ||
|| density_batch_interp_deposit         :  2121     6852.26s  21.682%  ------ ||
|| dl_mg_solver_calls                   :   304     7449.93s  23.573%  ------ ||
|| density_on_dbl_grid                  :   303     8320.74s  26.329%  ------ ||
|| multigrid_calculate_hartree          :   304    12503.79s  39.565%  ------ ||
|| hamiltonian_lhxc_calculate           :   299    21229.40s  67.174%  ------ ||
|| lnv_denskernel_optimise_cg           :    15    26576.93s  84.095%  ------ ||
|| ngwf_cg_optimise                     :     2    30615.35s  96.874%  ------ ||
|| total_time                           :     1    31603.43s 100.000%  ------ ||
================================================================================
Overhead of generating timer report: 
- 0 ms averaging over threads,
- 15 ms ensuring consistency across MPI ranks,
- 0 ms printing in order.

Job completed: 08-05-2020 07:18 (+0100)

Application 40524026 resources: utime ~6498021s, stime ~325820s, Rss ~4167788, inblocks ~310861956, outblocks ~64585775
