 +---------------------------------------------------------------+
 |                                                               |
 |        ####### #     # ####### ####### ####### ######         |
 |        #     # ##    # #          #    #       #     #        |
 |        #     # # #   # #          #    #       #     #        |
 |        #     # #  #  # #####      #    #####   ######         |
 |        #     # #   # # #          #    #       #              |
 |        #     # #    ## #          #    #       #              |
 |        ####### #     # #######    #    ####### #              |
 |                                                               |
 |        Linear-Scaling Ab Initio Total Energy Program          |
 |                                                               |
 |          Release for academic collaborators of ODG            |
 |                                             Version 5.3.2.6.  |
 |                                                               |
 +---------------------------------------------------------------+
 |                                                               |
 |  Authors:                                                     |
 |  Jacek Dziedzic, Peter D. Haynes, Nicholas D. M. Hine,        |
 |  Arash. A. Mostofi, Mike C. Payne and Chris-Kriton Skylaris   |
 |                                                               |
 |  Contributors:                                                |
 |  J. Aarons, L. Andrinopoulos, P. W. Avraam, R. A. Bell,       |
 |  A. Bhandari, G. A. Bramley, R. J. Charlton, S. J. Clark,     |
 |  R. J. Clements, G. C. Constantinescu, F. Corsetti,           |
 |  N. Corsini, O. Dieguez, S. M. M. Dubois, K. K. B. Duff,      |
 |  J. M. Escartin, A. Greco, H. Helal, Q. O. Hill, L. P. Lee,   |
 |  J.-H. Li, E. B. Linscott, G. Moynihan, D. D. O`Regan,        |
 |  O. K. Okan, M. J. S. Phipps, C. J. Pickard,                  |
 |  J. C. A. Prentice, M. I. J. Probert, L. E. Ratcliff,         |
 |  M. Robinson, A. Ruiz Serrano, J. S. Spencer, E. W. Tait,     |
 |  G. Teobaldi, D. Turban, V. Vitale, K. A. Wilkinson,          |
 |  C. Weber, J. C. Womack, N. Yeung and T. J. Zuehlsdorff       |
 |                                                               |
 |                                   Copyright (c) 2004-2019     |
 |                                                               |
 |  Please cite:                                                 |
 |  "Introducing ONETEP: Linear-scaling density functional       |
 |   simulations on parallel computers".                         |
 |   C.-K. Skylaris, P. D. Haynes, A. A. Mostofi, M. C. Payne.   |
 |   J. Chem. Phys. 122 084119 (2005).                           |
 |                                                               |
 |          in all publications arising from your use of ONETEP. |
 |                                                               |
 +---------------------------------------------------------------+
 |                                                               |
 |   ONETEP is based on developments described in the following  |
 |   publications:                                               |
 |                                                               |
 |  "Nonorthogonal generalized Wannier function pseudopotential  |
 |   plane-wave method".                                         |
 |   C.-K. Skylaris, A. A. Mostofi, P. D. Haynes, O. Dieguez,    |
 |   M. C. Payne.                                                |
 |   Phys. Rev. B 66 035119 (2002).                              |
 |                                                               |
 |  "Preconditioned iterative minimization for linear-scaling    |
 |   electronic structure calculations".                         |
 |   A. A. Mostofi, P. D. Haynes, C.-K. Skylaris, M. C. Payne.   |
 |   J. Chem. Phys. 119(17), pp.8842-8848 (2003).                |
 |                                                               |
 |  "Total-energy calculations on a real space grid with         |
 |   localized functions and a plane-wave basis".                |
 |   A. A. Mostofi, C.-K. Skylaris, P. D. Haynes, M. C. Payne.   |
 |   Comput. Phys. Commun. 147, pp.788-802 (2002).               |
 |                                                               |
 |  "Accurate kinetic energy evaluation in electronic structure  |
 |   calculations with localized functions on real space grids"  |
 |   C.-K. Skylaris, A. A. Mostofi, P. D. Haynes, C. J. Pickard, |
 |   M. C. Payne.                                                |
 |   Comput. Phys. Commun. 140, pp.315-322 (2001).               |
 |                                                               |
 |  "Accurate ionic forces and geometry optimization in linear-  |
 |   scaling density-functional theory with local orbitals"      |
 |   N. D. M. Hine, M. Robinson, P. D. Haynes, C.-K. Skylaris,   |
 |   M. C. Payne, and A. A. Mostofi.                             |
 |   Phys. Rev. B 83 195102 (2011).                              |
 |                                                               |
 +---------------------------------------------------------------+

Job started: 07-05-2020 06:58 (+0100)
 
Reading parameters from file "complex_28981.dat" ...... done

If your calculation crashes here, before "Checking processes and threads..."
is displayed, then your stack size is insufficient.
If so, use "ulimit -s unlimited" at runtime.
You can disable this check with "check_stack_size F".

Checking processes and threads...
   Determining the default number of threads...
      No default threads set at compilation time: defaulting to 1.
      OpenMP library call suggests 4 threads.
      Hybrid MPI-OpenMP compilation detected.
      Number of MPI processes > 1.
      OMP_NUM_THREADS environment variable present and
      its value matches the one obtained from the OpenMP library call.
      Using this value as default.
      Default threads: 4
      Default applies to threads_max and threads_num_fftboxes.
      Settings in the input file override this default.
   ... done

   Running with 60 MPI processes.
   There are 6 MPI processes running on the same node as the root process.
   Each MPI process is using: 
               1 threads for simulation cell FFTs.
               1 threads for parallel FFT box operations.
               4 threads for loops over batched FFT box operations.
               4 threads in other parallel regions.
... done

Basic input checks...... done

Reading geometry and species blocks from file "complex_28981.dat" ...
  <species_atomic_set> block not found: NGWF initialisation set to SOLVE
IS: Dielectric excluded regions:
    - NONE.
    
  Number of PPD points along a3 set to 1.  This is 
  the default value, it may have been provided also in the input file.
... done
 Writing xyz coordinates to file "complex_28981.xyz" ... done


--------------------------------------------------------------------------------
---------------------------------- INPUT FILE ----------------------------------
--------------------------------------------------------------------------------

cutoff_energy       : 800 eV                                                    
xc_functional PBE                                                               
task SINGLEPOINT                                                                
write_xyz true                                                                  
output_detail VERBOSE                                                           
ngwf_threshold_orig : 0.000002                                                  
kernel_cutoff       : 1000                                                      
k_zero              : 3.5                                                       
elec_cg_max 0                                                                   
occ_mix 1.0                                                                     
dispersion 1                                                                    
maxit_ngwf_cg 40                                                                
minit_lnv 10                                                                    
maxit_lnv 10                                                                    
write_denskern T                                                                
write_tightbox_ngwfs T                                                          
charge 9                                                                        
is_implicit_solvent T                                                           
is_auto_solvation T                                                             
is_include_apolar T                                                             
is_smeared_ion_rep T                                                            
is_solvent_surf_tension 4.7624E-5 Ha/bohr**2                                    
is_apolar_scaling_factor 0.281075                                               
is_solvation_beta 1.3                                                           
is_density_threshold 0.00035                                                    
is_bulk_permittivity 78.54                                                      
is_dielectric_model fix_initial                                                 
is_smeared_ion_width 0.8                                                        
mg_defco_fd_order 8                                                             
is_bc_coarseness 10                                                             
is_bc_surface_coarseness 1                                                      
fine_grid_scale 2.0                                                             
%block species                                                                  
N   N   7 4 8.0                                                                 
H   H   1 1 8.0                                                                 
C   C   6 4 8.0                                                                 
S   S  16 9 8.0                                                                 
O   O   8 4 8.0                                                                 
%endblock species                                                               
%block species_pot                                                              
N   N_00.recpot                                                                 
H   H_04.recpot                                                                 
C   C_01.recpot                                                                 
S   S_00.recpot                                                                 
O   O_02.recpot                                                                 
%endblock species_pot                                                           
%block lattice_cart                                                             
142.669   0.000   0.000                                                         
0.000 146.65   0.000                                                            
0.000   0.000   162.396                                                         
%endblock lattice_cart                                                          
%block positions_abs                                                            
     Hash =  -000007439434286294974298
%endblock positions_abs                                                         

--------------------------------------------------------------------------------
-------------------------------- END INPUT FILE --------------------------------
--------------------------------------------------------------------------------


 
 ESDF WARNING(1): "kernelcutoff" (esdf_physical) has no units. Assume "bohr".
 ESDF WARNING(2): "kzero" (esdf_physical) has no units. Assume "1/bohr".
 ESDF WARNING(3
 ): "issmearedionwidth" (esdf_physical) has no units. Assume "bohr".
<<<<<<<<<<<<<<<<<<<<<<<<<<<<<<<<< Full system >>>>>>>>>>>>>>>>>>>>>>>>>>>>>>>>>>
<<<<<<<<<<<<<<<<<<<<<<<<< Pseudopotential information >>>>>>>>>>>>>>>>>>>>>>>>>>
File: N_00.recpot [ 2001 points up to Gmax=  52.9 (1/bohr)]
  Atomic number:  7;  ionic charge:  5.000000
    Shell 1: l = 0; rc = 1.48 bohr
File: H_04.recpot [ 2001 points up to Gmax=  52.9 (1/bohr)]
  Atomic number:  1;  ionic charge:  1.000000
    Local potential
File: C_01.recpot [ 2001 points up to Gmax=  52.9 (1/bohr)]
  Atomic number:  6;  ionic charge:  4.000000
    Shell 1: l = 0; rc = 1.48 bohr
File: S_00.recpot [ 2001 points up to Gmax=  52.9 (1/bohr)]
  Atomic number: 16;  ionic charge:  6.000000
    Shell 1: l = 0; rc = 1.90 bohr
    Shell 2: l = 2; rc = 1.84 bohr
File: O_02.recpot [ 2001 points up to Gmax=  52.9 (1/bohr)]
  Atomic number:  8;  ionic charge:  6.000000
    Shell 1: l = 0; rc = 1.31 bohr
<<<<<<<<<<<<<<<<<<<<<<<<<<<<<<<<<<<<<<<<>>>>>>>>>>>>>>>>>>>>>>>>>>>>>>>>>>>>>>>>

-------------------------- Atom counting information ---------------------------
Symbol    Natoms    Nngwfs    Nprojs
  N        236       944       236
  H       1317      1317         0
  C        816      3264       816
  S          6        54        36
  O        241       964       241
.......   ......    ......    ......
Totals:   2616      6543      1329
--------------------------------------------------------------------------------

=============================== PSINC grid sizes ===============================
                      Simulation cell:  286 x 294 x 320
                              FFT-box:  105 x 105 x  99
                                  PPD:   11 x   6 x   1
Grid space d1=  0.498842657343a0 (KE cutoff=  30.52649Eh = 830.66799eV)
Grid space d2=  0.498809523810a0 (KE cutoff=  30.53054Eh = 830.77835eV)
Grid space d3=  0.507487500000a0 (KE cutoff=  29.49533Eh = 802.60885eV)
================================================================================

********************* Fourier parallelisation information **********************
       Coarse grid (whole simulation cell) dimensions:    286   294   320
          Real-space ('12') slabs/node (min max mean):      5     6     5
         Recip-space ('23') slabs/node (min max mean):      2     3     2
********************************************************************************

********************* Fourier parallelisation information **********************
       Double grid (whole simulation cell) dimensions:    572   588   640
          Real-space ('12') slabs/node (min max mean):     10    11    10
         Recip-space ('23') slabs/node (min max mean):      4     5     4
********************************************************************************
ONETEP fine grid is 572 x 588 x 640 gridpoints, 142.6690 x 146.6500 x 162.3960 bohr.
FD multigrid is     569 x 585 x 633 gridpoints, 141.9207 x 145.9018 x 160.6198 bohr.


Calculating local pseudopotential in open BC on a radial grid ...
Discrepancy between calculated realspace psloc and -Z/x on [5a0,261.215a0]:
max |rel. diff| # avg |rel. diff| #  avg rel. diff #  f # pseudopotential file
 0.000261901569    0.000004963664   0.000000071970   55  'N_00.recpot'
 0.000422260137    0.000017549664  -0.000000063361   55  'H_04.recpot'
 0.000361991046    0.000016543264   0.000000134927   55  'C_01.recpot'
 0.000447743184    0.000019132268   0.000000438157   55  'S_00.recpot'
 0.000711628927    0.000028437426   0.000000135877   55  'O_02.recpot'
... done

Atom SCF Calculation for N  : Z (AE atom) =   7 : Z (PS atom) =   5
Config String:
Orbitals (num,occ):  2     2.00 3.00
Orbitals   (num,l):  2        0    1
Real-space Grid (nr,dr,rmax): 1203    0.0066555740    8.0000000000
Spherical Bessel Basis (nsws,lmax,cutoff):   47    1  176.3951722778
Confining potential (l,width,scale):  0    3.0000000000  100.0000000000
Confining potential (l,width,scale):  1    3.0000000000  100.0000000000
  1         -4.7312375307   -3.4155304497    7.0523828109   -1.9351020946
  2         -9.7309464766   -2.0532547791    8.2966052865   -2.2494486027
  3         -9.6627394379   -2.1124926340    8.2327997121   -2.2369778124
  4         -9.6814993499   -2.1215521045    8.2229805960   -2.2365178421
  5         -9.6843326483   -2.1250939529    8.2191374534   -2.2362718126
  6         -9.6859628709   -2.1267894855    8.2172963573   -2.2362066344
  7         -9.6867347035   -2.1276425665    8.2163697352   -2.2361903369
  8         -9.6870802100   -2.1280764625    8.2158983890   -2.2361891460
  9         -9.6872290423   -2.1282977424    8.2156580222   -2.2361920435
 10         -9.6872901988   -2.1284107021    8.2155353368   -2.2361953393
 11         -9.6873135296   -2.1284684031    8.2154726809   -2.2361979819
 12         -9.6873212476   -2.1284978948    8.2154406648   -2.2361998431
 13         -9.6873229586   -2.1285129774    8.2154242957   -2.2362010676
 14         -9.6873226456   -2.1285206957    8.2154159216   -2.2362018403
 15         -9.6873218534   -2.1285246479    8.2154116349   -2.2362023142
 16         -9.6873212599   -2.1285262679    8.2154098784   -2.2362025420
 17         -9.6873207834   -2.1285272564    8.2154088068   -2.2362026955
 18         -9.6873204210   -2.1285278596    8.2154081529   -2.2362027982
 19         -9.6873201550   -2.1285282280    8.2154077538   -2.2362028667
 20         -9.6873199645   -2.1285284529    8.2154075102   -2.2362029121
 21         -9.6873198305   -2.1285285903    8.2154073614   -2.2362029421
 22         -9.6873197377   -2.1285286742    8.2154072705   -2.2362029618
Atom SCF converged after  22 iterations to a total energy of     -9.68731974

Atom SCF Calculation for H  : Z (AE atom) =   1 : Z (PS atom) =   1
Config String:
Orbitals (num,occ):  1     1.00
Orbitals   (num,l):  1        0
Real-space Grid (nr,dr,rmax): 1203    0.0066555740    8.0000000000
Spherical Bessel Basis (nsws,lmax,cutoff):   47    0  176.3951722778
Confining potential (l,width,scale):  0    3.0000000000  100.0000000000
  1         -0.3194257691   -0.2393854593    0.2820953124   -0.2424203209
  2         -0.3951823392   -0.2377116493    0.2886404059   -0.2475147891
  3         -0.4317044583   -0.2352244387    0.2921333887   -0.2514046172
  4         -0.4470703708   -0.2341892222    0.2934391879   -0.2531009782
  5         -0.4532132900   -0.2338556667    0.2938388426   -0.2537313520
  6         -0.4556579251   -0.2337612552    0.2939448584   -0.2539550462
  7         -0.4566418315   -0.2337377355    0.2939680120   -0.2540342273
  8         -0.4570437922   -0.2337331116    0.2939708287   -0.2540627372
  9         -0.4572102946   -0.2337328328    0.2939698291   -0.2540732650
 10         -0.4572800424   -0.2337332404    0.2939687193   -0.2540772588
 11         -0.4573095100   -0.2337335791    0.2939680317   -0.2540788122
 12         -0.4573220379   -0.2337337762    0.2939676699   -0.2540794294
 13         -0.4573273880   -0.2337338775    0.2939674931   -0.2540796787
 14         -0.4573296803   -0.2337339266    0.2939674099   -0.2540797808
 15         -0.4573306647   -0.2337339495    0.2939673718   -0.2540798230
 16         -0.4573310882   -0.2337339601    0.2939673545   -0.2540798406
 17         -0.4573312706   -0.2337339649    0.2939673467   -0.2540798479
 18         -0.4573313493   -0.2337339670    0.2939673433   -0.2540798510
Atom SCF converged after  18 iterations to a total energy of     -0.45733135

Atom SCF Calculation for C  : Z (AE atom) =   6 : Z (PS atom) =   4
Config String:
Orbitals (num,occ):  2     2.00 2.00
Orbitals   (num,l):  2        0    1
Real-space Grid (nr,dr,rmax): 1203    0.0066555740    8.0000000000
Spherical Bessel Basis (nsws,lmax,cutoff):   47    1  176.3951722778
Confining potential (l,width,scale):  0    3.0000000000  100.0000000000
Confining potential (l,width,scale):  1    3.0000000000  100.0000000000
  1         -5.2976922011   -1.3069684169    4.5135249990   -1.4493313817
  2         -5.3721716256   -1.3429755895    4.4750154450   -1.4361613026
  3         -5.3809959565   -1.3617365618    4.4541655428   -1.4305930207
  4         -5.3918938866   -1.3667928461    4.4484735100   -1.4294652294
  5         -5.3956096428   -1.3688539142    4.4461376126   -1.4290734646
  6         -5.3968271862   -1.3696852393    4.4451910874   -1.4289366866
  7         -5.3972028401   -1.3700178062    4.4448112275   -1.4288900460
  8         -5.3973067903   -1.3701500158    4.4446598370   -1.4288749220
  9         -5.3973286940   -1.3702023868    4.4445997329   -1.4288704293
 10         -5.3973289850   -1.3702230869    4.4445759233   -1.4288693188
 11         -5.3973254264   -1.3702312560    4.4445665049   -1.4288691775
 12         -5.3973224003   -1.3702344755    4.4445627836   -1.4288692549
 13         -5.3973208708   -1.3702354890    4.4445616088   -1.4288693270
 14         -5.3973198783   -1.3702360102    4.4445610034   -1.4288693814
 15         -5.3973192535   -1.3702362780    4.4445606917   -1.4288694190
 16         -5.3973188684   -1.3702364155    4.4445605313   -1.4288694437
 17         -5.3973186349   -1.3702364860    4.4445604489   -1.4288694595
 18         -5.3973184951   -1.3702365221    4.4445604065   -1.4288694693
 19         -5.3973184122   -1.3702365405    4.4445603848   -1.4288694753
Atom SCF converged after  19 iterations to a total energy of     -5.39731841

Atom SCF Calculation for S  : Z (AE atom) =  16 : Z (PS atom) =   6
Config String:
Orbitals (num,occ):  3     2.00 4.00 0.00
Orbitals   (num,l):  3        0    1    2
Real-space Grid (nr,dr,rmax): 1203    0.0066555740    8.0000000000
Spherical Bessel Basis (nsws,lmax,cutoff):   47    2  176.3951722778
Confining potential (l,width,scale):  0    3.0000000000  100.0000000000
Confining potential (l,width,scale):  1    3.0000000000  100.0000000000
Confining potential (l,width,scale):  2    3.0000000000  100.0000000000
  1        -12.4735062396   -1.0328741412   10.1554312477   -2.4512393157
  2         -9.9458301913   -2.4607392455    8.3041325857   -2.0306994528
  3        -10.1450417646   -2.2931184565    8.4831893826   -2.0812538287
  4        -10.1528335592   -2.2733105793    8.5050388867   -2.0896035179
  5        -10.1571940363   -2.2633716629    8.5160794258   -2.0939370707
  6        -10.1594380571   -2.2584938667    8.5215163935   -2.0961289008
  7        -10.1605856507   -2.2561081821    8.5241804044   -2.0972291378
  8        -10.1611799191   -2.2549395235    8.5254868240   -2.0977806248
  9        -10.1614918752   -2.2543658586    8.5261285885   -2.0980571586
 10        -10.1616572884   -2.2540839121    8.5264441898   -2.0981959233
 11        -10.1617455602   -2.2539453058    8.5265994231   -2.0982656006
 12        -10.1617928447   -2.2538772062    8.5266757320   -2.0983006047
 13        -10.1618182292   -2.2538437891    8.5267131983   -2.0983181961
 14        -10.1618318741   -2.2538274201    8.5267315620   -2.0983270391
 15        -10.1618392144   -2.2538194197    8.5267405433   -2.0983314852
 16        -10.1618431651   -2.2538155200    8.5267449245   -2.0983337210
 17        -10.1618452923   -2.2538136252    8.5267470551   -2.0983348455
 18        -10.1618464380   -2.2538127080    8.5267480875   -2.0983354110
 19        -10.1618470552   -2.2538122659    8.5267485856   -2.0983356955
 20        -10.1618473878   -2.2538120540    8.5267488248   -2.0983358386
 21        -10.1618475670   -2.2538119530    8.5267489389   -2.0983359106
 22        -10.1618476637   -2.2538119053    8.5267489929   -2.0983359468
Atom SCF converged after  22 iterations to a total energy of    -10.16184766

Atom SCF Calculation for O  : Z (AE atom) =   8 : Z (PS atom) =   6
Config String:
Orbitals (num,occ):  2     2.00 4.00
Orbitals   (num,l):  2        0    1
Real-space Grid (nr,dr,rmax): 1203    0.0066555740    8.0000000000
Spherical Bessel Basis (nsws,lmax,cutoff):   47    1  176.3951722778
Confining potential (l,width,scale):  0    3.0000000000  100.0000000000
Confining potential (l,width,scale):  1    3.0000000000  100.0000000000
  1         -1.8735052164   -7.5539365035   10.1554312477   -2.4512393157
  2        -16.0318313751   -3.1285771268   13.6395848164   -3.2358799643
  3        -15.9524020423   -3.0762819706   13.6967272503   -3.2536856837
  4        -15.8521515939   -3.0781493909   13.6951909330   -3.2561700440
  5        -15.8357139793   -3.0748501933   13.6988803334   -3.2580493133
  6        -15.8246052853   -3.0740779781   13.6997881576   -3.2588327446
  7        -15.8189019501   -3.0737449687   13.7001869911   -3.2592378801
  8        -15.8159785510   -3.0736026016   13.7003615168   -3.2594475790
  9        -15.8144776168   -3.0735437994   13.7004360379   -3.2595560735
 10        -15.8137058024   -3.0735207882   13.7004667348   -3.2596122456
 11        -15.8133083127   -3.0735125946   13.7004786868   -3.2596413656
 12        -15.8131032938   -3.0735102195   13.7004828997   -3.2596564858
 13        -15.8129973902   -3.0735099286   13.7004840891   -3.2596643505
 14        -15.8129426040   -3.0735102506   13.7004842061   -3.2596684489
 15        -15.8129142203   -3.0735106556   13.7004840157   -3.2596705887
 16        -15.8128994940   -3.0735109855   13.7004837906   -3.2596717080
 17        -15.8128918425   -3.0735112169   13.7004836103   -3.2596722946
 18        -15.8128878614   -3.0735113674   13.7004834848   -3.2596726026
 19        -15.8128857871   -3.0735114608   13.7004834035   -3.2596727646
 20        -15.8128847048   -3.0735115170   13.7004833533   -3.2596728500
 21        -15.8128841394   -3.0735115501   13.7004833231   -3.2596728951
 22        -15.8128838436   -3.0735115693   13.7004833054   -3.2596729190
 23        -15.8128836887   -3.0735115802   13.7004832951   -3.2596729316
 24        -15.8128836074   -3.0735115864   13.7004832893   -3.2596729383
Atom SCF converged after  24 iterations to a total energy of    -15.81288361

========================== Calculation in vacuum ==============================
= Adjusting the following parameters: 
= is_implicit_solvent: F
= is_include_apolar: F
= write_denskern: T
= write_tightbox_ngwfs: T
= restart read filename prefix: ""
= restart write filename prefix: "vacuum_"
===============================================================================

Determining parallel strategy ...
... using space-filling curve
... NGWF load balancing: max    110;  min    109;  average    109
... Projector load balancing: max     26;  min     21;  average     22
... done
Calculating direct Ion-Ion energy ...
Ion-Ion Energy        :    835734.50223438430112
======================= Empirical dispersion information =======================
Model : Elstner
Dispersion Correction Energy: -0.32717998E+01 Hartree
================================================================================
Basis initialisation ...... NGWF spheres initialised
... Projector spheres initialised
... NGWF tight boxes initialised
... Tight-boxes gathered
... NGWF basis size (local,global):     980759  59038101
... Nonlocal pseudopotential projector initialisation
... done

========================== Sparse matrix information ===========================
                        Overlap matrix filling:   6.77%
                        Density kernel filling: 100.00%
              NGWF-Proj overlap matrix filling:   1.76%
                    Hamiltonian matrix filling:   7.62%
                  NGWF diagonal matrix filling:   0.05%
                             KS matrix filling: 100.00% 
                           KSKS matrix filling: 100.00% 
================================================================================

Sparse matrix initialisation ... done

Generating smeared ion density ... done
Smeared ion self correction:     -14543.939510
Smeared ion non-self correction: -835686.202697
NGWF initialisation ...... done
============ Calculation of NGWF S^-1 using Hotelling algorithm ================ 
         Iteration  |  Frobenius norm and Maximum abs value    (of I-S*S_n^-1)   
               1       0.78662816E+02     0.98201592E+00
               2       0.76773304E+02     0.96451575E+00
               3       0.73724662E+02     0.93102833E+00
               4       0.69409478E+02     0.86939283E+00
               5       0.64052402E+02     0.76402989E+00
               6       0.58050323E+02     0.70815702E+00
               7       0.52040169E+02     0.67360284E+00
               8       0.46484064E+02     0.64901547E+00
               9       0.40351136E+02     0.60900823E+00
              10       0.31978492E+02     0.53959391E+00
              11       0.21336970E+02     0.42686398E+00
              12       0.10774566E+02     0.27248752E+00
              13       0.34803133E+01     0.11657916E+00
              14       0.53426988E+00     0.32644567E-01
              15       0.25302968E-01     0.31302170E-02
              16       0.14545168E-03     0.30635224E-04
              17       0.10157918E-07     0.29672601E-08
              18       0.91448650E-13     0.46629367E-14
================================================================================
Calculating local pseudopotential in open BC on the fine real space grid ...
... done

MG BCs: +ve charge blocks (gridpoints):     20653 (   16273116).
MG BCs: -ve charge blocks (gridpoints):      8107 (    1103006).
MG BCs:     Elided blocks (gridpoints):    194579 (  193327423).
MG BCs: Computational effort saved:  99.9864%.
MG BCs: Charge after coarse-graining:           -9.0002249.
MG DL_MG: Calling solver with defect correction order = 8
MG DL_MG: Solver finished
MG Hartree energy from (\int phi*rho dr):              1471.458874
MG Hartree energy from (\int eps (grad phi)^2 dr):     1470.857806
MG Discrepancy due to finite box and discretization:     -0.601068 (  -0.04085%)
MG Correction to account for finite box:                  0.453386
MG Remaining discrepancy, due to discretization:         -0.147682 (  -0.01004%)
Up spin density kernel initialisation ... 
======= Optimisation of K by Palser-Manolopoulos canonical purification ======== 
         Iteration  |  Band structure energy |    c_n   
               1       -2592.44968074563349    0.5272649
               2       -2768.90230253297068    0.5173193
               3       -2950.31829199362255    0.5154414
               4       -3102.44299308642985    0.5287545
               5       -3196.45114649156403    0.5642164
               6       -3235.98411892273089    0.6088648
               7       -3249.43425967549774    0.6202833
               8       -3255.25706627976433    0.6173085
               9       -3258.08677238695464    0.6290937
              10       -3259.25910097201358    0.6545658
              11       -3259.70692187384884    0.6886424
              12       -3259.88302974830322    0.7110511
              13       -3259.96351390531436    0.6873440
              14       -3260.01473808978062    0.6371959
              15       -3260.05001966233431    0.5873517
              16       -3260.06943867084647    0.5517115
              17       -3260.07710586491748    0.5647299
              18       -3260.07923631143512    0.6098142
              19       -3260.07991718709536    0.6110421
              20       -3260.08031379253407    0.5781706
              21       -3260.08065278329696    0.5405797
              22       -3260.08089057006691    0.5118264
              23       -3260.08098104936471    0.5010529
              24       -3260.08099102456072    0.5000083
              25       -3260.08099113221579    0.5000083
Termination criterion satisfied: band energy change below threshold.
Final occupancy bounds: [    0.00000000000037:    0.99999999999876]
Closest occupancy to 0.5:     0.99999999999985
================================================================================
... done

Writing density kernel to file "complex_28981.vacuum_dkn" ... done

>>> Optimising kernel for current NGWFs:
   Initial electron number for spin 1:    7234.00000000
     Final electron number for spin 1:    7234.00000000

=================== Penalty functional idempotency correction ==================
 RMS occupancy error at iteration   1:  0.000000 (step -0.5000 Ne1=   7234.0000)
            Final RMS occupancy error   :  0.000000 (Ne1=   7234.0000)
               Final occupancy bounds   : [ -0.0000,  1.0000]
================================================================================

................................................................................
<<<<<<<<<<<<<< LNV (Original version) density kernel optimisation >>>>>>>>>>>>>>
~~~~~~~~~~~~~~~~~~~~~~~~~~~~~~~~~~~~~~~~~~~~~~~~~~~~~~~~~~~~~~~~~~~~~~~~~~~~~~~~
   iter  |      energy (Eh)       | rms gradient |  commutator  |   dE (Eh)
MG BCs: +ve charge blocks (gridpoints):     31638 (   17394774).
MG BCs: -ve charge blocks (gridpoints):      8461 (    1136041).
MG BCs:     Elided blocks (gridpoints):    183586 (  192172730).
MG BCs: Computational effort saved:  99.9810%.
MG BCs: Charge after coarse-graining:           -9.0010059.
MG DL_MG: Calling solver with defect correction order = 8
MG DL_MG: Solver finished
MG Hartree energy from (\int phi*rho dr):              1426.436569
MG Hartree energy from (\int eps (grad phi)^2 dr):     1425.788515
MG Discrepancy due to finite box and discretization:     -0.648055 (  -0.04543%)
MG Correction to account for finite box:                  0.459197
MG Remaining discrepancy, due to discretization:         -0.188857 (  -0.01324%)
      ideal mu1:      -0.707076806635
             Q0:  -11578.297408518032
             G0:    -144.568341142335
   RMS gradient:       0.001837636797
MG BCs: +ve charge blocks (gridpoints):     31602 (   17476334).
MG BCs: -ve charge blocks (gridpoints):      8334 (    1115686).
MG BCs:     Elided blocks (gridpoints):    183619 (  192111525).
MG BCs: Computational effort saved:  99.9810%.
MG BCs: Charge after coarse-graining:           -9.0010286.
MG DL_MG: Calling solver with defect correction order = 8
MG DL_MG: Solver finished
MG Hartree energy from (\int phi*rho dr):              1452.081982
MG Hartree energy from (\int eps (grad phi)^2 dr):     1451.450195
MG Discrepancy due to finite box and discretization:     -0.631787 (  -0.04351%)
MG Correction to account for finite box:                  0.458332
MG Remaining discrepancy, due to discretization:         -0.173455 (  -0.01195%)
     Trial step:       0.500000000000
             Q1:  -11589.558151951409
 Quadratic coef:      61.023427137790
 Linear coef   :     -72.284170571167
           Qmin:  -11599.703127437111
Quadratic minimum step length (  0.296132870446) accepted
    Initial Ne1:    7234.00000000
      Final Ne1:    7234.00000000

=================== Penalty functional idempotency correction ==================
 RMS occupancy error at iteration   1:  0.003381 (step -0.4885 Ne1=   7234.0000)
 RMS occupancy error at iteration   2:  0.000026 (step -0.5001 Ne1=   7234.0000)
            Final RMS occupancy error   :  0.000000 (Ne1=   7234.0000)
               Final occupancy bounds   : [  0.0000,  1.0000]
================================================================================

    1        -1.157829740852E+04     1.8376E-03     1.6621E-03
MG BCs: +ve charge blocks (gridpoints):     31630 (   17444165).
MG BCs: -ve charge blocks (gridpoints):      8392 (    1124319).
MG BCs:     Elided blocks (gridpoints):    183592 (  192135061).
MG BCs: Computational effort saved:  99.9810%.
MG BCs: Charge after coarse-graining:           -9.0010197.
MG DL_MG: Calling solver with defect correction order = 8
MG DL_MG: Solver finished
MG Hartree energy from (\int phi*rho dr):              1433.644307
MG Hartree energy from (\int eps (grad phi)^2 dr):     1433.006791
MG Discrepancy due to finite box and discretization:     -0.637517 (  -0.04447%)
MG Correction to account for finite box:                  0.458593
MG Remaining discrepancy, due to discretization:         -0.178923 (  -0.01248%)
      ideal mu1:      -0.752315711824
             Q0:  -11600.104576199665
             G0:     -11.874880840690
   RMS gradient:       0.000523122094
MG BCs: +ve charge blocks (gridpoints):     31618 (   17461039).
MG BCs: -ve charge blocks (gridpoints):      8367 (    1119023).
MG BCs:     Elided blocks (gridpoints):    183603 (  192123483).
MG BCs: Computational effort saved:  99.9810%.
MG BCs: Charge after coarse-graining:           -9.0010235.
MG DL_MG: Calling solver with defect correction order = 8
MG DL_MG: Solver finished
MG Hartree energy from (\int phi*rho dr):              1438.978868
MG Hartree energy from (\int eps (grad phi)^2 dr):     1438.344990
MG Discrepancy due to finite box and discretization:     -0.633877 (  -0.04405%)
MG Correction to account for finite box:                  0.458089
MG Remaining discrepancy, due to discretization:         -0.175789 (  -0.01222%)
     Trial step:       0.384794016616
             Q1:  -11602.888528364943
 Quadratic coef:       1.785430930242
 Linear coef   :      -4.569383095521
           Qmin:  -11603.028136769830
Quadratic minimum step length (  0.492394089572) accepted
    Initial Ne1:    7233.99989638
      Final Ne1:    7234.00000000

=================== Penalty functional idempotency correction ==================
 RMS occupancy error at iteration   1:  0.001772 (step -0.4932 Ne1=   7234.0000)
 RMS occupancy error at iteration   2:  0.000010 (step -0.5001 Ne1=   7234.0000)
            Final RMS occupancy error   :  0.000000 (Ne1=   7234.0000)
               Final occupancy bounds   : [  0.0000,  1.0000]
================================================================================

    2        -1.160010457620E+04     5.2312E-04     4.7315E-04    -2.1807E+01
MG BCs: +ve charge blocks (gridpoints):     31608 (   17465637).
MG BCs: -ve charge blocks (gridpoints):      8359 (    1117522).
MG BCs:     Elided blocks (gridpoints):    183614 (  192120386).
MG BCs: Computational effort saved:  99.9810%.
MG BCs: Charge after coarse-graining:           -9.0010247.
MG DL_MG: Calling solver with defect correction order = 8
MG DL_MG: Solver finished
MG Hartree energy from (\int phi*rho dr):              1440.513460
MG Hartree energy from (\int eps (grad phi)^2 dr):     1439.880528
MG Discrepancy due to finite box and discretization:     -0.632931 (  -0.04394%)
MG Correction to account for finite box:                  0.457958
MG Remaining discrepancy, due to discretization:         -0.174973 (  -0.01215%)
      ideal mu1:      -0.776010941323
             Q0:  -11603.063781774719
             G0:      -1.868792178442
   RMS gradient:       0.000207642621
MG BCs: +ve charge blocks (gridpoints):     31609 (   17465165).
MG BCs: -ve charge blocks (gridpoints):      8368 (    1118488).
MG BCs:     Elided blocks (gridpoints):    183613 (  192119892).
MG BCs: Computational effort saved:  99.9810%.
MG BCs: Charge after coarse-graining:           -9.0010243.
MG DL_MG: Calling solver with defect correction order = 8
MG DL_MG: Solver finished
MG Hartree energy from (\int phi*rho dr):              1438.349188
MG Hartree energy from (\int eps (grad phi)^2 dr):     1437.716687
MG Discrepancy due to finite box and discretization:     -0.632501 (  -0.04397%)
MG Correction to account for finite box:                  0.457725
MG Remaining discrepancy, due to discretization:         -0.174776 (  -0.01215%)
     Trial step:       0.435281862113
             Q1:  -11603.528930716915
 Quadratic coef:       0.348302397138
 Linear coef   :      -0.813451339334
           Qmin:  -11603.538730473681
Quadratic minimum step length (  0.508294827472) accepted
    Initial Ne1:    7233.99995506
      Final Ne1:    7234.00000000

=================== Penalty functional idempotency correction ==================
 RMS occupancy error at iteration   1:  0.000581 (step -0.4976 Ne1=   7234.0000)
 RMS occupancy error at iteration   2:  0.000001 (step -0.5000 Ne1=   7234.0000)
            Final RMS occupancy error   :  0.000000 (Ne1=   7234.0000)
               Final occupancy bounds   : [  0.0000,  1.0000]
================================================================================

    3        -1.160306378177E+04     2.0764E-04     1.8781E-04    -2.9592E+00
MG BCs: +ve charge blocks (gridpoints):     31610 (   17465001).
MG BCs: -ve charge blocks (gridpoints):      8364 (    1118693).
MG BCs:     Elided blocks (gridpoints):    183612 (  192119851).
MG BCs: Computational effort saved:  99.9810%.
MG BCs: Charge after coarse-graining:           -9.0010243.
MG DL_MG: Calling solver with defect correction order = 8
MG DL_MG: Solver finished
MG Hartree energy from (\int phi*rho dr):              1437.994314
MG Hartree energy from (\int eps (grad phi)^2 dr):     1437.361877
MG Discrepancy due to finite box and discretization:     -0.632437 (  -0.04398%)
MG Correction to account for finite box:                  0.457687
MG Remaining discrepancy, due to discretization:         -0.174750 (  -0.01215%)
      ideal mu1:      -0.776547944176
             Q0:  -11603.543047586223
             G0:      -0.449768246135
   RMS gradient:       0.000101986158
MG BCs: +ve charge blocks (gridpoints):     31608 (   17465717).
MG BCs: -ve charge blocks (gridpoints):      8369 (    1118539).
MG BCs:     Elided blocks (gridpoints):    183614 (  192119289).
MG BCs: Computational effort saved:  99.9810%.
MG BCs: Charge after coarse-graining:           -9.0010243.
MG DL_MG: Calling solver with defect correction order = 8
MG DL_MG: Solver finished
MG Hartree energy from (\int phi*rho dr):              1439.127122
MG Hartree energy from (\int eps (grad phi)^2 dr):     1438.494654
MG Discrepancy due to finite box and discretization:     -0.632467 (  -0.04395%)
MG Correction to account for finite box:                  0.457615
MG Remaining discrepancy, due to discretization:         -0.174852 (  -0.01215%)
     Trial step:       0.470373807736
             Q1:  -11603.644724105601
 Quadratic coef:       0.109882683155
 Linear coef   :      -0.211559202534
           Qmin:  -11603.644877317014
Quadratic minimum step length (  0.452809782216) accepted
    Initial Ne1:    7233.99999019
      Final Ne1:    7234.00000000

=================== Penalty functional idempotency correction ==================
 RMS occupancy error at iteration   1:  0.000192 (step -0.4992 Ne1=   7234.0000)
 RMS occupancy error at iteration   2:  0.000000 (step -0.5000 Ne1=   7234.0000)
            Final RMS occupancy error   :  0.000000 (Ne1=   7234.0000)
               Final occupancy bounds   : [  0.0000,  1.0000]
================================================================================

    4        -1.160354304759E+04     1.0199E-04     9.2244E-05    -4.7927E-01
MG BCs: +ve charge blocks (gridpoints):     31608 (   17465664).
MG BCs: -ve charge blocks (gridpoints):      8369 (    1118568).
MG BCs:     Elided blocks (gridpoints):    183614 (  192119313).
MG BCs: Computational effort saved:  99.9810%.
MG BCs: Charge after coarse-graining:           -9.0010243.
MG DL_MG: Calling solver with defect correction order = 8
MG DL_MG: Solver finished
MG Hartree energy from (\int phi*rho dr):              1439.084793
MG Hartree energy from (\int eps (grad phi)^2 dr):     1438.452328
MG Discrepancy due to finite box and discretization:     -0.632466 (  -0.04395%)
MG Correction to account for finite box:                  0.457618
MG Remaining discrepancy, due to discretization:         -0.174848 (  -0.01215%)
      ideal mu1:      -0.776625123521
             Q0:  -11603.645332780550
             G0:      -0.108998274631
   RMS gradient:       0.000050347541
MG BCs: +ve charge blocks (gridpoints):     31604 (   17465979).
MG BCs: -ve charge blocks (gridpoints):      8368 (    1118327).
MG BCs:     Elided blocks (gridpoints):    183618 (  192119239).
MG BCs: Computational effort saved:  99.9810%.
MG BCs: Charge after coarse-graining:           -9.0010243.
MG DL_MG: Calling solver with defect correction order = 8
MG DL_MG: Solver finished
MG Hartree energy from (\int phi*rho dr):              1439.541611
MG Hartree energy from (\int eps (grad phi)^2 dr):     1438.909038
MG Discrepancy due to finite box and discretization:     -0.632574 (  -0.04394%)
MG Correction to account for finite box:                  0.457600
MG Remaining discrepancy, due to discretization:         -0.174974 (  -0.01215%)
     Trial step:       0.461508246342
             Q1:  -11603.671971747885
 Quadratic coef:       0.023664635244
 Linear coef   :      -0.050303602579
           Qmin:  -11603.672065206450
Quadratic minimum step length (  0.490510991853) accepted
    Initial Ne1:    7233.99999741
      Final Ne1:    7234.00000000

=================== Penalty functional idempotency correction ==================
 RMS occupancy error at iteration   1:  0.000068 (step -0.4997 Ne1=   7234.0000)
            Final RMS occupancy error   :  0.000000 (Ne1=   7234.0000)
               Final occupancy bounds   : [ -0.0000,  1.0000]
================================================================================

    5        -1.160364533278E+04     5.0348E-05     4.5538E-05    -1.0229E-01
MG BCs: +ve charge blocks (gridpoints):     31604 (   17465975).
MG BCs: -ve charge blocks (gridpoints):      8369 (    1118338).
MG BCs:     Elided blocks (gridpoints):    183618 (  192119232).
MG BCs: Computational effort saved:  99.9810%.
MG BCs: Charge after coarse-graining:           -9.0010243.
MG DL_MG: Calling solver with defect correction order = 8
MG DL_MG: Solver finished
MG Hartree energy from (\int phi*rho dr):              1439.570374
MG Hartree energy from (\int eps (grad phi)^2 dr):     1438.937794
MG Discrepancy due to finite box and discretization:     -0.632580 (  -0.04394%)
MG Correction to account for finite box:                  0.457598
MG Remaining discrepancy, due to discretization:         -0.174982 (  -0.01216%)
      ideal mu1:      -0.776669492940
             Q0:  -11603.672119332012
             G0:      -0.032194291915
   RMS gradient:       0.000027387591
MG BCs: +ve charge blocks (gridpoints):     31604 (   17465516).
MG BCs: -ve charge blocks (gridpoints):      8371 (    1118603).
MG BCs:     Elided blocks (gridpoints):    183618 (  192119426).
MG BCs: Computational effort saved:  99.9810%.
MG BCs: Charge after coarse-graining:           -9.0010242.
MG DL_MG: Calling solver with defect correction order = 8
MG DL_MG: Solver finished
MG Hartree energy from (\int phi*rho dr):              1438.950164
MG Hartree energy from (\int eps (grad phi)^2 dr):     1438.317587
MG Discrepancy due to finite box and discretization:     -0.632577 (  -0.04396%)
MG Correction to account for finite box:                  0.457598
MG Remaining discrepancy, due to discretization:         -0.174979 (  -0.01216%)
     Trial step:       0.475788679627
             Q1:  -11603.682014298975
 Quadratic coef:       0.005422712678
 Linear coef   :      -0.015317679642
           Qmin:  -11603.682936395515
Quadratic minimum step length (  0.671986421184) accepted
    Initial Ne1:    7234.00034699
      Final Ne1:    7234.00000000

=================== Penalty functional idempotency correction ==================
 RMS occupancy error at iteration   1:  0.000039 (step -0.4998 Ne1=   7234.0000)
            Final RMS occupancy error   :  0.000000 (Ne1=   7234.0000)
               Final occupancy bounds   : [ -0.0000,  1.0000]
================================================================================

    6        -1.160367211933E+04     2.7388E-05     2.4771E-05    -2.6787E-02
MG BCs: +ve charge blocks (gridpoints):     31603 (   17465409).
MG BCs: -ve charge blocks (gridpoints):      8370 (    1118675).
MG BCs:     Elided blocks (gridpoints):    183619 (  192119461).
MG BCs: Computational effort saved:  99.9810%.
MG BCs: Charge after coarse-graining:           -9.0010242.
MG DL_MG: Calling solver with defect correction order = 8
MG DL_MG: Solver finished
MG Hartree energy from (\int phi*rho dr):              1438.693781
MG Hartree energy from (\int eps (grad phi)^2 dr):     1438.061206
MG Discrepancy due to finite box and discretization:     -0.632575 (  -0.04397%)
MG Correction to account for finite box:                  0.457597
MG Remaining discrepancy, due to discretization:         -0.174978 (  -0.01216%)
      ideal mu1:      -0.776451853394
             Q0:  -11603.682946908055
             G0:      -0.017183543275
   RMS gradient:       0.000020034543
MG BCs: +ve charge blocks (gridpoints):     31604 (   17465778).
MG BCs: -ve charge blocks (gridpoints):      8369 (    1118477).
MG BCs:     Elided blocks (gridpoints):    183618 (  192119290).
MG BCs: Computational effort saved:  99.9810%.
MG BCs: Charge after coarse-graining:           -9.0010243.
MG DL_MG: Calling solver with defect correction order = 8
MG DL_MG: Solver finished
MG Hartree energy from (\int phi*rho dr):              1439.203166
MG Hartree energy from (\int eps (grad phi)^2 dr):     1438.570633
MG Discrepancy due to finite box and discretization:     -0.632533 (  -0.04395%)
MG Correction to account for finite box:                  0.457583
MG Remaining discrepancy, due to discretization:         -0.174950 (  -0.01216%)
     Trial step:       0.565441006704
             Q1:  -11603.686900961562
 Quadratic coef:       0.005762226501
 Linear coef   :      -0.009716280008
           Qmin:  -11603.687042811660
Quadratic minimum step length (  0.476723984052) accepted
    Initial Ne1:    7234.00015761
      Final Ne1:    7234.00000000

=================== Penalty functional idempotency correction ==================
 RMS occupancy error at iteration   1:  0.000002 (step -0.5000 Ne1=   7234.0000)
            Final RMS occupancy error   :  0.000000 (Ne1=   7234.0000)
               Final occupancy bounds   : [  0.0000,  1.0000]
================================================================================

    7        -1.160368294691E+04     2.0035E-05     1.8121E-05    -1.0828E-02
MG BCs: +ve charge blocks (gridpoints):     31604 (   17465685).
MG BCs: -ve charge blocks (gridpoints):      8369 (    1118521).
MG BCs:     Elided blocks (gridpoints):    183618 (  192119339).
MG BCs: Computational effort saved:  99.9810%.
MG BCs: Charge after coarse-graining:           -9.0010243.
MG DL_MG: Calling solver with defect correction order = 8
MG DL_MG: Solver finished
MG Hartree energy from (\int phi*rho dr):              1439.123077
MG Hartree energy from (\int eps (grad phi)^2 dr):     1438.490538
MG Discrepancy due to finite box and discretization:     -0.632540 (  -0.04395%)
MG Correction to account for finite box:                  0.457585
MG Remaining discrepancy, due to discretization:         -0.174955 (  -0.01216%)
      ideal mu1:      -0.776705505971
             Q0:  -11603.687043220154
             G0:      -0.009986927801
   RMS gradient:       0.000015274406
MG BCs: +ve charge blocks (gridpoints):     31604 (   17465818).
MG BCs: -ve charge blocks (gridpoints):      8369 (    1118450).
MG BCs:     Elided blocks (gridpoints):    183618 (  192119277).
MG BCs: Computational effort saved:  99.9810%.
MG BCs: Charge after coarse-graining:           -9.0010243.
MG DL_MG: Calling solver with defect correction order = 8
MG DL_MG: Solver finished
MG Hartree energy from (\int phi*rho dr):              1439.230765
MG Hartree energy from (\int eps (grad phi)^2 dr):     1438.598260
MG Discrepancy due to finite box and discretization:     -0.632505 (  -0.04395%)
MG Correction to account for finite box:                  0.457574
MG Remaining discrepancy, due to discretization:         -0.174931 (  -0.01215%)
     Trial step:       0.519190995167
             Q1:  -11603.690877031186
 Quadratic coef:       0.001351311952
 Linear coef   :      -0.005185122984
           Qmin:  -11603.692017182739
Quadratic minimum step length (  0.996094631569) accepted
    Initial Ne1:    7234.00019023
      Final Ne1:    7234.00000000

=================== Penalty functional idempotency correction ==================
 RMS occupancy error at iteration   1:  0.000026 (step -0.4990 Ne1=   7234.0000)
            Final RMS occupancy error   :  0.000000 (Ne1=   7234.0000)
               Final occupancy bounds   : [ -0.0000,  1.0000]
================================================================================

    8        -1.160368704322E+04     1.5274E-05     1.3815E-05    -4.0963E-03
MG BCs: +ve charge blocks (gridpoints):     31603 (   17465884).
MG BCs: -ve charge blocks (gridpoints):      8369 (    1118385).
MG BCs:     Elided blocks (gridpoints):    183619 (  192119276).
MG BCs: Computational effort saved:  99.9810%.
MG BCs: Charge after coarse-graining:           -9.0010244.
MG DL_MG: Calling solver with defect correction order = 8
MG DL_MG: Solver finished
MG Hartree energy from (\int phi*rho dr):              1439.328012
MG Hartree energy from (\int eps (grad phi)^2 dr):     1438.695540
MG Discrepancy due to finite box and discretization:     -0.632472 (  -0.04394%)
MG Correction to account for finite box:                  0.457563
MG Remaining discrepancy, due to discretization:         -0.174909 (  -0.01215%)
      ideal mu1:      -0.776803503579
             Q0:  -11603.692005933495
             G0:      -0.014543245633
   RMS gradient:       0.000018472191
MG BCs: +ve charge blocks (gridpoints):     31604 (   17465764).
MG BCs: -ve charge blocks (gridpoints):      8368 (    1118487).
MG BCs:     Elided blocks (gridpoints):    183618 (  192119294).
MG BCs: Computational effort saved:  99.9810%.
MG BCs: Charge after coarse-graining:           -9.0010243.
MG DL_MG: Calling solver with defect correction order = 8
MG DL_MG: Solver finished
MG Hartree energy from (\int phi*rho dr):              1439.026506
MG Hartree energy from (\int eps (grad phi)^2 dr):     1438.394113
MG Discrepancy due to finite box and discretization:     -0.632393 (  -0.04395%)
MG Correction to account for finite box:                  0.457532
MG Remaining discrepancy, due to discretization:         -0.174861 (  -0.01215%)
     Trial step:       0.719140711575
             Q1:  -11603.698771405849
 Quadratic coef:       0.003693167659
 Linear coef   :      -0.010458640013
           Qmin:  -11603.699410359792
Quadratic minimum step length (  1.018263252068) accepted
    Initial Ne1:    7234.00063224
      Final Ne1:    7234.00000000

=================== Penalty functional idempotency correction ==================
 RMS occupancy error at iteration   1:  0.000164 (step -0.4931 Ne1=   7234.0000)
 RMS occupancy error at iteration   2:  0.000001 (step -0.5000 Ne1=   7234.0000)
            Final RMS occupancy error   :  0.000000 (Ne1=   7234.0000)
               Final occupancy bounds   : [  0.0000,  1.0000]
================================================================================

    9        -1.160369200593E+04     1.8472E-05     1.6708E-05    -4.9627E-03
MG BCs: +ve charge blocks (gridpoints):     31604 (   17465696).
MG BCs: -ve charge blocks (gridpoints):      8368 (    1118564).
MG BCs:     Elided blocks (gridpoints):    183618 (  192119285).
MG BCs: Computational effort saved:  99.9810%.
MG BCs: Charge after coarse-graining:           -9.0010243.
MG DL_MG: Calling solver with defect correction order = 8
MG DL_MG: Solver finished
MG Hartree energy from (\int phi*rho dr):              1438.897033
MG Hartree energy from (\int eps (grad phi)^2 dr):     1438.264677
MG Discrepancy due to finite box and discretization:     -0.632357 (  -0.04395%)
MG Correction to account for finite box:                  0.457516
MG Remaining discrepancy, due to discretization:         -0.174840 (  -0.01215%)
      ideal mu1:      -0.776400693701
   10        -1.160369931815E+04     2.1911E-05     1.9818E-05    -7.3122E-03
Finished density kernel iterations (  10)

Writing density kernel to file "complex_28981.vacuum_dkn" ... done


>>> Density kernel optimised for the current NGWF basis:
     ~~~~~~~~~~~~~~~~~~~~~~~~~~~~~~~~~~~~~~~~~~~~~~~~~~~~~~~~~~~
     Total energy                =  -1.16036993181475E+04  Eh
     Estimated bandgap           =  -2.8456E-01  Eh
     RMS occupancy error         =   8.5045E-11
     [H,K] commutator            =   1.9818E-05
     Occupancy bounds            = [  0.000:  1.000]
     ~~~~~~~~~~~~~~~~~~~~~~~~~~~~~~~~~~~~~~~~~~~~~~~~~~~~~~~~~~~




################################################################################
########################### NGWF CG iteration  001 #############################
################################################################################
****** Reciprocal space K.E. preconditioning with k_zero =  3.5000 a0^-1 *******

>>> Checking for convergence of NGWFs:   NOT CONVERGED
  ========================================================================
         NGWF RMS gradient =  1.5603E-03 >  2.0000E-06  | above tolerance
  ========================================================================

>>> Improving NGWFs using line search:
============ Calculation of NGWF S^-1 using Hotelling algorithm ================ 
         Iteration  |  Frobenius norm and Maximum abs value    (of I-S*S_n^-1)   
               1       0.19097664E+00     0.53175070E-02
               2       0.83919390E-03     0.45907717E-04
               3       0.27964989E-07     0.33634660E-08
               4       0.12718736E-12     0.62172489E-14
================================================================================
MG BCs: +ve charge blocks (gridpoints):     31077 (   17405883).
MG BCs: -ve charge blocks (gridpoints):      8379 (    1118532).
MG BCs:     Elided blocks (gridpoints):    184149 (  192179130).
MG BCs: Computational effort saved:  99.9813%.
MG BCs: Charge after coarse-graining:           -9.0010217.
MG DL_MG: Calling solver with defect correction order = 8
MG DL_MG: Solver finished
MG Hartree energy from (\int phi*rho dr):              1407.438474
MG Hartree energy from (\int eps (grad phi)^2 dr):     1406.806715
MG Discrepancy due to finite box and discretization:     -0.631759 (  -0.04489%)
MG Correction to account for finite box:                  0.457465
MG Remaining discrepancy, due to discretization:         -0.174294 (  -0.01238%)
============ Calculation of NGWF S^-1 using Hotelling algorithm ================ 
         Iteration  |  Frobenius norm and Maximum abs value    (of I-S*S_n^-1)   
               1       0.18493782E+01     0.45741698E-01
               2       0.70894430E-01     0.29923715E-02
               3       0.14212635E-03     0.14269529E-04
               4       0.12210954E-08     0.33412662E-09
               5       0.11234806E-12     0.63074546E-14
================================================================================
------------------------------- NGWF line search -------------------------------
RMS gradient                =       0.00156031803305
Trial step length           =               0.122474
Gradient along search dir.  =       -270.54410569230
Functional at step 0        =  -11603.69931814749725
Functional at step 1        =  -11634.35478306456935
Functional predicted        =  -11714.40778827761642
Selected quadratic step     =               0.818413
--------------------------- NGWF line search finished --------------------------
                                               
Writing NGWFs to file "complex_28981.vacuum_tightbox_ngwfs"....  done

>>> Optimising kernel for current NGWFs:
   Initial electron number for spin 1:    7268.11219005
     Final electron number for spin 1:    7234.00000000

=================== Penalty functional idempotency correction ==================
 RMS occupancy error at iteration   1:  0.004168 (step -0.4867 Ne1=   7234.0000)
 RMS occupancy error at iteration   2:  0.000066 (step -0.5003 Ne1=   7234.0000)
            Final RMS occupancy error   :  0.000000 (Ne1=   7234.0000)
               Final occupancy bounds   : [  0.0000,  1.0000]
================================================================================

................................................................................
<<<<<<<<<<<<<< LNV (Original version) density kernel optimisation >>>>>>>>>>>>>>
~~~~~~~~~~~~~~~~~~~~~~~~~~~~~~~~~~~~~~~~~~~~~~~~~~~~~~~~~~~~~~~~~~~~~~~~~~~~~~~~
   iter  |      energy (Eh)       | rms gradient |  commutator  |   dE (Eh)
MG BCs: +ve charge blocks (gridpoints):     24940 (   17137069).
MG BCs: -ve charge blocks (gridpoints):      8554 (    1102537).
MG BCs:     Elided blocks (gridpoints):    190292 (  192463939).
MG BCs: Computational effort saved:  99.9841%.
MG BCs: Charge after coarse-graining:           -9.0006665.
MG DL_MG: Calling solver with defect correction order = 8
MG DL_MG: Solver finished
MG Hartree energy from (\int phi*rho dr):              1251.201636
MG Hartree energy from (\int eps (grad phi)^2 dr):     1250.568928
MG Discrepancy due to finite box and discretization:     -0.632708 (  -0.05057%)
MG Correction to account for finite box:                  0.457213
MG Remaining discrepancy, due to discretization:         -0.175495 (  -0.01403%)
      ideal mu1:      -0.717056650616
             Q0:  -11713.585664877668
             G0:      -9.876294048232
   RMS gradient:       0.000480308293
MG BCs: +ve charge blocks (gridpoints):     25023 (   17154842).
MG BCs: -ve charge blocks (gridpoints):      8537 (    1098509).
MG BCs:     Elided blocks (gridpoints):    190209 (  192450194).
MG BCs: Computational effort saved:  99.9841%.
MG BCs: Charge after coarse-graining:           -9.0006625.
MG DL_MG: Calling solver with defect correction order = 8
MG DL_MG: Solver finished
MG Hartree energy from (\int phi*rho dr):              1270.656071
MG Hartree energy from (\int eps (grad phi)^2 dr):     1270.016795
MG Discrepancy due to finite box and discretization:     -0.639276 (  -0.05031%)
MG Correction to account for finite box:                  0.456879
MG Remaining discrepancy, due to discretization:         -0.182397 (  -0.01435%)
     Trial step:       0.855730424645
             Q1:  -11711.064081496326
 Quadratic coef:      10.973028681154
 Linear coef   :      -8.451445299813
           Qmin:  -11715.212994253430
Quadratic minimum step length (  0.329542512164) accepted
    Initial Ne1:    7233.99965146
      Final Ne1:    7234.00000000

=================== Penalty functional idempotency correction ==================
 RMS occupancy error at iteration   1:  0.000356 (step -0.4986 Ne1=   7234.0000)
 RMS occupancy error at iteration   2:  0.000000 (step -0.5000 Ne1=   7234.0000)
            Final RMS occupancy error   :  0.000000 (Ne1=   7234.0000)
               Final occupancy bounds   : [  0.0000,  1.0000]
================================================================================

    1        -1.171358566488E+04     4.8031E-04     4.3443E-04
MG BCs: +ve charge blocks (gridpoints):     24966 (   17144013).
MG BCs: -ve charge blocks (gridpoints):      8547 (    1100958).
MG BCs:     Elided blocks (gridpoints):    190266 (  192458574).
MG BCs: Computational effort saved:  99.9841%.
MG BCs: Charge after coarse-graining:           -9.0006649.
MG DL_MG: Calling solver with defect correction order = 8
MG DL_MG: Solver finished
MG Hartree energy from (\int phi*rho dr):              1257.407090
MG Hartree energy from (\int eps (grad phi)^2 dr):     1256.771974
MG Discrepancy due to finite box and discretization:     -0.635115 (  -0.05051%)
MG Correction to account for finite box:                  0.457062
MG Remaining discrepancy, due to discretization:         -0.178053 (  -0.01416%)
      ideal mu1:      -0.722758434164
             Q0:  -11715.178228796576
             G0:      -0.987435881400
   RMS gradient:       0.000152997111
MG BCs: +ve charge blocks (gridpoints):     24971 (   17143811).
MG BCs: -ve charge blocks (gridpoints):      8549 (    1101867).
MG BCs:     Elided blocks (gridpoints):    190261 (  192457867).
MG BCs: Computational effort saved:  99.9841%.
MG BCs: Charge after coarse-graining:           -9.0006649.
MG DL_MG: Calling solver with defect correction order = 8
MG DL_MG: Solver finished
MG Hartree energy from (\int phi*rho dr):              1258.665072
MG Hartree energy from (\int eps (grad phi)^2 dr):     1258.029593
MG Discrepancy due to finite box and discretization:     -0.635479 (  -0.05049%)
MG Correction to account for finite box:                  0.457043
MG Remaining discrepancy, due to discretization:         -0.178436 (  -0.01418%)
     Trial step:       0.531036301841
             Q1:  -11715.373627089662
 Quadratic coef:       0.328966005678
 Linear coef   :      -0.524364298764
           Qmin:  -11715.387184975232
Quadratic minimum step length (  0.423229867565) accepted
    Initial Ne1:    7233.99995457
      Final Ne1:    7234.00000000

=================== Penalty functional idempotency correction ==================
 RMS occupancy error at iteration   1:  0.000142 (step -0.4994 Ne1=   7234.0000)
            Final RMS occupancy error   :  0.000000 (Ne1=   7234.0000)
               Final occupancy bounds   : [ -0.0000,  1.0000]
================================================================================

    2        -1.171517822880E+04     1.5300E-04     1.3838E-04    -1.5926E+00
MG BCs: +ve charge blocks (gridpoints):     24970 (   17143827).
MG BCs: -ve charge blocks (gridpoints):      8548 (    1101723).
MG BCs:     Elided blocks (gridpoints):    190262 (  192457995).
MG BCs: Computational effort saved:  99.9841%.
MG BCs: Charge after coarse-graining:           -9.0006648.
MG DL_MG: Calling solver with defect correction order = 8
MG DL_MG: Solver finished
MG Hartree energy from (\int phi*rho dr):              1258.409252
MG Hartree energy from (\int eps (grad phi)^2 dr):     1257.773849
MG Discrepancy due to finite box and discretization:     -0.635403 (  -0.05049%)
MG Correction to account for finite box:                  0.457047
MG Remaining discrepancy, due to discretization:         -0.178356 (  -0.01417%)
      ideal mu1:      -0.723631351803
             Q0:  -11715.387659855769
             G0:      -0.145495588601
   RMS gradient:       0.000058230909
MG BCs: +ve charge blocks (gridpoints):     24971 (   17143179).
MG BCs: -ve charge blocks (gridpoints):      8549 (    1102172).
MG BCs:     Elided blocks (gridpoints):    190261 (  192458194).
MG BCs: Computational effort saved:  99.9841%.
MG BCs: Charge after coarse-graining:           -9.0006649.
MG DL_MG: Calling solver with defect correction order = 8
MG DL_MG: Solver finished
MG Hartree energy from (\int phi*rho dr):              1257.930895
MG Hartree energy from (\int eps (grad phi)^2 dr):     1257.295519
MG Discrepancy due to finite box and discretization:     -0.635376 (  -0.05051%)
MG Correction to account for finite box:                  0.457043
MG Remaining discrepancy, due to discretization:         -0.178333 (  -0.01418%)
     Trial step:       0.474078499513
             Q1:  -11715.431798212812
 Quadratic coef:       0.024837973286
 Linear coef   :      -0.068976330330
           Qmin:  -11715.435547560726
Quadratic minimum step length (  0.658270197985) accepted
    Initial Ne1:    7234.00060644
      Final Ne1:    7234.00000000

=================== Penalty functional idempotency correction ==================
 RMS occupancy error at iteration   1:  0.000061 (step -0.4998 Ne1=   7234.0000)
            Final RMS occupancy error   :  0.000000 (Ne1=   7234.0000)
               Final occupancy bounds   : [ -0.0000,  1.0000]
================================================================================

    3        -1.171538765986E+04     5.8231E-05     5.2669E-05    -2.0943E-01
MG BCs: +ve charge blocks (gridpoints):     24971 (   17142969).
MG BCs: -ve charge blocks (gridpoints):      8551 (    1102298).
MG BCs:     Elided blocks (gridpoints):    190261 (  192458278).
MG BCs: Computational effort saved:  99.9841%.
MG BCs: Charge after coarse-graining:           -9.0006649.
MG DL_MG: Calling solver with defect correction order = 8
MG DL_MG: Solver finished
MG Hartree energy from (\int phi*rho dr):              1257.745150
MG Hartree energy from (\int eps (grad phi)^2 dr):     1257.109784
MG Discrepancy due to finite box and discretization:     -0.635366 (  -0.05052%)
MG Correction to account for finite box:                  0.457042
MG Remaining discrepancy, due to discretization:         -0.178324 (  -0.01418%)
      ideal mu1:      -0.722658457917
             Q0:  -11715.435633812100
             G0:      -0.036492183182
   RMS gradient:       0.000029154312
MG BCs: +ve charge blocks (gridpoints):     24971 (   17142796).
MG BCs: -ve charge blocks (gridpoints):      8551 (    1102377).
MG BCs:     Elided blocks (gridpoints):    190261 (  192458372).
MG BCs: Computational effort saved:  99.9841%.
MG BCs: Charge after coarse-graining:           -9.0006649.
MG DL_MG: Calling solver with defect correction order = 8
MG DL_MG: Solver finished
MG Hartree energy from (\int phi*rho dr):              1257.742881
MG Hartree energy from (\int eps (grad phi)^2 dr):     1257.107623
MG Discrepancy due to finite box and discretization:     -0.635258 (  -0.05051%)
MG Correction to account for finite box:                  0.457036
MG Remaining discrepancy, due to discretization:         -0.178222 (  -0.01417%)
     Trial step:       0.558633822584
             Q1:  -11715.444575346075
 Quadratic coef:       0.011444233809
 Linear coef   :      -0.020385767785
           Qmin:  -11715.444712172764
Quadratic minimum step length (  0.497550975197) accepted
    Initial Ne1:    7234.00022662
      Final Ne1:    7234.00000000

=================== Penalty functional idempotency correction ==================
 RMS occupancy error at iteration   1:  0.000018 (step -0.4999 Ne1=   7234.0000)
            Final RMS occupancy error   :  0.000000 (Ne1=   7234.0000)
               Final occupancy bounds   : [ -0.0000,  1.0000]
================================================================================

    4        -1.171543563381E+04     2.9154E-05     2.6369E-05    -4.7974E-02
MG BCs: +ve charge blocks (gridpoints):     24971 (   17142813).
MG BCs: -ve charge blocks (gridpoints):      8551 (    1102370).
MG BCs:     Elided blocks (gridpoints):    190261 (  192458362).
MG BCs: Computational effort saved:  99.9841%.
MG BCs: Charge after coarse-graining:           -9.0006649.
MG DL_MG: Calling solver with defect correction order = 8
MG DL_MG: Solver finished
MG Hartree energy from (\int phi*rho dr):              1257.742938
MG Hartree energy from (\int eps (grad phi)^2 dr):     1257.107668
MG Discrepancy due to finite box and discretization:     -0.635270 (  -0.05051%)
MG Correction to account for finite box:                  0.457037
MG Remaining discrepancy, due to discretization:         -0.178233 (  -0.01417%)
      ideal mu1:      -0.722711465352
             Q0:  -11715.444717424689
             G0:      -0.012245610712
   RMS gradient:       0.000016909118
MG BCs: +ve charge blocks (gridpoints):     24970 (   17143366).
MG BCs: -ve charge blocks (gridpoints):      8551 (    1102122).
MG BCs:     Elided blocks (gridpoints):    190262 (  192458057).
MG BCs: Computational effort saved:  99.9841%.
MG BCs: Charge after coarse-graining:           -9.0006648.
MG DL_MG: Calling solver with defect correction order = 8
MG DL_MG: Solver finished
MG Hartree energy from (\int phi*rho dr):              1258.135513
MG Hartree energy from (\int eps (grad phi)^2 dr):     1257.500282
MG Discrepancy due to finite box and discretization:     -0.635230 (  -0.05049%)
MG Correction to account for finite box:                  0.457031
MG Remaining discrepancy, due to discretization:         -0.178200 (  -0.01416%)
     Trial step:       0.527208500695
             Q1:  -11715.448191703064
 Quadratic coef:       0.002981711688
 Linear coef   :      -0.006455990063
           Qmin:  -11715.448212045569
Quadratic minimum step length (  0.570754854526) accepted
    Initial Ne1:    7234.00010437
      Final Ne1:    7234.00000000

=================== Penalty functional idempotency correction ==================
 RMS occupancy error at iteration   1:  0.000011 (step -0.4999 Ne1=   7234.0000)
            Final RMS occupancy error   :  0.000000 (Ne1=   7234.0000)
               Final occupancy bounds   : [ -0.0000,  1.0000]
================================================================================

    5        -1.171544471742E+04     1.6909E-05     1.5294E-05    -9.0836E-03
MG BCs: +ve charge blocks (gridpoints):     24970 (   17143408).
MG BCs: -ve charge blocks (gridpoints):      8551 (    1102107).
MG BCs:     Elided blocks (gridpoints):    190262 (  192458030).
MG BCs: Computational effort saved:  99.9841%.
MG BCs: Charge after coarse-graining:           -9.0006648.
MG DL_MG: Calling solver with defect correction order = 8
MG DL_MG: Solver finished
MG Hartree energy from (\int phi*rho dr):              1258.167972
MG Hartree energy from (\int eps (grad phi)^2 dr):     1257.532745
MG Discrepancy due to finite box and discretization:     -0.635227 (  -0.05049%)
MG Correction to account for finite box:                  0.457030
MG Remaining discrepancy, due to discretization:         -0.178197 (  -0.01416%)
      ideal mu1:      -0.723053498483
             Q0:  -11715.448213239317
             G0:      -0.004198706207
   RMS gradient:       0.000009901718
MG BCs: +ve charge blocks (gridpoints):     24970 (   17143421).
MG BCs: -ve charge blocks (gridpoints):      8551 (    1102128).
MG BCs:     Elided blocks (gridpoints):    190262 (  192457996).
MG BCs: Computational effort saved:  99.9841%.
MG BCs: Charge after coarse-graining:           -9.0006648.
MG DL_MG: Calling solver with defect correction order = 8
MG DL_MG: Solver finished
MG Hartree energy from (\int phi*rho dr):              1258.152679
MG Hartree energy from (\int eps (grad phi)^2 dr):     1257.517465
MG Discrepancy due to finite box and discretization:     -0.635215 (  -0.05049%)
MG Correction to account for finite box:                  0.457022
MG Remaining discrepancy, due to discretization:         -0.178193 (  -0.01416%)
     Trial step:       0.548549734408
             Q1:  -11715.449687206768
 Quadratic coef:       0.000829231723
 Linear coef   :      -0.002303199175
           Qmin:  -11715.449812528843
Quadratic minimum step length (  0.761801110595) accepted
    Initial Ne1:    7234.00007128
      Final Ne1:    7234.00000000

=================== Penalty functional idempotency correction ==================
 RMS occupancy error at iteration   1:  0.000010 (step -0.4998 Ne1=   7234.0000)
            Final RMS occupancy error   :  0.000000 (Ne1=   7234.0000)
               Final occupancy bounds   : [ -0.0000,  1.0000]
================================================================================

    6        -1.171544821324E+04     9.9017E-06     8.9559E-06    -3.4958E-03
MG BCs: +ve charge blocks (gridpoints):     24970 (   17143417).
MG BCs: -ve charge blocks (gridpoints):      8551 (    1102144).
MG BCs:     Elided blocks (gridpoints):    190262 (  192457984).
MG BCs: Computational effort saved:  99.9841%.
MG BCs: Charge after coarse-graining:           -9.0006648.
MG DL_MG: Calling solver with defect correction order = 8
MG DL_MG: Solver finished
MG Hartree energy from (\int phi*rho dr):              1258.146675
MG Hartree energy from (\int eps (grad phi)^2 dr):     1257.511465
MG Discrepancy due to finite box and discretization:     -0.635210 (  -0.05049%)
MG Correction to account for finite box:                  0.457018
MG Remaining discrepancy, due to discretization:         -0.178191 (  -0.01416%)
      ideal mu1:      -0.723016757622
             Q0:  -11715.449812307488
             G0:      -0.003006181066
   RMS gradient:       0.000008379742
MG BCs: +ve charge blocks (gridpoints):     24970 (   17143141).
MG BCs: -ve charge blocks (gridpoints):      8551 (    1102250).
MG BCs:     Elided blocks (gridpoints):    190262 (  192458154).
MG BCs: Computational effort saved:  99.9841%.
MG BCs: Charge after coarse-graining:           -9.0006648.
MG DL_MG: Calling solver with defect correction order = 8
MG DL_MG: Solver finished
MG Hartree energy from (\int phi*rho dr):              1257.996452
MG Hartree energy from (\int eps (grad phi)^2 dr):     1257.361230
MG Discrepancy due to finite box and discretization:     -0.635222 (  -0.05049%)
MG Correction to account for finite box:                  0.457022
MG Remaining discrepancy, due to discretization:         -0.178200 (  -0.01417%)
     Trial step:       0.646440868826
             Q1:  -11715.450408963021
 Quadratic coef:       0.001346662768
 Linear coef   :      -0.001943318300
           Qmin:  -11715.450513389842
Quadratic minimum step length (  0.466427230425) accepted
    Initial Ne1:    7234.00004102
      Final Ne1:    7234.00000000

=================== Penalty functional idempotency correction ==================
 RMS occupancy error at iteration   1:  0.000001 (step -0.5000 Ne1=   7234.0000)
            Final RMS occupancy error   :  0.000000 (Ne1=   7234.0000)
               Final occupancy bounds   : [  0.0000,  1.0000]
================================================================================

    7        -1.171544981231E+04     8.3797E-06     7.5793E-06    -1.5991E-03
MG BCs: +ve charge blocks (gridpoints):     24970 (   17143208).
MG BCs: -ve charge blocks (gridpoints):      8551 (    1102227).
MG BCs:     Elided blocks (gridpoints):    190262 (  192458110).
MG BCs: Computational effort saved:  99.9841%.
MG BCs: Charge after coarse-graining:           -9.0006648.
MG DL_MG: Calling solver with defect correction order = 8
MG DL_MG: Solver finished
MG Hartree energy from (\int phi*rho dr):              1258.038197
MG Hartree energy from (\int eps (grad phi)^2 dr):     1257.402978
MG Discrepancy due to finite box and discretization:     -0.635218 (  -0.05049%)
MG Correction to account for finite box:                  0.457021
MG Remaining discrepancy, due to discretization:         -0.178198 (  -0.01416%)
      ideal mu1:      -0.722881100458
             Q0:  -11715.450513356715
             G0:      -0.001930777691
   RMS gradient:       0.000006715577
MG BCs: +ve charge blocks (gridpoints):     24970 (   17143140).
MG BCs: -ve charge blocks (gridpoints):      8551 (    1102259).
MG BCs:     Elided blocks (gridpoints):    190262 (  192458146).
MG BCs: Computational effort saved:  99.9841%.
MG BCs: Charge after coarse-graining:           -9.0006648.
MG DL_MG: Calling solver with defect correction order = 8
MG DL_MG: Solver finished
MG Hartree energy from (\int phi*rho dr):              1257.978057
MG Hartree energy from (\int eps (grad phi)^2 dr):     1257.342833
MG Discrepancy due to finite box and discretization:     -0.635224 (  -0.05050%)
MG Correction to account for finite box:                  0.457018
MG Remaining discrepancy, due to discretization:         -0.178206 (  -0.01417%)
     Trial step:       0.549106204737
             Q1:  -11715.451369243208
 Quadratic coef:       0.000204315516
 Linear coef   :      -0.001060202010
           Qmin:  -11715.451888715183
Quadratic minimum step length (  1.424667867648) accepted
    Initial Ne1:    7234.00008027
      Final Ne1:    7234.00000000

=================== Penalty functional idempotency correction ==================
 RMS occupancy error at iteration   1:  0.000020 (step -0.4990 Ne1=   7234.0000)
            Final RMS occupancy error   :  0.000000 (Ne1=   7234.0000)
               Final occupancy bounds   : [ -0.0000,  1.0000]
================================================================================

    8        -1.171545051336E+04     6.7156E-06     6.0741E-06    -7.0105E-04
MG BCs: +ve charge blocks (gridpoints):     24970 (   17143077).
MG BCs: -ve charge blocks (gridpoints):      8551 (    1102300).
MG BCs:     Elided blocks (gridpoints):    190262 (  192458168).
MG BCs: Computational effort saved:  99.9841%.
[...]
MG Hartree energy from (\int phi*rho dr):              1216.150352
MG Hartree energy from (\int eps (grad phi)^2 dr):     1215.967000
MG Discrepancy due to finite box and discretization:     -0.183352 (  -0.01508%)
MG Correction to account for finite box:                  0.006216
MG Remaining discrepancy, due to discretization:         -0.177136 (  -0.01457%)
             Q2:  -11749.595455588191
  Cubic LS coeff:       0.864922111597
Predicted energy:  -11749.595455588185
Cubic minimum step length accepted
    Initial Ne1:    7234.00000000
      Final Ne1:    7234.00000000

=================== Penalty functional idempotency correction ==================
 RMS occupancy error at iteration   1:  0.000000 (step -0.5000 Ne1=   7234.0000)
            Final RMS occupancy error   :  0.000000 (Ne1=   7234.0000)
               Final occupancy bounds   : [ -0.0000,  1.0000]
================================================================================

    7        -1.174959545558E+04     8.4541E-09     7.6466E-09    -1.6298E-09

Reusing previously generated solute cavity.
MG BCs: +ve charge blocks (gridpoints):     28980 (   19322722).
MG BCs: -ve charge blocks (gridpoints):      8544 (    1070779).
MG BCs:     Elided blocks (gridpoints):    186252 (  190310044).
MG BCs: Computational effort saved:  99.9822%.
MG BCs: Charge after coarse-graining:           -9.0009724.
MG DL_MG: Calling solver with defect correction order = 8
MG DL_MG: Solver finished
MG Hartree energy from (\int phi*rho dr):              1216.150352
MG Hartree energy from (\int eps (grad phi)^2 dr):     1215.967000
MG Discrepancy due to finite box and discretization:     -0.183352 (  -0.01508%)
MG Correction to account for finite box:                  0.006216
MG Remaining discrepancy, due to discretization:         -0.177136 (  -0.01457%)
      ideal mu1:      -0.480332275495
             Q0:  -11749.595455588074
             G0:      -0.000000003516
   RMS gradient:       0.000000008390

Reusing previously generated solute cavity.
MG BCs: +ve charge blocks (gridpoints):     28980 (   19322721).
MG BCs: -ve charge blocks (gridpoints):      8544 (    1070779).
MG BCs:     Elided blocks (gridpoints):    186252 (  190310045).
MG BCs: Computational effort saved:  99.9822%.
MG BCs: Charge after coarse-graining:           -9.0009724.
MG DL_MG: Calling solver with defect correction order = 8
MG DL_MG: Solver finished
MG Hartree energy from (\int phi*rho dr):              1216.150325
MG Hartree energy from (\int eps (grad phi)^2 dr):     1215.966972
MG Discrepancy due to finite box and discretization:     -0.183352 (  -0.01508%)
MG Correction to account for finite box:                  0.006216
MG Remaining discrepancy, due to discretization:         -0.177136 (  -0.01457%)
     Trial step:       0.614455918612
             Q1:  -11749.595455589006
 Quadratic coef:       0.000000001230
 Linear coef   :      -0.000000002161
           Qmin:  -11749.595455589024
Quadratic minimum step length (  0.539854599075) accepted
    Initial Ne1:    7234.00000000
      Final Ne1:    7234.00000000

=================== Penalty functional idempotency correction ==================
 RMS occupancy error at iteration   1:  0.000000 (step -0.5000 Ne1=   7234.0000)
            Final RMS occupancy error   :  0.000000 (Ne1=   7234.0000)
               Final occupancy bounds   : [  0.0000,  1.0000]
================================================================================

    8        -1.174959545559E+04     8.3903E-09     7.5888E-09    -3.3760E-09

Reusing previously generated solute cavity.
MG BCs: +ve charge blocks (gridpoints):     28980 (   19322721).
MG BCs: -ve charge blocks (gridpoints):      8544 (    1070779).
MG BCs:     Elided blocks (gridpoints):    186252 (  190310045).
MG BCs: Computational effort saved:  99.9822%.
MG BCs: Charge after coarse-graining:           -9.0009724.
MG DL_MG: Calling solver with defect correction order = 8
MG DL_MG: Solver finished
MG Hartree energy from (\int phi*rho dr):              1216.150328
MG Hartree energy from (\int eps (grad phi)^2 dr):     1215.966976
MG Discrepancy due to finite box and discretization:     -0.183352 (  -0.01508%)
MG Correction to account for finite box:                  0.006216
MG Remaining discrepancy, due to discretization:         -0.177136 (  -0.01457%)
      ideal mu1:      -0.480332244185
             Q0:  -11749.595455589122
             G0:      -0.000000001609
   RMS gradient:       0.000000004835

Reusing previously generated solute cavity.
MG BCs: +ve charge blocks (gridpoints):     28980 (   19322721).
MG BCs: -ve charge blocks (gridpoints):      8544 (    1070779).
MG BCs:     Elided blocks (gridpoints):    186252 (  190310045).
MG BCs: Computational effort saved:  99.9822%.
MG BCs: Charge after coarse-graining:           -9.0009724.
MG DL_MG: Calling solver with defect correction order = 8
MG DL_MG: Solver finished
MG Hartree energy from (\int phi*rho dr):              1216.150327
MG Hartree energy from (\int eps (grad phi)^2 dr):     1215.966975
MG Discrepancy due to finite box and discretization:     -0.183352 (  -0.01508%)
MG Correction to account for finite box:                  0.006216
MG Remaining discrepancy, due to discretization:         -0.177136 (  -0.01457%)
     Trial step:       0.575948655343
             Q1:  -11749.595455588773
 Quadratic coef:       0.000000001275
 Linear coef   :      -0.000000000927
           Qmin:  -11749.595455589291
Quadratic minimum step length (  0.209277292756) accepted
    Initial Ne1:    7234.00000000
      Final Ne1:    7234.00000000

=================== Penalty functional idempotency correction ==================
 RMS occupancy error at iteration   1:  0.000000 (step -0.5000 Ne1=   7234.0000)
            Final RMS occupancy error   :  0.000000 (Ne1=   7234.0000)
               Final occupancy bounds   : [ -0.0000,  1.0000]
================================================================================

    9        -1.174959545559E+04     4.8345E-09     4.3727E-09    -1.0477E-09

Reusing previously generated solute cavity.
MG BCs: +ve charge blocks (gridpoints):     28980 (   19322721).
MG BCs: -ve charge blocks (gridpoints):      8544 (    1070779).
MG BCs:     Elided blocks (gridpoints):    186252 (  190310045).
MG BCs: Computational effort saved:  99.9822%.
MG BCs: Charge after coarse-graining:           -9.0009724.
MG DL_MG: Calling solver with defect correction order = 8
MG DL_MG: Solver finished
MG Hartree energy from (\int phi*rho dr):              1216.150328
MG Hartree energy from (\int eps (grad phi)^2 dr):     1215.966975
MG Discrepancy due to finite box and discretization:     -0.183352 (  -0.01508%)
MG Correction to account for finite box:                  0.006216
MG Remaining discrepancy, due to discretization:         -0.177136 (  -0.01457%)
      ideal mu1:      -0.480332241144
   10        -1.174959545559E+04     3.9510E-09     3.5736E-09     2.3283E-10
Finished density kernel iterations (  10)

Writing density kernel to file "complex_28981.dkn" ... done


>>> Density kernel optimised for the current NGWF basis:
     ~~~~~~~~~~~~~~~~~~~~~~~~~~~~~~~~~~~~~~~~~~~~~~~~~~~~~~~~~~~
     Total energy                =  -1.17495954555889E+04  Eh
     Estimated bandgap           =   9.3938E-02  Eh
     RMS occupancy error         =   5.7148E-16
     [H,K] commutator            =   3.5736E-09
     Occupancy bounds            = [ -0.000:  1.000]
     ~~~~~~~~~~~~~~~~~~~~~~~~~~~~~~~~~~~~~~~~~~~~~~~~~~~~~~~~~~~




################################################################################
########################### NGWF CG iteration  004 #############################
################################################################################
****** Reciprocal space K.E. preconditioning with k_zero =  3.5000 a0^-1 *******

>>> Checking for convergence of NGWFs: 
           ........................................................
           |         *** NGWF optimisation converged ***          |
           | RMS NGWF gradient =    0.00000193299579              |
           | Criteria satisfied:                                  |
           | -> RMS NGWF gradient lower than set threshold.       |
           ========================================================

Reusing previously generated solute cavity.
MG BCs: +ve charge blocks (gridpoints):     28980 (   19322721).
MG BCs: -ve charge blocks (gridpoints):      8544 (    1070779).
MG BCs:     Elided blocks (gridpoints):    186252 (  190310045).
MG BCs: Computational effort saved:  99.9822%.
MG BCs: Charge after coarse-graining:           -9.0009724.
MG DL_MG: Calling solver with defect correction order = 8
MG DL_MG: Solver finished
MG Hartree energy from (\int phi*rho dr):              1216.150328
MG Hartree energy from (\int eps (grad phi)^2 dr):     1215.966975
MG Discrepancy due to finite box and discretization:     -0.183352 (  -0.01508%)
MG Correction to account for finite box:                  0.006216
MG Remaining discrepancy, due to discretization:         -0.177136 (  -0.01457%)

================================================================================
           ---------------- ENERGY COMPONENTS (Eh) ----------------
           | Kinetic                    :     8581.06074283977068 |
           | Pseudo. (local,OBC,corr'd) :    -5083.05236781870099 |
           | Pseudopotential (non-local):     1411.45853807236085 |
           | Hartree (molecular)        :     1216.15032777713736 |
           | Exchange-correlation       :    -3376.95963732237942 |
           | Ion-ion (open BC)          :   835734.50223438430112 |
           | Dispersion Correction      :       -3.27179981620228 |
           | Smeared ion non-self corr. :  -835686.20269693853334 |
           | Smeared ion self corr.     :   -14543.93950988473262 |
           | Solvent cavitation energy  :        2.34354929431195 |
           | Solute-solvent dis-rep en. :       -1.68483617641322 |
           | Total                      :   -11749.59545558908212 |
           --------------------------------------------------------
           ------ LOCAL ENERGY COMPONENTS FROM MATRIX TRACES ------
           | Pseudopotential (local)    :    -5083.05236781870917 |
           | Hartree                    :    -1998.88332999917725 |
           --------------------------------------------------------
           Integrated density           :     7233.99999999882039
           Integrated density tr(KS)    :     7234.00000000000091
================================================================================


                        <<<<< CALCULATION SUMMARY >>>>>                         
|ITER|    RMS GRADIENT   |     TOTAL ENERGY    |   step   |     Epredicted              
   0     0.00004054206065 -11749.52737911476288   0.645712 -11749.58634926901868        
   1     0.00000945365284 -11749.59495832410175   0.083174 -11749.59537134361926        
   2     0.00000425518420 -11749.59543740947265   0.015857 -11749.59545336243718        
   3     0.00000193299579 -11749.59545558888931  <-- CG                                 

=================== Finished the calculation in solvent ========================
= Adjusting the following parameters: 
= read_denskern: F
= read_tightbox_ngwfs: F
= maxit_pen: 0 (restored to user-specified value)
= restart read filename prefix: ""
= restart write filename prefix: ""
================================================================================

================================================================================
IS: Calculation in solvent completed (NGWFs converged).      

Individual components of total energy in solvent:     hartree           kcal/mol
- Usual non-electrostatic DFT terms:    -12966.40449648392496    -8136541.489555
- Electrostatic fixed charge energy:      1216.15032777713736      763145.836009
- Apolar cavitation energy:                  2.34354929431195        1470.599353
- Apolar dispersion-repulsion energy:       -1.68483617641322       -1057.250640
 -------------------------------------------------------------------------------
- Total energy in solvent:              -11749.59545558888931    -7372982.304833

Components of total energy in solvent:                hartree           kcal/mol
- Usual non-electrostatic DFT terms:    -12966.40449648392496    -8136541.489555
- Electrostatic energy:                   1216.15032777713736      763145.836009
- Apolar energy terms:                       0.65871311789873         413.348713
 -------------------------------------------------------------------------------
- Total energy in solvent:              -11749.59545558888931    -7372982.304833

Calculation of free energy of solvation:              hartree           kcal/mol
- Total energy in solvent:         (+)  -11749.59545558888931    -7372982.304833
- Total energy in vacuum:          (-)  -11745.61117264511995    -7370482.129593
 -------------------------------------------------------------------------------
- Total free energy of solvation:           -3.98428294376936       -2500.175240

Components of polar term in f.e. of solvation:        hartree           kcal/mol
- Electrostatic:                            -4.80340375905303       -3014.181301
- Change in nonelectrostatic DFT terms:      0.16040769738538         100.657348
 -------------------------------------------------------------------------------
- Polar term in f.e. of solvation:          -4.64299606166765       -2913.523954

Components of free energy of solvation:               hartree           kcal/mol
- Polar term in f.e. of solvation: (+)      -4.64299606166765       -2913.523954
- Apolar (cavitation, dis., rep.): (+)       0.65871311789873         413.348713
 -------------------------------------------------------------------------------
- Total free energy of solvation:           -3.98428294376891       -2500.175240
================================================================================


------------------------------ TIMING INFORMATION ------------------------------
AVERAGE TIME:   40958.766s on     60 node(s)                                    
TOTAL TIME:     40958.767s on     60 node(s)                                    
================= AVERAGE TIMINGS FROM ALL NODES (CUMULATIVE) ==================
|| TAG                                    #calls    cpu time   %total  Gflops ||
|| work_imbalance                       :     1        0.00s   0.000%  ------ ||
|| sparse_set_to_garbage                :   224        0.04s   0.000%  ------ ||
|| parallel_prepare_fd_halos_request    :  2433        0.04s   0.000%  ------ ||
|| ngwfs_initialise_from_radial         :     1        0.12s   0.000%  ------ ||
|| parallel_prepare_fd_halos_alloc      :  2433        0.13s   0.000%  ------ ||
|| basis_extract_function_from_box      :  4471        0.19s   0.000%  ------ ||
|| parallel_prepare_fd_halos_satisfy    :  2433        0.75s   0.002%  ------ ||
|| pseudopotentials_nonlocal_mat        :    38        1.61s   0.004%  ------ ||
|| openbc_locps_radial                  :     1        3.35s   0.008%  ------ ||
|| density_init_guess_real              :     1        3.82s   0.009%  ------ ||
|| restart_kernel_read                  :     1        4.50s   0.011%  ------ ||
|| restart_ngwfs_tightbox_input         :     1        7.41s   0.018%  ------ ||
|| parallel_prepare_fd_halos_comms_imbal:  2433       11.99s   0.029%  ------ ||
|| sparse_init                          :     2       22.19s   0.054%  ------ ||
|| parallel_prepare_fd_halos_clear      :  2433       25.45s   0.062%  ------ ||
|| palser_mano_kernel_optimise          :     1       34.82s   0.085%  ------ ||
|| projectors_func_ovlp_box             :    38       35.98s   0.088%  ------ ||
|| parallel_prepare_fd_halos_comms_wait :  2433       36.25s   0.088%  ------ ||
|| projectors_init_fftbox_recip         :   178       36.74s   0.090%  ------ ||
|| function_ops_brappd_ketppd           :    38       39.82s   0.097%  ------ ||
|| pseudo_make_structure_factor         :     2       54.89s   0.134%  ------ ||
|| basis_copy_function_to_box           : 73172       55.68s   0.136%  ------ ||
|| ngwf_gradient_coeffs                 :    20       62.45s   0.152%  ------ ||
|| fourier_apply_box_pair               :  6452       71.55s   0.175% 592.289 ||
|| parallel_prepare_fd_halos            :  2433       74.63s   0.182%  ------ ||
|| sparse_embed_hotelling_invert_embed  :    38       91.45s   0.223%  ------ ||
|| restart_kernel_write                 :    21      129.62s   0.316%  ------ ||
|| finite_difference_derivative         :  2433      169.23s   0.413%  ------ ||
|| integrals_kinetic                    :    38      191.07s   0.467%  ------ ||
|| basis_dot_function_with_box          : 11.20M     211.85s   0.517%  ------ ||
|| sparse_trace                         :  6298      221.16s   0.540%  ------ ||
|| projectors_gradient_batch            :   140      228.84s   0.559%  ------ ||
|| fourier_apply_cell_backward          :  1623      247.37s   0.604%  97.965 ||
|| openbc_locps_on_grid                 :     2      284.80s   0.695%  ------ ||
|| fourier_apply_cell_forward           :  1621      286.36s   0.699%  84.521 ||
|| kernel_purify                        :   619      376.88s   0.920%  ------ ||
|| basis_add_function_to_box            : 23.37M     500.69s   1.222%  ------ ||
|| lnv_gradient_norm                    :   200      548.69s   1.340%  ------ ||
|| kernel_fix                           :   200      608.99s   1.487%  ------ ||
|| xc_energy_potential                  :   405      622.86s   1.521%  ------ ||
|| hamiltonian_energy_components        :     5      653.43s   1.595%  ------ ||
|| integrals_locpot_mat_els_batch       :  1477      859.07s   2.097%  ------ ||
|| ngwf_gradient_build_batch            :   140     1046.41s   2.555%  ------ ||
|| restart_ngwfs_tightbox_output        :    18     1287.82s   3.144%  ------ ||
|| ngwf_gradient_batch                  :   140     1418.88s   3.464%  ------ ||
|| density_batch_row_sums               :  2828     1532.57s   3.742%  ------ ||
|| ngwf_gradient_lnv                    :    20     1585.68s   3.871%  ------ ||
|| cell_grid_deposit_box_real           : 46916     1617.10s   3.948%  ------ ||
|| sparse_product                       :  8085     2287.46s   5.585%  ------ ||
|| density_fftbox_deposit_to_cell       : 44440     2625.74s   6.411%  ------ ||
|| cell_grid_extract_box_real           : 51330     2696.66s   6.584%  ------ ||
|| potential_apply_to_ngwf_batch        :  1477     5075.65s  12.392%  ------ ||
|| density_fftbox_interpolate_multiply  : 44440     5153.71s  12.583%  ------ ||
|| integrals_locpot_dbl_grid            :   211     5963.54s  14.560%  ------ ||
|| fourier_apply_box                    : 152.8k    6214.95s  15.174% 781.857 ||
|| multigrid_prepare_bound_cond         :   405     6433.26s  15.707%  ------ ||
|| density_batch_interp_deposit         :  2828     9003.16s  21.981%  ------ ||
|| dl_mg_solver_calls                   :   405     9630.29s  23.512%  ------ ||
|| density_on_dbl_grid                  :   404    10880.10s  26.564%  ------ ||
|| multigrid_calculate_hartree          :   405    16294.50s  39.783%  ------ ||
|| hamiltonian_lhxc_calculate           :   399    27732.51s  67.708%  ------ ||
|| lnv_denskernel_optimise_cg           :    20    34682.26s  84.676%  ------ ||
|| ngwf_cg_optimise                     :     2    39976.86s  97.603%  ------ ||
|| total_time                           :     1    40958.77s 100.000%  ------ ||
================================================================================
Overhead of generating timer report: 
- 0 ms averaging over threads,
- 15 ms ensuring consistency across MPI ranks,
- 0 ms printing in order.

Job completed: 07-05-2020 18:21 (+0100)

Application 40515676 resources: utime ~8425347s, stime ~415312s, Rss ~4230188, inblocks ~363630051, outblocks ~87479788
