 +---------------------------------------------------------------+
 |                                                               |
 |        ####### #     # ####### ####### ####### ######         |
 |        #     # ##    # #          #    #       #     #        |
 |        #     # # #   # #          #    #       #     #        |
 |        #     # #  #  # #####      #    #####   ######         |
 |        #     # #   # # #          #    #       #              |
 |        #     # #    ## #          #    #       #              |
 |        ####### #     # #######    #    ####### #              |
 |                                                               |
 |        Linear-Scaling Ab Initio Total Energy Program          |
 |                                                               |
 |          Release for academic collaborators of ODG            |
 |                                             Version 5.3.2.6.  |
 |                                                               |
 +---------------------------------------------------------------+
 |                                                               |
 |  Authors:                                                     |
 |  Jacek Dziedzic, Peter D. Haynes, Nicholas D. M. Hine,        |
 |  Arash. A. Mostofi, Mike C. Payne and Chris-Kriton Skylaris   |
 |                                                               |
 |  Contributors:                                                |
 |  J. Aarons, L. Andrinopoulos, P. W. Avraam, R. A. Bell,       |
 |  A. Bhandari, G. A. Bramley, R. J. Charlton, S. J. Clark,     |
 |  R. J. Clements, G. C. Constantinescu, F. Corsetti,           |
 |  N. Corsini, O. Dieguez, S. M. M. Dubois, K. K. B. Duff,      |
 |  J. M. Escartin, A. Greco, H. Helal, Q. O. Hill, L. P. Lee,   |
 |  J.-H. Li, E. B. Linscott, G. Moynihan, D. D. O`Regan,        |
 |  O. K. Okan, M. J. S. Phipps, C. J. Pickard,                  |
 |  J. C. A. Prentice, M. I. J. Probert, L. E. Ratcliff,         |
 |  M. Robinson, A. Ruiz Serrano, J. S. Spencer, E. W. Tait,     |
 |  G. Teobaldi, D. Turban, V. Vitale, K. A. Wilkinson,          |
 |  C. Weber, J. C. Womack, N. Yeung and T. J. Zuehlsdorff       |
 |                                                               |
 |                                   Copyright (c) 2004-2019     |
 |                                                               |
 |  Please cite:                                                 |
 |  "Introducing ONETEP: Linear-scaling density functional       |
 |   simulations on parallel computers".                         |
 |   C.-K. Skylaris, P. D. Haynes, A. A. Mostofi, M. C. Payne.   |
 |   J. Chem. Phys. 122 084119 (2005).                           |
 |                                                               |
 |          in all publications arising from your use of ONETEP. |
 |                                                               |
 +---------------------------------------------------------------+
 |                                                               |
 |   ONETEP is based on developments described in the following  |
 |   publications:                                               |
 |                                                               |
 |  "Nonorthogonal generalized Wannier function pseudopotential  |
 |   plane-wave method".                                         |
 |   C.-K. Skylaris, A. A. Mostofi, P. D. Haynes, O. Dieguez,    |
 |   M. C. Payne.                                                |
 |   Phys. Rev. B 66 035119 (2002).                              |
 |                                                               |
 |  "Preconditioned iterative minimization for linear-scaling    |
 |   electronic structure calculations".                         |
 |   A. A. Mostofi, P. D. Haynes, C.-K. Skylaris, M. C. Payne.   |
 |   J. Chem. Phys. 119(17), pp.8842-8848 (2003).                |
 |                                                               |
 |  "Total-energy calculations on a real space grid with         |
 |   localized functions and a plane-wave basis".                |
 |   A. A. Mostofi, C.-K. Skylaris, P. D. Haynes, M. C. Payne.   |
 |   Comput. Phys. Commun. 147, pp.788-802 (2002).               |
 |                                                               |
 |  "Accurate kinetic energy evaluation in electronic structure  |
 |   calculations with localized functions on real space grids"  |
 |   C.-K. Skylaris, A. A. Mostofi, P. D. Haynes, C. J. Pickard, |
 |   M. C. Payne.                                                |
 |   Comput. Phys. Commun. 140, pp.315-322 (2001).               |
 |                                                               |
 |  "Accurate ionic forces and geometry optimization in linear-  |
 |   scaling density-functional theory with local orbitals"      |
 |   N. D. M. Hine, M. Robinson, P. D. Haynes, C.-K. Skylaris,   |
 |   M. C. Payne, and A. A. Mostofi.                             |
 |   Phys. Rev. B 83 195102 (2011).                              |
 |                                                               |
 +---------------------------------------------------------------+

Job started: 13-03-2020 08:21 (-0000)
 
Reading parameters from file "complex_17961.dat" ...... done

If your calculation crashes here, before "Checking processes and threads..."
is displayed, then your stack size is insufficient.
If so, use "ulimit -s unlimited" at runtime.
You can disable this check with "check_stack_size F".

Checking processes and threads...
   Determining the default number of threads...
      No default threads set at compilation time: defaulting to 1.
      OpenMP library call suggests 4 threads.
      Hybrid MPI-OpenMP compilation detected.
      Number of MPI processes > 1.
      OMP_NUM_THREADS environment variable present and
      its value matches the one obtained from the OpenMP library call.
      Using this value as default.
      Default threads: 4
      Default applies to threads_max and threads_num_fftboxes.
      Settings in the input file override this default.
   ... done

   Running with 60 MPI processes.
   There are 6 MPI processes running on the same node as the root process.
   Each MPI process is using: 
               1 threads for simulation cell FFTs.
               1 threads for parallel FFT box operations.
               4 threads for loops over batched FFT box operations.
               4 threads in other parallel regions.
... done

Basic input checks...... done

Reading geometry and species blocks from file "complex_17961.dat" ...
  <species_atomic_set> block not found: NGWF initialisation set to SOLVE
IS: Dielectric excluded regions:
    - NONE.
    
  Number of PPD points along a3 set to 1.  This is 
  the default value, it may have been provided also in the input file.
... done
 Writing xyz coordinates to file "complex_17961.xyz" ... done


--------------------------------------------------------------------------------
---------------------------------- INPUT FILE ----------------------------------
--------------------------------------------------------------------------------

cutoff_energy       : 800 eV                                                    
xc_functional PBE                                                               
task SINGLEPOINT                                                                
write_xyz true                                                                  
output_detail VERBOSE                                                           
ngwf_threshold_orig : 0.000002                                                  
kernel_cutoff       : 1000                                                      
k_zero              : 3.5                                                       
elec_cg_max 0                                                                   
occ_mix 1.0                                                                     
dispersion 1                                                                    
maxit_ngwf_cg 40                                                                
minit_lnv 10                                                                    
maxit_lnv 10                                                                    
write_denskern T                                                                
write_tightbox_ngwfs T                                                          
charge 9                                                                        
is_implicit_solvent T                                                           
is_auto_solvation T                                                             
is_include_apolar T                                                             
is_smeared_ion_rep T                                                            
is_solvent_surf_tension 4.7624E-5 Ha/bohr**2                                    
is_apolar_scaling_factor 0.281075                                               
is_solvation_beta 1.3                                                           
is_density_threshold 0.00035                                                    
is_bulk_permittivity 78.54                                                      
is_dielectric_model fix_initial                                                 
is_smeared_ion_width 0.8                                                        
mg_defco_fd_order 8                                                             
is_bc_coarseness 10                                                             
is_bc_surface_coarseness 1                                                      
fine_grid_scale 2.0                                                             
%block species                                                                  
N   N   7 4 8.0                                                                 
H   H   1 1 8.0                                                                 
C   C   6 4 8.0                                                                 
S   S  16 9 8.0                                                                 
O   O   8 4 8.0                                                                 
%endblock species                                                               
%block species_pot                                                              
N   N_00.recpot                                                                 
H   H_04.recpot                                                                 
C   C_01.recpot                                                                 
S   S_00.recpot                                                                 
O   O_02.recpot                                                                 
%endblock species_pot                                                           
%block lattice_cart                                                             
142.669   0.000   0.000                                                         
0.000 146.65   0.000                                                            
0.000   0.000   162.396                                                         
%endblock lattice_cart                                                          
%block positions_abs                                                            
     Hash =   000006597486582201284439
%endblock positions_abs                                                         

--------------------------------------------------------------------------------
-------------------------------- END INPUT FILE --------------------------------
--------------------------------------------------------------------------------


 
 ESDF WARNING(1): "kernelcutoff" (esdf_physical) has no units. Assume "bohr".
 ESDF WARNING(2): "kzero" (esdf_physical) has no units. Assume "1/bohr".
 ESDF WARNING(3
 ): "issmearedionwidth" (esdf_physical) has no units. Assume "bohr".
<<<<<<<<<<<<<<<<<<<<<<<<<<<<<<<<< Full system >>>>>>>>>>>>>>>>>>>>>>>>>>>>>>>>>>
<<<<<<<<<<<<<<<<<<<<<<<<< Pseudopotential information >>>>>>>>>>>>>>>>>>>>>>>>>>
File: N_00.recpot [ 2001 points up to Gmax=  52.9 (1/bohr)]
  Atomic number:  7;  ionic charge:  5.000000
    Shell 1: l = 0; rc = 1.48 bohr
File: H_04.recpot [ 2001 points up to Gmax=  52.9 (1/bohr)]
  Atomic number:  1;  ionic charge:  1.000000
    Local potential
File: C_01.recpot [ 2001 points up to Gmax=  52.9 (1/bohr)]
  Atomic number:  6;  ionic charge:  4.000000
    Shell 1: l = 0; rc = 1.48 bohr
File: S_00.recpot [ 2001 points up to Gmax=  52.9 (1/bohr)]
  Atomic number: 16;  ionic charge:  6.000000
    Shell 1: l = 0; rc = 1.90 bohr
    Shell 2: l = 2; rc = 1.84 bohr
File: O_02.recpot [ 2001 points up to Gmax=  52.9 (1/bohr)]
  Atomic number:  8;  ionic charge:  6.000000
    Shell 1: l = 0; rc = 1.31 bohr
<<<<<<<<<<<<<<<<<<<<<<<<<<<<<<<<<<<<<<<<>>>>>>>>>>>>>>>>>>>>>>>>>>>>>>>>>>>>>>>>

-------------------------- Atom counting information ---------------------------
Symbol    Natoms    Nngwfs    Nprojs
  N        236       944       236
  H       1317      1317         0
  C        816      3264       816
  S          6        54        36
  O        241       964       241
.......   ......    ......    ......
Totals:   2616      6543      1329
--------------------------------------------------------------------------------

=============================== PSINC grid sizes ===============================
                      Simulation cell:  286 x 294 x 320
                              FFT-box:  105 x 105 x  99
                                  PPD:   11 x   6 x   1
Grid space d1=  0.498842657343a0 (KE cutoff=  30.52649Eh = 830.66799eV)
Grid space d2=  0.498809523810a0 (KE cutoff=  30.53054Eh = 830.77835eV)
Grid space d3=  0.507487500000a0 (KE cutoff=  29.49533Eh = 802.60885eV)
================================================================================

********************* Fourier parallelisation information **********************
       Coarse grid (whole simulation cell) dimensions:    286   294   320
          Real-space ('12') slabs/node (min max mean):      5     6     5
         Recip-space ('23') slabs/node (min max mean):      2     3     2
********************************************************************************

********************* Fourier parallelisation information **********************
       Double grid (whole simulation cell) dimensions:    572   588   640
          Real-space ('12') slabs/node (min max mean):     10    11    10
         Recip-space ('23') slabs/node (min max mean):      4     5     4
********************************************************************************
ONETEP fine grid is 572 x 588 x 640 gridpoints, 142.6690 x 146.6500 x 162.3960 bohr.
FD multigrid is     569 x 585 x 633 gridpoints, 141.9207 x 145.9018 x 160.6198 bohr.


Calculating local pseudopotential in open BC on a radial grid ...
Discrepancy between calculated realspace psloc and -Z/x on [5a0,261.215a0]:
max |rel. diff| # avg |rel. diff| #  avg rel. diff #  f # pseudopotential file
 0.000261901569    0.000004963664   0.000000071970   55  'N_00.recpot'
 0.000422260137    0.000017549664  -0.000000063361   55  'H_04.recpot'
 0.000361991046    0.000016543264   0.000000134927   55  'C_01.recpot'
 0.000447743184    0.000019132268   0.000000438157   55  'S_00.recpot'
 0.000711628927    0.000028437426   0.000000135877   55  'O_02.recpot'
... done

Atom SCF Calculation for N  : Z (AE atom) =   7 : Z (PS atom) =   5
Config String:
Orbitals (num,occ):  2     2.00 3.00
Orbitals   (num,l):  2        0    1
Real-space Grid (nr,dr,rmax): 1203    0.0066555740    8.0000000000
Spherical Bessel Basis (nsws,lmax,cutoff):   47    1  176.3951722778
Confining potential (l,width,scale):  0    3.0000000000  100.0000000000
Confining potential (l,width,scale):  1    3.0000000000  100.0000000000
  1         -4.7312375307   -3.4155304497    7.0523828109   -1.9351020946
  2         -9.7309464766   -2.0532547791    8.2966052865   -2.2494486027
  3         -9.6627394379   -2.1124926340    8.2327997121   -2.2369778124
  4         -9.6814993499   -2.1215521045    8.2229805960   -2.2365178421
  5         -9.6843326483   -2.1250939529    8.2191374534   -2.2362718126
  6         -9.6859628709   -2.1267894855    8.2172963573   -2.2362066344
  7         -9.6867347035   -2.1276425665    8.2163697352   -2.2361903369
  8         -9.6870802100   -2.1280764625    8.2158983890   -2.2361891460
  9         -9.6872290423   -2.1282977424    8.2156580222   -2.2361920435
 10         -9.6872901988   -2.1284107021    8.2155353368   -2.2361953393
 11         -9.6873135296   -2.1284684031    8.2154726809   -2.2361979819
 12         -9.6873212476   -2.1284978948    8.2154406648   -2.2361998431
 13         -9.6873229586   -2.1285129774    8.2154242957   -2.2362010676
 14         -9.6873226456   -2.1285206957    8.2154159216   -2.2362018403
 15         -9.6873218534   -2.1285246479    8.2154116349   -2.2362023142
 16         -9.6873212599   -2.1285262679    8.2154098784   -2.2362025420
 17         -9.6873207834   -2.1285272564    8.2154088068   -2.2362026955
 18         -9.6873204210   -2.1285278596    8.2154081529   -2.2362027982
 19         -9.6873201550   -2.1285282280    8.2154077538   -2.2362028667
 20         -9.6873199645   -2.1285284529    8.2154075102   -2.2362029121
 21         -9.6873198305   -2.1285285903    8.2154073614   -2.2362029421
 22         -9.6873197377   -2.1285286742    8.2154072705   -2.2362029618
Atom SCF converged after  22 iterations to a total energy of     -9.68731974

Atom SCF Calculation for H  : Z (AE atom) =   1 : Z (PS atom) =   1
Config String:
Orbitals (num,occ):  1     1.00
Orbitals   (num,l):  1        0
Real-space Grid (nr,dr,rmax): 1203    0.0066555740    8.0000000000
Spherical Bessel Basis (nsws,lmax,cutoff):   47    0  176.3951722778
Confining potential (l,width,scale):  0    3.0000000000  100.0000000000
  1         -0.3194257691   -0.2393854593    0.2820953124   -0.2424203209
  2         -0.3951823392   -0.2377116493    0.2886404059   -0.2475147891
  3         -0.4317044583   -0.2352244387    0.2921333887   -0.2514046172
  4         -0.4470703708   -0.2341892222    0.2934391879   -0.2531009782
  5         -0.4532132900   -0.2338556667    0.2938388426   -0.2537313520
  6         -0.4556579251   -0.2337612552    0.2939448584   -0.2539550462
  7         -0.4566418315   -0.2337377355    0.2939680120   -0.2540342273
  8         -0.4570437922   -0.2337331116    0.2939708287   -0.2540627372
  9         -0.4572102946   -0.2337328328    0.2939698291   -0.2540732650
 10         -0.4572800424   -0.2337332404    0.2939687193   -0.2540772588
 11         -0.4573095100   -0.2337335791    0.2939680317   -0.2540788122
 12         -0.4573220379   -0.2337337762    0.2939676699   -0.2540794294
 13         -0.4573273880   -0.2337338775    0.2939674931   -0.2540796787
 14         -0.4573296803   -0.2337339266    0.2939674099   -0.2540797808
 15         -0.4573306647   -0.2337339495    0.2939673718   -0.2540798230
 16         -0.4573310882   -0.2337339601    0.2939673545   -0.2540798406
 17         -0.4573312706   -0.2337339649    0.2939673467   -0.2540798479
 18         -0.4573313493   -0.2337339670    0.2939673433   -0.2540798510
Atom SCF converged after  18 iterations to a total energy of     -0.45733135

Atom SCF Calculation for C  : Z (AE atom) =   6 : Z (PS atom) =   4
Config String:
Orbitals (num,occ):  2     2.00 2.00
Orbitals   (num,l):  2        0    1
Real-space Grid (nr,dr,rmax): 1203    0.0066555740    8.0000000000
Spherical Bessel Basis (nsws,lmax,cutoff):   47    1  176.3951722778
Confining potential (l,width,scale):  0    3.0000000000  100.0000000000
Confining potential (l,width,scale):  1    3.0000000000  100.0000000000
  1         -5.2976922011   -1.3069684169    4.5135249990   -1.4493313817
  2         -5.3721716256   -1.3429755895    4.4750154450   -1.4361613026
  3         -5.3809959565   -1.3617365618    4.4541655428   -1.4305930207
  4         -5.3918938866   -1.3667928461    4.4484735100   -1.4294652294
  5         -5.3956096428   -1.3688539142    4.4461376126   -1.4290734646
  6         -5.3968271862   -1.3696852393    4.4451910874   -1.4289366866
  7         -5.3972028401   -1.3700178062    4.4448112275   -1.4288900460
  8         -5.3973067903   -1.3701500158    4.4446598370   -1.4288749220
  9         -5.3973286940   -1.3702023868    4.4445997329   -1.4288704293
 10         -5.3973289850   -1.3702230869    4.4445759233   -1.4288693188
 11         -5.3973254264   -1.3702312560    4.4445665049   -1.4288691775
 12         -5.3973224003   -1.3702344755    4.4445627836   -1.4288692549
 13         -5.3973208708   -1.3702354890    4.4445616088   -1.4288693270
 14         -5.3973198783   -1.3702360102    4.4445610034   -1.4288693814
 15         -5.3973192535   -1.3702362780    4.4445606917   -1.4288694190
 16         -5.3973188684   -1.3702364155    4.4445605313   -1.4288694437
 17         -5.3973186349   -1.3702364860    4.4445604489   -1.4288694595
 18         -5.3973184951   -1.3702365221    4.4445604065   -1.4288694693
 19         -5.3973184122   -1.3702365405    4.4445603848   -1.4288694753
Atom SCF converged after  19 iterations to a total energy of     -5.39731841

Atom SCF Calculation for S  : Z (AE atom) =  16 : Z (PS atom) =   6
Config String:
Orbitals (num,occ):  3     2.00 4.00 0.00
Orbitals   (num,l):  3        0    1    2
Real-space Grid (nr,dr,rmax): 1203    0.0066555740    8.0000000000
Spherical Bessel Basis (nsws,lmax,cutoff):   47    2  176.3951722778
Confining potential (l,width,scale):  0    3.0000000000  100.0000000000
Confining potential (l,width,scale):  1    3.0000000000  100.0000000000
Confining potential (l,width,scale):  2    3.0000000000  100.0000000000
  1        -12.4735062396   -1.0328741412   10.1554312477   -2.4512393157
  2         -9.9458301913   -2.4607392455    8.3041325857   -2.0306994528
  3        -10.1450417646   -2.2931184565    8.4831893826   -2.0812538287
  4        -10.1528335592   -2.2733105793    8.5050388867   -2.0896035179
  5        -10.1571940363   -2.2633716629    8.5160794258   -2.0939370707
  6        -10.1594380571   -2.2584938667    8.5215163935   -2.0961289008
  7        -10.1605856507   -2.2561081821    8.5241804044   -2.0972291378
  8        -10.1611799191   -2.2549395235    8.5254868240   -2.0977806248
  9        -10.1614918752   -2.2543658586    8.5261285885   -2.0980571586
 10        -10.1616572884   -2.2540839121    8.5264441898   -2.0981959233
 11        -10.1617455602   -2.2539453058    8.5265994231   -2.0982656006
 12        -10.1617928447   -2.2538772062    8.5266757320   -2.0983006047
 13        -10.1618182292   -2.2538437891    8.5267131983   -2.0983181961
 14        -10.1618318741   -2.2538274201    8.5267315620   -2.0983270391
 15        -10.1618392144   -2.2538194197    8.5267405433   -2.0983314852
 16        -10.1618431651   -2.2538155200    8.5267449245   -2.0983337210
 17        -10.1618452923   -2.2538136252    8.5267470551   -2.0983348455
 18        -10.1618464380   -2.2538127080    8.5267480875   -2.0983354110
 19        -10.1618470552   -2.2538122659    8.5267485856   -2.0983356955
 20        -10.1618473878   -2.2538120540    8.5267488248   -2.0983358386
 21        -10.1618475670   -2.2538119530    8.5267489389   -2.0983359106
 22        -10.1618476637   -2.2538119053    8.5267489929   -2.0983359468
Atom SCF converged after  22 iterations to a total energy of    -10.16184766

Atom SCF Calculation for O  : Z (AE atom) =   8 : Z (PS atom) =   6
Config String:
Orbitals (num,occ):  2     2.00 4.00
Orbitals   (num,l):  2        0    1
Real-space Grid (nr,dr,rmax): 1203    0.0066555740    8.0000000000
Spherical Bessel Basis (nsws,lmax,cutoff):   47    1  176.3951722778
Confining potential (l,width,scale):  0    3.0000000000  100.0000000000
Confining potential (l,width,scale):  1    3.0000000000  100.0000000000
  1         -1.8735052164   -7.5539365035   10.1554312477   -2.4512393157
  2        -16.0318313751   -3.1285771268   13.6395848164   -3.2358799643
  3        -15.9524020423   -3.0762819706   13.6967272503   -3.2536856837
  4        -15.8521515939   -3.0781493909   13.6951909330   -3.2561700440
  5        -15.8357139793   -3.0748501933   13.6988803334   -3.2580493133
  6        -15.8246052853   -3.0740779781   13.6997881576   -3.2588327446
  7        -15.8189019501   -3.0737449687   13.7001869911   -3.2592378801
  8        -15.8159785510   -3.0736026016   13.7003615168   -3.2594475790
  9        -15.8144776168   -3.0735437994   13.7004360379   -3.2595560735
 10        -15.8137058024   -3.0735207882   13.7004667348   -3.2596122456
 11        -15.8133083127   -3.0735125946   13.7004786868   -3.2596413656
 12        -15.8131032938   -3.0735102195   13.7004828997   -3.2596564858
 13        -15.8129973902   -3.0735099286   13.7004840891   -3.2596643505
 14        -15.8129426040   -3.0735102506   13.7004842061   -3.2596684489
 15        -15.8129142203   -3.0735106556   13.7004840157   -3.2596705887
 16        -15.8128994940   -3.0735109855   13.7004837906   -3.2596717080
 17        -15.8128918425   -3.0735112169   13.7004836103   -3.2596722946
 18        -15.8128878614   -3.0735113674   13.7004834848   -3.2596726026
 19        -15.8128857871   -3.0735114608   13.7004834035   -3.2596727646
 20        -15.8128847048   -3.0735115170   13.7004833533   -3.2596728500
 21        -15.8128841394   -3.0735115501   13.7004833231   -3.2596728951
 22        -15.8128838436   -3.0735115693   13.7004833054   -3.2596729190
 23        -15.8128836887   -3.0735115802   13.7004832951   -3.2596729316
 24        -15.8128836074   -3.0735115864   13.7004832893   -3.2596729383
Atom SCF converged after  24 iterations to a total energy of    -15.81288361

========================== Calculation in vacuum ==============================
= Adjusting the following parameters: 
= is_implicit_solvent: F
= is_include_apolar: F
= write_denskern: T
= write_tightbox_ngwfs: T
= restart read filename prefix: ""
= restart write filename prefix: "vacuum_"
===============================================================================

Determining parallel strategy ...
... using space-filling curve
... NGWF load balancing: max    110;  min    109;  average    109
... Projector load balancing: max     26;  min     21;  average     22
... done
Calculating direct Ion-Ion energy ...
Ion-Ion Energy        :    843753.47489986754954
======================= Empirical dispersion information =======================
Model : Elstner
Dispersion Correction Energy: -0.32935123E+01 Hartree
================================================================================
Basis initialisation ...... NGWF spheres initialised
... Projector spheres initialised
... NGWF tight boxes initialised
... Tight-boxes gathered
... NGWF basis size (local,global):     985151  58999189
... Nonlocal pseudopotential projector initialisation
... done

========================== Sparse matrix information ===========================
                        Overlap matrix filling:   6.80%
                        Density kernel filling: 100.00%
              NGWF-Proj overlap matrix filling:   1.78%
                    Hamiltonian matrix filling:   7.69%
                  NGWF diagonal matrix filling:   0.05%
                             KS matrix filling: 100.00% 
                           KSKS matrix filling: 100.00% 
================================================================================

Sparse matrix initialisation ... done

Generating smeared ion density ... done
Smeared ion self correction:     -14543.939510
Smeared ion non-self correction: -843705.265756
NGWF initialisation ...... done
============ Calculation of NGWF S^-1 using Hotelling algorithm ================ 
         Iteration  |  Frobenius norm and Maximum abs value    (of I-S*S_n^-1)   
               1       0.78785875E+02     0.98315402E+00
               2       0.76984063E+02     0.96671348E+00
               3       0.74046531E+02     0.93498508E+00
               4       0.69836514E+02     0.87586936E+00
               5       0.64557573E+02     0.77492238E+00
               6       0.58594624E+02     0.70424669E+00
               7       0.52558282E+02     0.66994039E+00
               8       0.46976350E+02     0.64765489E+00
               9       0.40967447E+02     0.60912950E+00
              10       0.32821534E+02     0.54189721E+00
              11       0.22308741E+02     0.43494693E+00
              12       0.11593453E+02     0.29717166E+00
              13       0.39286398E+01     0.14075152E+00
              14       0.66036512E+00     0.39857777E-01
              15       0.38679184E-01     0.44186953E-02
              16       0.39843770E-03     0.75959669E-04
              17       0.10069132E-06     0.23691344E-07
              18       0.10166656E-12     0.44408921E-14
================================================================================
Calculating local pseudopotential in open BC on the fine real space grid ...
... done

MG BCs: +ve charge blocks (gridpoints):     20493 (   16152571).
MG BCs: -ve charge blocks (gridpoints):      8179 (    1102910).
MG BCs:     Elided blocks (gridpoints):    194739 (  193448064).
MG BCs: Computational effort saved:  99.9864%.
MG BCs: Charge after coarse-graining:           -9.0002218.
MG DL_MG: Calling solver with defect correction order = 8
MG DL_MG: Solver finished
MG Hartree energy from (\int phi*rho dr):              1471.253730
MG Hartree energy from (\int eps (grad phi)^2 dr):     1470.652638
MG Discrepancy due to finite box and discretization:     -0.601093 (  -0.04086%)
MG Correction to account for finite box:                  0.453343
MG Remaining discrepancy, due to discretization:         -0.147750 (  -0.01004%)
Up spin density kernel initialisation ... 
======= Optimisation of K by Palser-Manolopoulos canonical purification ======== 
         Iteration  |  Band structure energy |    c_n   
               1       -2607.50499630317108    0.5267196
               2       -2784.16932203251781    0.5169756
               3       -2965.01420614672725    0.5155312
               4       -3115.70838186005903    0.5293948
               5       -3208.08331764617014    0.5658250
               6       -3246.58901912334204    0.6110213
               7       -3259.69228426100108    0.6235069
               8       -3265.39357598435527    0.6247479
               9       -3268.14108927674215    0.6427119
              10       -3269.27773330615219    0.6698813
              11       -3269.73105625449443    0.6929709
              12       -3269.93017699449592    0.6944896
              13       -3270.03481153442681    0.6613871
              14       -3270.10186748730302    0.6098685
              15       -3270.14340081436012    0.5544312
              16       -3270.16315710408844    0.4814983
              17       -3270.16885776351501    0.3847814
              18       -3270.16929774265827    0.3667843
              19       -3270.16949751433185    0.3862160
              20       -3270.16972014745352    0.4162752
              21       -3270.16996131115411    0.4524649
              22       -3270.17016610122846    0.4838871
              23       -3270.17026994045227    0.4981015
              24       -3270.17028893293809    0.4999745
              25       -3270.17028945627408    0.5000087
              26       -3270.17028945666516    0.5000087
Termination criterion satisfied: band energy change below threshold.
Final occupancy bounds: [    0.00000000000000:    1.00000000000000]
Closest occupancy to 0.5:     1.00000000000000
================================================================================
... done

Writing density kernel to file "complex_17961.vacuum_dkn" ... done

>>> Optimising kernel for current NGWFs:
   Initial electron number for spin 1:    7234.00000000
     Final electron number for spin 1:    7234.00000000

=================== Penalty functional idempotency correction ==================
 RMS occupancy error at iteration   1:  0.000000 (step -0.5000 Ne1=   7234.0000)
            Final RMS occupancy error   :  0.000000 (Ne1=   7234.0000)
               Final occupancy bounds   : [  0.0000,  1.0000]
================================================================================

................................................................................
<<<<<<<<<<<<<< LNV (Original version) density kernel optimisation >>>>>>>>>>>>>>
~~~~~~~~~~~~~~~~~~~~~~~~~~~~~~~~~~~~~~~~~~~~~~~~~~~~~~~~~~~~~~~~~~~~~~~~~~~~~~~~
   iter  |      energy (Eh)       | rms gradient |  commutator  |   dE (Eh)
MG BCs: +ve charge blocks (gridpoints):     31203 (   17277978).
MG BCs: -ve charge blocks (gridpoints):      8444 (    1135870).
MG BCs:     Elided blocks (gridpoints):    184027 (  192289697).
MG BCs: Computational effort saved:  99.9812%.
MG BCs: Charge after coarse-graining:           -9.0009852.
MG DL_MG: Calling solver with defect correction order = 8
MG DL_MG: Solver finished
MG Hartree energy from (\int phi*rho dr):              1426.380740
MG Hartree energy from (\int eps (grad phi)^2 dr):     1425.727691
MG Discrepancy due to finite box and discretization:     -0.653049 (  -0.04578%)
MG Correction to account for finite box:                  0.463427
MG Remaining discrepancy, due to discretization:         -0.189622 (  -0.01329%)
      ideal mu1:      -0.704422438485
             Q0:  -11577.529238727759
             G0:    -145.856482327770
   RMS gradient:       0.001845805549
MG BCs: +ve charge blocks (gridpoints):     31209 (   17360673).
MG BCs: -ve charge blocks (gridpoints):      8345 (    1114978).
MG BCs:     Elided blocks (gridpoints):    184021 (  192227894).
MG BCs: Computational effort saved:  99.9812%.
MG BCs: Charge after coarse-graining:           -9.0010062.
MG DL_MG: Calling solver with defect correction order = 8
MG DL_MG: Solver finished
MG Hartree energy from (\int phi*rho dr):              1451.369220
MG Hartree energy from (\int eps (grad phi)^2 dr):     1450.733249
MG Discrepancy due to finite box and discretization:     -0.635972 (  -0.04382%)
MG Correction to account for finite box:                  0.461880
MG Remaining discrepancy, due to discretization:         -0.174092 (  -0.01200%)
     Trial step:       0.500000000000
             Q1:  -11589.152914489037
 Quadratic coef:      61.304565402606
 Linear coef   :     -72.928241163885
           Qmin:  -11599.218195840207
Quadratic minimum step length (  0.297401346396) accepted
    Initial Ne1:    7234.00000000
      Final Ne1:    7234.00000000

=================== Penalty functional idempotency correction ==================
 RMS occupancy error at iteration   1:  0.003424 (step -0.4884 Ne1=   7234.0000)
 RMS occupancy error at iteration   2:  0.000027 (step -0.5001 Ne1=   7234.0000)
            Final RMS occupancy error   :  0.000000 (Ne1=   7234.0000)
               Final occupancy bounds   : [  0.0000,  1.0000]
================================================================================

    1        -1.157752923873E+04     1.8458E-03     1.6695E-03
MG BCs: +ve charge blocks (gridpoints):     31199 (   17328881).
MG BCs: -ve charge blocks (gridpoints):      8389 (    1123407).
MG BCs:     Elided blocks (gridpoints):    184031 (  192251257).
MG BCs: Computational effort saved:  99.9812%.
MG BCs: Charge after coarse-graining:           -9.0009979.
MG DL_MG: Calling solver with defect correction order = 8
MG DL_MG: Solver finished
MG Hartree energy from (\int phi*rho dr):              1433.270268
MG Hartree energy from (\int eps (grad phi)^2 dr):     1432.628290
MG Discrepancy due to finite box and discretization:     -0.641978 (  -0.04479%)
MG Correction to account for finite box:                  0.462411
MG Remaining discrepancy, due to discretization:         -0.179567 (  -0.01253%)
      ideal mu1:      -0.750071677736
             Q0:  -11599.626169347321
             G0:     -12.204453635040
   RMS gradient:       0.000530308796
MG BCs: +ve charge blocks (gridpoints):     31206 (   17346046).
MG BCs: -ve charge blocks (gridpoints):      8370 (    1118150).
MG BCs:     Elided blocks (gridpoints):    184024 (  192239349).
MG BCs: Computational effort saved:  99.9812%.
MG BCs: Charge after coarse-graining:           -9.0010014.
MG DL_MG: Calling solver with defect correction order = 8
MG DL_MG: Solver finished
MG Hartree energy from (\int phi*rho dr):              1438.457054
MG Hartree energy from (\int eps (grad phi)^2 dr):     1437.818972
MG Discrepancy due to finite box and discretization:     -0.638082 (  -0.04436%)
MG Correction to account for finite box:                  0.461644
MG Remaining discrepancy, due to discretization:         -0.176438 (  -0.01227%)
     Trial step:       0.385617262578
             Q1:  -11602.486876097275
 Quadratic coef:       1.845541252049
 Linear coef   :      -4.706248002004
           Qmin:  -11602.626477553893
Quadratic minimum step length (  0.491674317637) accepted
    Initial Ne1:    7233.99990577
      Final Ne1:    7234.00000000

=================== Penalty functional idempotency correction ==================
 RMS occupancy error at iteration   1:  0.001809 (step -0.4932 Ne1=   7234.0000)
 RMS occupancy error at iteration   2:  0.000010 (step -0.5001 Ne1=   7234.0000)
            Final RMS occupancy error   :  0.000000 (Ne1=   7234.0000)
               Final occupancy bounds   : [  0.0000,  1.0000]
================================================================================

    2        -1.159962616935E+04     5.3031E-04     4.7965E-04    -2.2097E+01
MG BCs: +ve charge blocks (gridpoints):     31212 (   17350748).
MG BCs: -ve charge blocks (gridpoints):      8367 (    1116830).
MG BCs:     Elided blocks (gridpoints):    184018 (  192235967).
MG BCs: Computational effort saved:  99.9812%.
MG BCs: Charge after coarse-graining:           -9.0010024.
MG DL_MG: Calling solver with defect correction order = 8
MG DL_MG: Solver finished
MG Hartree energy from (\int phi*rho dr):              1439.933048
MG Hartree energy from (\int eps (grad phi)^2 dr):     1439.295963
MG Discrepancy due to finite box and discretization:     -0.637085 (  -0.04424%)
MG Correction to account for finite box:                  0.461448
MG Remaining discrepancy, due to discretization:         -0.175638 (  -0.01220%)
      ideal mu1:      -0.775424961944
             Q0:  -11602.663552494720
             G0:      -1.926172583450
   RMS gradient:       0.000210785379
MG BCs: +ve charge blocks (gridpoints):     31204 (   17349936).
MG BCs: -ve charge blocks (gridpoints):      8371 (    1117904).
MG BCs:     Elided blocks (gridpoints):    184026 (  192235705).
MG BCs: Computational effort saved:  99.9812%.
MG BCs: Charge after coarse-graining:           -9.0010021.
MG DL_MG: Calling solver with defect correction order = 8
MG DL_MG: Solver finished
MG Hartree energy from (\int phi*rho dr):              1437.755970
MG Hartree energy from (\int eps (grad phi)^2 dr):     1437.119370
MG Discrepancy due to finite box and discretization:     -0.636600 (  -0.04428%)
MG Correction to account for finite box:                  0.461166
MG Remaining discrepancy, due to discretization:         -0.175434 (  -0.01220%)
     Trial step:       0.435428644496
             Q1:  -11603.155366704916
 Quadratic coef:       0.346896506881
 Linear coef   :      -0.838710717076
           Qmin:  -11603.170501723802
Quadratic minimum step length (  0.526379861741) accepted
    Initial Ne1:    7233.99995146
      Final Ne1:    7234.00000000

=================== Penalty functional idempotency correction ==================
 RMS occupancy error at iteration   1:  0.000628 (step -0.4973 Ne1=   7234.0000)
 RMS occupancy error at iteration   2:  0.000002 (step -0.5000 Ne1=   7234.0000)
            Final RMS occupancy error   :  0.000000 (Ne1=   7234.0000)
               Final occupancy bounds   : [  0.0000,  1.0000]
================================================================================

    3        -1.160266355249E+04     2.1079E-04     1.9065E-04    -3.0374E+00
MG BCs: +ve charge blocks (gridpoints):     31206 (   17349824).
MG BCs: -ve charge blocks (gridpoints):      8373 (    1118144).
MG BCs:     Elided blocks (gridpoints):    184024 (  192235577).
MG BCs: Computational effort saved:  99.9812%.
MG BCs: Charge after coarse-graining:           -9.0010020.
MG DL_MG: Calling solver with defect correction order = 8
MG DL_MG: Solver finished
MG Hartree energy from (\int phi*rho dr):              1437.310453
MG Hartree energy from (\int eps (grad phi)^2 dr):     1436.673944
MG Discrepancy due to finite box and discretization:     -0.636509 (  -0.04428%)
MG Correction to account for finite box:                  0.461108
MG Remaining discrepancy, due to discretization:         -0.175400 (  -0.01220%)
      ideal mu1:      -0.776374073168
             Q0:  -11603.175216367119
             G0:      -0.493549989414
   RMS gradient:       0.000106822634
MG BCs: +ve charge blocks (gridpoints):     31208 (   17350634).
MG BCs: -ve charge blocks (gridpoints):      8375 (    1117857).
MG BCs:     Elided blocks (gridpoints):    184022 (  192235054).
MG BCs: Computational effort saved:  99.9812%.
MG BCs: Charge after coarse-graining:           -9.0010022.
MG DL_MG: Calling solver with defect correction order = 8
MG DL_MG: Solver finished
MG Hartree energy from (\int phi*rho dr):              1438.552674
MG Hartree energy from (\int eps (grad phi)^2 dr):     1437.916189
MG Discrepancy due to finite box and discretization:     -0.636485 (  -0.04424%)
MG Correction to account for finite box:                  0.460995
MG Remaining discrepancy, due to discretization:         -0.175490 (  -0.01220%)
     Trial step:       0.478749276436
             Q1:  -11603.295739145018
 Quadratic coef:       0.115763922418
 Linear coef   :      -0.236286700317
           Qmin:  -11603.295788052106
Quadratic minimum step length (  0.488589555557) accepted
    Initial Ne1:    7233.99998839
      Final Ne1:    7234.00000000

=================== Penalty functional idempotency correction ==================
 RMS occupancy error at iteration   1:  0.000256 (step -0.4972 Ne1=   7234.0000)
 RMS occupancy error at iteration   2:  0.000002 (step -0.5000 Ne1=   7234.0000)
            Final RMS occupancy error   :  0.000000 (Ne1=   7234.0000)
               Final occupancy bounds   : [  0.0000,  1.0000]
================================================================================

    4        -1.160317521637E+04     1.0682E-04     9.6619E-05    -5.1166E-01
MG BCs: +ve charge blocks (gridpoints):     31208 (   17350658).
MG BCs: -ve charge blocks (gridpoints):      8375 (    1117858).
MG BCs:     Elided blocks (gridpoints):    184022 (  192235029).
MG BCs: Computational effort saved:  99.9812%.
MG BCs: Charge after coarse-graining:           -9.0010022.
MG DL_MG: Calling solver with defect correction order = 8
MG DL_MG: Solver finished
MG Hartree energy from (\int phi*rho dr):              1438.578638
MG Hartree energy from (\int eps (grad phi)^2 dr):     1437.942153
MG Discrepancy due to finite box and discretization:     -0.636484 (  -0.04424%)
MG Correction to account for finite box:                  0.460993
MG Remaining discrepancy, due to discretization:         -0.175492 (  -0.01220%)
      ideal mu1:      -0.776423081518
             Q0:  -11603.296369683114
             G0:      -0.165206663814
   RMS gradient:       0.000061981036
MG BCs: +ve charge blocks (gridpoints):     31207 (   17350883).
MG BCs: -ve charge blocks (gridpoints):      8367 (    1117635).
MG BCs:     Elided blocks (gridpoints):    184023 (  192235027).
MG BCs: Computational effort saved:  99.9812%.
MG BCs: Charge after coarse-graining:           -9.0010021.
MG DL_MG: Calling solver with defect correction order = 8
MG DL_MG: Solver finished
MG Hartree energy from (\int phi*rho dr):              1438.999130
MG Hartree energy from (\int eps (grad phi)^2 dr):     1438.362519
MG Discrepancy due to finite box and discretization:     -0.636611 (  -0.04424%)
MG Correction to account for finite box:                  0.460967
MG Remaining discrepancy, due to discretization:         -0.175644 (  -0.01221%)
     Trial step:       0.483644390226
             Q1:  -11603.346816045931
 Quadratic coef:       0.029454913365
 Linear coef   :      -0.079901276182
           Qmin:  -11603.350556007279
Quadratic minimum step length (  0.655982306217) accepted
    Initial Ne1:    7233.99999478
      Final Ne1:    7234.00000000

=================== Penalty functional idempotency correction ==================
 RMS occupancy error at iteration   1:  0.000310 (step -0.4827 Ne1=   7234.0000)
 RMS occupancy error at iteration   2:  0.000006 (step -0.5000 Ne1=   7234.0000)
            Final RMS occupancy error   :  0.000000 (Ne1=   7234.0000)
               Final occupancy bounds   : [  0.0000,  1.0000]
================================================================================

    5        -1.160329636968E+04     6.1981E-05     5.6061E-05    -1.2115E-01
MG BCs: +ve charge blocks (gridpoints):     31205 (   17350986).
MG BCs: -ve charge blocks (gridpoints):      8369 (    1117536).
MG BCs:     Elided blocks (gridpoints):    184025 (  192235023).
MG BCs: Computational effort saved:  99.9812%.
MG BCs: Charge after coarse-graining:           -9.0010021.
MG DL_MG: Calling solver with defect correction order = 8
MG DL_MG: Solver finished
MG Hartree energy from (\int phi*rho dr):              1439.148059
MG Hartree energy from (\int eps (grad phi)^2 dr):     1438.511404
MG Discrepancy due to finite box and discretization:     -0.636655 (  -0.04424%)
MG Correction to account for finite box:                  0.460956
MG Remaining discrepancy, due to discretization:         -0.175698 (  -0.01221%)
      ideal mu1:      -0.776574205370
             Q0:  -11603.350389104919
             G0:      -0.129574087468
   RMS gradient:       0.000055136731
MG BCs: +ve charge blocks (gridpoints):     31208 (   17350283).
MG BCs: -ve charge blocks (gridpoints):      8366 (    1118010).
MG BCs:     Elided blocks (gridpoints):    184022 (  192235252).
MG BCs: Computational effort saved:  99.9812%.
MG BCs: Charge after coarse-graining:           -9.0010019.
MG DL_MG: Calling solver with defect correction order = 8
MG DL_MG: Solver finished
MG Hartree energy from (\int phi*rho dr):              1438.039211
MG Hartree energy from (\int eps (grad phi)^2 dr):     1437.402632
MG Discrepancy due to finite box and discretization:     -0.636579 (  -0.04427%)
MG Correction to account for finite box:                  0.460890
MG Remaining discrepancy, due to discretization:         -0.175689 (  -0.01222%)
     Trial step:       0.563260297277
             Q1:  -11603.407995055430
 Quadratic coef:       0.015377988515
 Linear coef   :      -0.072983939027
           Qmin:  -11603.436984555141
Quadratic minimum step length (  1.336616786805) accepted
    Initial Ne1:    7233.99997296
      Final Ne1:    7234.00000000

=================== Penalty functional idempotency correction ==================
 RMS occupancy error at iteration   1:  0.002892 (step -0.3452 Ne1=   7234.0000)
 RMS occupancy error at iteration   2:  0.000167 (step -0.4945 Ne1=   7234.0000)
 RMS occupancy error at iteration   3:  0.000002 (step -0.5000 Ne1=   7234.0000)
            Final RMS occupancy error   :  0.000000 (Ne1=   7234.0000)
               Final occupancy bounds   : [  0.0000,  1.0000]
================================================================================

    6        -1.160335038910E+04     5.5137E-05     4.9870E-05    -5.4019E-02
MG BCs: +ve charge blocks (gridpoints):     31208 (   17349362).
MG BCs: -ve charge blocks (gridpoints):      8373 (    1118585).
MG BCs:     Elided blocks (gridpoints):    184022 (  192235598).
MG BCs: Computational effort saved:  99.9812%.
MG BCs: Charge after coarse-graining:           -9.0010017.
MG DL_MG: Calling solver with defect correction order = 8
MG DL_MG: Solver finished
MG Hartree energy from (\int phi*rho dr):              1436.514972
MG Hartree energy from (\int eps (grad phi)^2 dr):     1435.878509
MG Discrepancy due to finite box and discretization:     -0.636463 (  -0.04431%)
MG Correction to account for finite box:                  0.460789
MG Remaining discrepancy, due to discretization:         -0.175673 (  -0.01223%)
      ideal mu1:      -0.776980886723
             Q0:  -11603.417497958289
             G0:      -0.287696547978
   RMS gradient:       0.000081976695
MG BCs: +ve charge blocks (gridpoints):     31204 (   17351968).
MG BCs: -ve charge blocks (gridpoints):      8363 (    1117002).
MG BCs:     Elided blocks (gridpoints):    184026 (  192234575).
MG BCs: Computational effort saved:  99.9812%.
MG BCs: Charge after coarse-graining:           -9.0010027.
MG DL_MG: Calling solver with defect correction order = 8
MG DL_MG: Solver finished
MG Hartree energy from (\int phi*rho dr):              1440.336282
MG Hartree energy from (\int eps (grad phi)^2 dr):     1439.700094
MG Discrepancy due to finite box and discretization:     -0.636188 (  -0.04417%)
MG Correction to account for finite box:                  0.460638
MG Remaining discrepancy, due to discretization:         -0.175550 (  -0.01219%)
     Trial step:       0.867676880343
             Q1:  -11603.480009982828
 Quadratic coef:       0.187115618697
 Linear coef   :      -0.249627643235
           Qmin:  -11603.500753916158
Quadratic minimum step length (  0.578776203285) accepted
    Initial Ne1:    7233.99999972
      Final Ne1:    7234.00000000

=================== Penalty functional idempotency correction ==================
 RMS occupancy error at iteration   1:  0.000143 (step -0.4893 Ne1=   7234.0000)
 RMS occupancy error at iteration   2:  0.000001 (step -0.5000 Ne1=   7234.0000)
            Final RMS occupancy error   :  0.000000 (Ne1=   7234.0000)
               Final occupancy bounds   : [  0.0000,  1.0000]
================================================================================

    7        -1.160341749796E+04     8.1977E-05     7.4146E-05    -6.7109E-02
MG BCs: +ve charge blocks (gridpoints):     31207 (   17351124).
MG BCs: -ve charge blocks (gridpoints):      8368 (    1117498).
MG BCs:     Elided blocks (gridpoints):    184023 (  192234923).
MG BCs: Computational effort saved:  99.9812%.
MG BCs: Charge after coarse-graining:           -9.0010024.
MG DL_MG: Calling solver with defect correction order = 8
MG DL_MG: Solver finished
MG Hartree energy from (\int phi*rho dr):              1439.057210
MG Hartree energy from (\int eps (grad phi)^2 dr):     1438.420930
MG Discrepancy due to finite box and discretization:     -0.636279 (  -0.04422%)
MG Correction to account for finite box:                  0.460690
MG Remaining discrepancy, due to discretization:         -0.175590 (  -0.01220%)
      ideal mu1:      -0.777722877090
             Q0:  -11603.500971216010
             G0:      -0.183181310626
   RMS gradient:       0.000065333145
MG BCs: +ve charge blocks (gridpoints):     31205 (   17351119).
MG BCs: -ve charge blocks (gridpoints):      8367 (    1117494).
MG BCs:     Elided blocks (gridpoints):    184025 (  192234932).
MG BCs: Computational effort saved:  99.9812%.
MG BCs: Charge after coarse-graining:           -9.0010024.
MG DL_MG: Calling solver with defect correction order = 8
MG DL_MG: Solver finished
MG Hartree energy from (\int phi*rho dr):              1438.969015
MG Hartree energy from (\int eps (grad phi)^2 dr):     1438.333010
MG Discrepancy due to finite box and discretization:     -0.636006 (  -0.04420%)
MG Correction to account for finite box:                  0.460572
MG Remaining discrepancy, due to discretization:         -0.175433 (  -0.01219%)
     Trial step:       0.708654168465
             Q1:  -11603.580322438618
 Quadratic coef:       0.050460976752
 Linear coef   :      -0.129812199360
           Qmin:  -11603.584457546374
Quadratic minimum step length (  0.911515809987) accepted
    Initial Ne1:    7233.99999962
      Final Ne1:    7234.00000000

=================== Penalty functional idempotency correction ==================
 RMS occupancy error at iteration   1:  0.001257 (step -0.4193 Ne1=   7234.0000)
 RMS occupancy error at iteration   2:  0.000041 (step -0.4975 Ne1=   7234.0000)
            Final RMS occupancy error   :  0.000000 (Ne1=   7234.0000)
               Final occupancy bounds   : [ -0.0000,  1.0000]
================================================================================

    8        -1.160350097122E+04     6.5333E-05     5.9092E-05    -8.3473E-02
MG BCs: +ve charge blocks (gridpoints):     31205 (   17351113).
MG BCs: -ve charge blocks (gridpoints):      8367 (    1117505).
MG BCs:     Elided blocks (gridpoints):    184025 (  192234927).
MG BCs: Computational effort saved:  99.9812%.
MG BCs: Charge after coarse-graining:           -9.0010025.
MG DL_MG: Calling solver with defect correction order = 8
MG DL_MG: Solver finished
MG Hartree energy from (\int phi*rho dr):              1438.945662
MG Hartree energy from (\int eps (grad phi)^2 dr):     1438.309731
MG Discrepancy due to finite box and discretization:     -0.635930 (  -0.04419%)
MG Correction to account for finite box:                  0.460541
MG Remaining discrepancy, due to discretization:         -0.175390 (  -0.01219%)
      ideal mu1:      -0.777700509651
             Q0:  -11603.583108313265
             G0:      -0.215132677237
   RMS gradient:       0.000071188246
MG BCs: +ve charge blocks (gridpoints):     31204 (   17350286).
MG BCs: -ve charge blocks (gridpoints):      8370 (    1118178).
MG BCs:     Elided blocks (gridpoints):    184026 (  192235081).
MG BCs: Computational effort saved:  99.9812%.
MG BCs: Charge after coarse-graining:           -9.0010021.
MG DL_MG: Calling solver with defect correction order = 8
MG DL_MG: Solver finished
MG Hartree energy from (\int phi*rho dr):              1437.435913
MG Hartree energy from (\int eps (grad phi)^2 dr):     1436.800273
MG Discrepancy due to finite box and discretization:     -0.635640 (  -0.04422%)
MG Correction to account for finite box:                  0.460355
MG Remaining discrepancy, due to discretization:         -0.175286 (  -0.01219%)
     Trial step:       0.803709822242
             Q1:  -11603.653642304009
 Quadratic coef:       0.102370255037
 Linear coef   :      -0.172904245781
           Qmin:  -11603.656117504748
Quadratic minimum step length (  0.678736419044) accepted
    Initial Ne1:    7234.00124845
      Final Ne1:    7234.00000000

=================== Penalty functional idempotency correction ==================
 RMS occupancy error at iteration   1:  0.003248 (step -0.3405 Ne1=   7234.0000)
 RMS occupancy error at iteration   2:  0.000218 (step -0.4864 Ne1=   7234.0000)
 RMS occupancy error at iteration   3:  0.000003 (step -0.5000 Ne1=   7234.0000)
            Final RMS occupancy error   :  0.000000 (Ne1=   7234.0000)
               Final occupancy bounds   : [  0.0000,  1.0000]
================================================================================

    9        -1.160358310831E+04     7.1188E-05     6.4388E-05    -8.2137E-02
MG BCs: +ve charge blocks (gridpoints):     31205 (   17350386).
MG BCs: -ve charge blocks (gridpoints):      8370 (    1118089).
MG BCs:     Elided blocks (gridpoints):    184025 (  192235070).
MG BCs: Computational effort saved:  99.9812%.
MG BCs: Charge after coarse-graining:           -9.0010021.
MG DL_MG: Calling solver with defect correction order = 8
MG DL_MG: Solver finished
MG Hartree energy from (\int phi*rho dr):              1437.675794
MG Hartree energy from (\int eps (grad phi)^2 dr):     1437.040126
MG Discrepancy due to finite box and discretization:     -0.635668 (  -0.04421%)
MG Correction to account for finite box:                  0.460372
MG Remaining discrepancy, due to discretization:         -0.175296 (  -0.01219%)
      ideal mu1:      -0.777233823168
   10        -1.160366320108E+04     6.2134E-05     5.6199E-05    -8.0093E-02
Finished density kernel iterations (  10)

Writing density kernel to file "complex_17961.vacuum_dkn" ... done


>>> Density kernel optimised for the current NGWF basis:
     ~~~~~~~~~~~~~~~~~~~~~~~~~~~~~~~~~~~~~~~~~~~~~~~~~~~~~~~~~~~
     Total energy                =  -1.16036632010806E+04  Eh
     Estimated bandgap           =  -3.7296E-01  Eh
     RMS occupancy error         =   1.0218E-09
     [H,K] commutator            =   5.6199E-05
     Occupancy bounds            = [  0.000:  1.000]
     ~~~~~~~~~~~~~~~~~~~~~~~~~~~~~~~~~~~~~~~~~~~~~~~~~~~~~~~~~~~




################################################################################
########################### NGWF CG iteration  001 #############################
################################################################################
****** Reciprocal space K.E. preconditioning with k_zero =  3.5000 a0^-1 *******

>>> Checking for convergence of NGWFs:   NOT CONVERGED
  ========================================================================
         NGWF RMS gradient =  1.5599E-03 >  2.0000E-06  | above tolerance
  ========================================================================

>>> Improving NGWFs using line search:
============ Calculation of NGWF S^-1 using Hotelling algorithm ================ 
         Iteration  |  Frobenius norm and Maximum abs value    (of I-S*S_n^-1)   
               1       0.19206206E+00     0.47122944E-02
               2       0.84949384E-03     0.33160008E-04
               3       0.28259096E-07     0.16908667E-08
               4       0.13099652E-12     0.75495166E-14
================================================================================
MG BCs: +ve charge blocks (gridpoints):     30716 (   17289424).
MG BCs: -ve charge blocks (gridpoints):      8378 (    1118030).
MG BCs:     Elided blocks (gridpoints):    184514 (  192296091).
MG BCs: Computational effort saved:  99.9814%.
MG BCs: Charge after coarse-graining:           -9.0010024.
MG DL_MG: Calling solver with defect correction order = 8
MG DL_MG: Solver finished
MG Hartree energy from (\int phi*rho dr):              1406.341720
MG Hartree energy from (\int eps (grad phi)^2 dr):     1405.706780
MG Discrepancy due to finite box and discretization:     -0.634940 (  -0.04515%)
MG Correction to account for finite box:                  0.460307
MG Remaining discrepancy, due to discretization:         -0.174633 (  -0.01242%)
============ Calculation of NGWF S^-1 using Hotelling algorithm ================ 
         Iteration  |  Frobenius norm and Maximum abs value    (of I-S*S_n^-1)   
               1       0.18517186E+01     0.38556744E-01
               2       0.70898019E-01     0.20156563E-02
               3       0.13924240E-03     0.68730236E-05
               4       0.95208588E-09     0.93728296E-10
               5       0.11027918E-12     0.42188475E-14
================================================================================
------------------------------- NGWF line search -------------------------------
RMS gradient                =       0.00155991738359
Trial step length           =               0.122474
Gradient along search dir.  =       -270.40518602238
Functional at step 0        =  -11603.66320108063519
Functional at step 1        =  -11634.30096213251818
Functional predicted        =  -11714.22724719258986
Selected quadratic step     =               0.817766
--------------------------- NGWF line search finished --------------------------
                                               
Writing NGWFs to file "complex_17961.vacuum_tightbox_ngwfs"....  done

>>> Optimising kernel for current NGWFs:
   Initial electron number for spin 1:    7268.38415784
     Final electron number for spin 1:    7234.00000000

=================== Penalty functional idempotency correction ==================
 RMS occupancy error at iteration   1:  0.004222 (step -0.4864 Ne1=   7234.0000)
 RMS occupancy error at iteration   2:  0.000068 (step -0.5003 Ne1=   7234.0000)
            Final RMS occupancy error   :  0.000000 (Ne1=   7234.0000)
               Final occupancy bounds   : [  0.0000,  1.0000]
================================================================================

................................................................................
<<<<<<<<<<<<<< LNV (Original version) density kernel optimisation >>>>>>>>>>>>>>
~~~~~~~~~~~~~~~~~~~~~~~~~~~~~~~~~~~~~~~~~~~~~~~~~~~~~~~~~~~~~~~~~~~~~~~~~~~~~~~~
   iter  |      energy (Eh)       | rms gradient |  commutator  |   dE (Eh)
MG BCs: +ve charge blocks (gridpoints):     24533 (   17004892).
MG BCs: -ve charge blocks (gridpoints):      8553 (    1102092).
MG BCs:     Elided blocks (gridpoints):    190699 (  192596561).
MG BCs: Computational effort saved:  99.9843%.
MG BCs: Charge after coarse-graining:           -9.0006596.
MG DL_MG: Calling solver with defect correction order = 8
MG DL_MG: Solver finished
MG Hartree energy from (\int phi*rho dr):              1250.832027
MG Hartree energy from (\int eps (grad phi)^2 dr):     1250.196876
MG Discrepancy due to finite box and discretization:     -0.635151 (  -0.05078%)
MG Correction to account for finite box:                  0.459991
MG Remaining discrepancy, due to discretization:         -0.175160 (  -0.01400%)
      ideal mu1:      -0.717508491069
             Q0:  -11713.412805087981
             G0:      -9.917409544464
   RMS gradient:       0.000481307029
MG BCs: +ve charge blocks (gridpoints):     24605 (   17020777).
MG BCs: -ve charge blocks (gridpoints):      8540 (    1098329).
MG BCs:     Elided blocks (gridpoints):    190627 (  192584439).
MG BCs: Computational effort saved:  99.9843%.
MG BCs: Charge after coarse-graining:           -9.0006554.
MG DL_MG: Calling solver with defect correction order = 8
MG DL_MG: Solver finished
MG Hartree energy from (\int phi*rho dr):              1267.179189
MG Hartree energy from (\int eps (grad phi)^2 dr):     1266.538364
MG Discrepancy due to finite box and discretization:     -0.640826 (  -0.05057%)
MG Correction to account for finite box:                  0.459692
MG Remaining discrepancy, due to discretization:         -0.181134 (  -0.01429%)
     Trial step:       0.738584542689
             Q1:  -11712.594163758215
 Quadratic coef:       8.143486722825
 Linear coef   :      -7.324845393059
           Qmin:  -11715.059930019181
Quadratic minimum step length (  0.332168380022) accepted
    Initial Ne1:    7233.99962124
      Final Ne1:    7234.00000000

=================== Penalty functional idempotency correction ==================
 RMS occupancy error at iteration   1:  0.000359 (step -0.4986 Ne1=   7234.0000)
 RMS occupancy error at iteration   2:  0.000000 (step -0.5000 Ne1=   7234.0000)
            Final RMS occupancy error   :  0.000000 (Ne1=   7234.0000)
               Final occupancy bounds   : [  0.0000,  1.0000]
================================================================================

    1        -1.171341280509E+04     4.8131E-04     4.3533E-04
MG BCs: +ve charge blocks (gridpoints):     24571 (   17012191).
MG BCs: -ve charge blocks (gridpoints):      8551 (    1100383).
MG BCs:     Elided blocks (gridpoints):    190661 (  192590971).
MG BCs: Computational effort saved:  99.9843%.
MG BCs: Charge after coarse-graining:           -9.0006576.
MG DL_MG: Calling solver with defect correction order = 8
MG DL_MG: Solver finished
MG Hartree energy from (\int phi*rho dr):              1257.193792
MG Hartree energy from (\int eps (grad phi)^2 dr):     1256.556180
MG Discrepancy due to finite box and discretization:     -0.637612 (  -0.05072%)
MG Correction to account for finite box:                  0.459841
MG Remaining discrepancy, due to discretization:         -0.177771 (  -0.01414%)
      ideal mu1:      -0.723542661242
             Q0:  -11715.033043098054
             G0:      -1.051751413899
   RMS gradient:       0.000157468963
MG BCs: +ve charge blocks (gridpoints):     24570 (   17011585).
MG BCs: -ve charge blocks (gridpoints):      8552 (    1101319).
MG BCs:     Elided blocks (gridpoints):    190662 (  192590641).
MG BCs: Computational effort saved:  99.9843%.
MG BCs: Charge after coarse-graining:           -9.0006577.
MG DL_MG: Calling solver with defect correction order = 8
MG DL_MG: Solver finished
MG Hartree energy from (\int phi*rho dr):              1258.239174
MG Hartree energy from (\int eps (grad phi)^2 dr):     1257.601232
MG Discrepancy due to finite box and discretization:     -0.637942 (  -0.05070%)
MG Correction to account for finite box:                  0.459769
MG Remaining discrepancy, due to discretization:         -0.178174 (  -0.01416%)
     Trial step:       0.495312458004
             Q1:  -11715.257860896294
 Quadratic coef:       0.296127779788
 Linear coef   :      -0.520945578028
           Qmin:  -11715.262153902400
Quadratic minimum step length (  0.435674820722) accepted
    Initial Ne1:    7233.99994681
      Final Ne1:    7234.00000000

=================== Penalty functional idempotency correction ==================
 RMS occupancy error at iteration   1:  0.000166 (step -0.4988 Ne1=   7234.0000)
 RMS occupancy error at iteration   2:  0.000000 (step -0.5000 Ne1=   7234.0000)
            Final RMS occupancy error   :  0.000000 (Ne1=   7234.0000)
               Final occupancy bounds   : [  0.0000,  1.0000]
================================================================================

    2        -1.171503304310E+04     1.5747E-04     1.4243E-04    -1.6202E+00
MG BCs: +ve charge blocks (gridpoints):     24570 (   17011650).
MG BCs: -ve charge blocks (gridpoints):      8552 (    1101190).
MG BCs:     Elided blocks (gridpoints):    190662 (  192590705).
MG BCs: Computational effort saved:  99.9843%.
MG BCs: Charge after coarse-graining:           -9.0006577.
MG DL_MG: Calling solver with defect correction order = 8
MG DL_MG: Solver finished
MG Hartree energy from (\int phi*rho dr):              1258.113180
MG Hartree energy from (\int eps (grad phi)^2 dr):     1257.475279
MG Discrepancy due to finite box and discretization:     -0.637901 (  -0.05070%)
MG Correction to account for finite box:                  0.459778
MG Remaining discrepancy, due to discretization:         -0.178124 (  -0.01416%)
      ideal mu1:      -0.724306181788
             Q0:  -11715.262666317401
             G0:      -0.189280250478
   RMS gradient:       0.000066419065
MG BCs: +ve charge blocks (gridpoints):     24569 (   17010874).
MG BCs: -ve charge blocks (gridpoints):      8553 (    1101643).
MG BCs:     Elided blocks (gridpoints):    190663 (  192591028).
MG BCs: Computational effort saved:  99.9843%.
MG BCs: Charge after coarse-graining:           -9.0006577.
MG DL_MG: Calling solver with defect correction order = 8
MG DL_MG: Solver finished
MG Hartree energy from (\int phi*rho dr):              1257.529937
MG Hartree energy from (\int eps (grad phi)^2 dr):     1256.892140
MG Discrepancy due to finite box and discretization:     -0.637797 (  -0.05072%)
MG Correction to account for finite box:                  0.459686
MG Remaining discrepancy, due to discretization:         -0.178110 (  -0.01416%)
     Trial step:       0.464537583348
             Q1:  -11715.325034709414
 Quadratic coef:       0.025559398120
 Linear coef   :      -0.087927790133
           Qmin:  -11715.338287193148
Quadratic minimum step length (  0.799036091253) accepted
    Initial Ne1:    7233.99998262
      Final Ne1:    7234.00000000

=================== Penalty functional idempotency correction ==================
 RMS occupancy error at iteration   1:  0.000289 (step -0.4821 Ne1=   7234.0000)
 RMS occupancy error at iteration   2:  0.000004 (step -0.5000 Ne1=   7234.0000)
            Final RMS occupancy error   :  0.000000 (Ne1=   7234.0000)
               Final occupancy bounds   : [  0.0000,  1.0000]
================================================================================

    3        -1.171526266632E+04     6.6419E-05     6.0075E-05    -2.2962E-01
MG BCs: +ve charge blocks (gridpoints):     24570 (   17010334).
MG BCs: -ve charge blocks (gridpoints):      8554 (    1101962).
MG BCs:     Elided blocks (gridpoints):    190662 (  192591249).
MG BCs: Computational effort saved:  99.9843%.
MG BCs: Charge after coarse-graining:           -9.0006577.
MG DL_MG: Calling solver with defect correction order = 8
MG DL_MG: Solver finished
MG Hartree energy from (\int phi*rho dr):              1257.109977
MG Hartree energy from (\int eps (grad phi)^2 dr):     1256.472256
MG Discrepancy due to finite box and discretization:     -0.637720 (  -0.05073%)
MG Correction to account for finite box:                  0.459618
MG Remaining discrepancy, due to discretization:         -0.178102 (  -0.01417%)
      ideal mu1:      -0.723186501377
             Q0:  -11715.338028354920
             G0:      -0.104585853173
   RMS gradient:       0.000049504177
MG BCs: +ve charge blocks (gridpoints):     24569 (   17010219).
MG BCs: -ve charge blocks (gridpoints):      8552 (    1101999).
MG BCs:     Elided blocks (gridpoints):    190663 (  192591327).
MG BCs: Computational effort saved:  99.9843%.
MG BCs: Charge after coarse-graining:           -9.0006578.
MG DL_MG: Calling solver with defect correction order = 8
MG DL_MG: Solver finished
MG Hartree energy from (\int phi*rho dr):              1257.120395
MG Hartree energy from (\int eps (grad phi)^2 dr):     1256.482990
MG Discrepancy due to finite box and discretization:     -0.637406 (  -0.05070%)
MG Correction to account for finite box:                  0.459448
MG Remaining discrepancy, due to discretization:         -0.177957 (  -0.01416%)
     Trial step:       0.609247318285
             Q1:  -11715.382090240368
 Quadratic coef:       0.019656765127
 Linear coef   :      -0.063718650576
           Qmin:  -11715.389665366465
Quadratic minimum step length (  0.987456906995) accepted
    Initial Ne1:    7233.99998501
      Final Ne1:    7234.00000000

=================== Penalty functional idempotency correction ==================
 RMS occupancy error at iteration   1:  0.001079 (step -0.4280 Ne1=   7234.0000)
 RMS occupancy error at iteration   2:  0.000031 (step -0.4984 Ne1=   7234.0000)
            Final RMS occupancy error   :  0.000000 (Ne1=   7234.0000)
               Final occupancy bounds   : [ -0.0000,  1.0000]
================================================================================

    4        -1.171533802835E+04     4.9504E-05     4.4775E-05    -7.5362E-02
MG BCs: +ve charge blocks (gridpoints):     24566 (   17010224).
MG BCs: -ve charge blocks (gridpoints):      8552 (    1102030).
MG BCs:     Elided blocks (gridpoints):    190666 (  192591291).
MG BCs: Computational effort saved:  99.9843%.
MG BCs: Charge after coarse-graining:           -9.0006577.
MG DL_MG: Calling solver with defect correction order = 8
MG DL_MG: Solver finished
MG Hartree energy from (\int phi*rho dr):              1257.132970
MG Hartree energy from (\int eps (grad phi)^2 dr):     1256.495754
MG Discrepancy due to finite box and discretization:     -0.637216 (  -0.05069%)
MG Correction to account for finite box:                  0.459347
MG Remaining discrepancy, due to discretization:         -0.177868 (  -0.01415%)
      ideal mu1:      -0.723954377926
             Q0:  -11715.387215671712
             G0:      -0.171348480802
   RMS gradient:       0.000064444802
MG BCs: +ve charge blocks (gridpoints):     24567 (   17012724).
MG BCs: -ve charge blocks (gridpoints):      8552 (    1101114).
MG BCs:     Elided blocks (gridpoints):    190665 (  192589707).
MG BCs: Computational effort saved:  99.9843%.
MG BCs: Charge after coarse-graining:           -9.0006572.
MG DL_MG: Calling solver with defect correction order = 8
MG DL_MG: Solver finished
MG Hartree energy from (\int phi*rho dr):              1258.614722
MG Hartree energy from (\int eps (grad phi)^2 dr):     1257.978102
MG Discrepancy due to finite box and discretization:     -0.636620 (  -0.05058%)
MG Correction to account for finite box:                  0.458897
MG Remaining discrepancy, due to discretization:         -0.177723 (  -0.01412%)
     Trial step:       0.775632304967
             Q1:  -11715.448986003059
 Quadratic coef:       0.071133085770
 Linear coef   :      -0.132903417117
           Qmin:  -11715.449294091655
Quadratic minimum step length (  0.724586756223) accepted
    Initial Ne1:    7234.00110247
      Final Ne1:    7234.00000000

=================== Penalty functional idempotency correction ==================
 RMS occupancy error at iteration   1:  0.004198 (step -0.3022 Ne1=   7234.0000)
 RMS occupancy error at iteration   2:  0.000237 (step -0.4836 Ne1=   7234.0000)
 RMS occupancy error at iteration   3:  0.000003 (step -0.5000 Ne1=   7234.0000)
            Final RMS occupancy error   :  0.000000 (Ne1=   7234.0000)
               Final occupancy bounds   : [  0.0000,  1.0000]
================================================================================

    5        -1.171538721567E+04     6.4445E-05     5.8289E-05    -4.9187E-02
MG BCs: +ve charge blocks (gridpoints):     24568 (   17012557).
MG BCs: -ve charge blocks (gridpoints):      8552 (    1101160).
MG BCs:     Elided blocks (gridpoints):    190664 (  192589828).
MG BCs: Computational effort saved:  99.9843%.
MG BCs: Charge after coarse-graining:           -9.0006572.
MG DL_MG: Calling solver with defect correction order = 8
MG DL_MG: Solver finished
MG Hartree energy from (\int phi*rho dr):              1258.506991
MG Hartree energy from (\int eps (grad phi)^2 dr):     1257.870344
MG Discrepancy due to finite box and discretization:     -0.636647 (  -0.05059%)
MG Correction to account for finite box:                  0.458922
MG Remaining discrepancy, due to discretization:         -0.177725 (  -0.01412%)
      ideal mu1:      -0.726015442959
             Q0:  -11715.449394957512
             G0:      -0.213459281071
   RMS gradient:       0.000066059688
========================= Kernel Line Step Protection ==========================
|  Iter |  Trial Step |   RMS Occupancy Error |   Occupancy Bounds | Accepted? |
    0        0.000000                0.000000    [ 1.0000:  0.0000]
    1        0.749675                0.008891    [ 1.3667: -0.3694]        No
    2        0.374838                0.003470    [ 1.1672: -0.1682]       Yes
================================================================================
MG BCs: +ve charge blocks (gridpoints):     24572 (   17013159).
MG BCs: -ve charge blocks (gridpoints):      8552 (    1101022).
MG BCs:     Elided blocks (gridpoints):    190660 (  192589364).
MG BCs: Computational effort saved:  99.9843%.
MG BCs: Charge after coarse-graining:           -9.0006571.
MG DL_MG: Calling solver with defect correction order = 8
MG DL_MG: Solver finished
MG Hartree energy from (\int phi*rho dr):              1258.718236
MG Hartree energy from (\int eps (grad phi)^2 dr):     1258.081814
MG Discrepancy due to finite box and discretization:     -0.636422 (  -0.05056%)
MG Correction to account for finite box:                  0.458657
MG Remaining discrepancy, due to discretization:         -0.177765 (  -0.01412%)
     Trial step:       0.374837596793
             Q1:  -11715.499559562653
 Quadratic coef:       0.029847958789
 Linear coef   :      -0.080012563930
           Qmin:  -11715.503016801738
Quadratic minimum step length (  0.502408177869) accepted
    Initial Ne1:    7234.00080256
      Final Ne1:    7234.00000000

=================== Penalty functional idempotency correction ==================
 RMS occupancy error at iteration   1:  0.005095 (step -0.2786 Ne1=   7234.0000)
 RMS occupancy error at iteration   2:  0.000289 (step -0.4794 Ne1=   7234.0000)
 RMS occupancy error at iteration   3:  0.000004 (step -0.5000 Ne1=   7234.0000)
            Final RMS occupancy error   :  0.000000 (Ne1=   7234.0000)
               Final occupancy bounds   : [  0.0000,  1.0000]
================================================================================

    6        -1.171544939496E+04     6.6060E-05     5.9750E-05    -6.2179E-02
MG BCs: +ve charge blocks (gridpoints):     24572 (   17013337).
MG BCs: -ve charge blocks (gridpoints):      8552 (    1100989).
MG BCs:     Elided blocks (gridpoints):    190660 (  192589219).
MG BCs: Computational effort saved:  99.9843%.
MG BCs: Charge after coarse-graining:           -9.0006570.
MG DL_MG: Calling solver with defect correction order = 8
MG DL_MG: Solver finished
MG Hartree energy from (\int phi*rho dr):              1258.782743
MG Hartree energy from (\int eps (grad phi)^2 dr):     1258.146403
MG Discrepancy due to finite box and discretization:     -0.636340 (  -0.05055%)
MG Correction to account for finite box:                  0.458567
MG Remaining discrepancy, due to discretization:         -0.177773 (  -0.01412%)
      ideal mu1:      -0.726942204865
             Q0:  -11715.511816338287
             G0:      -0.210588711913
   RMS gradient:       0.000070135940
MG BCs: +ve charge blocks (gridpoints):     24568 (   17011395).
MG BCs: -ve charge blocks (gridpoints):      8554 (    1101646).
MG BCs:     Elided blocks (gridpoints):    190664 (  192590504).
MG BCs: Computational effort saved:  99.9843%.
MG BCs: Charge after coarse-graining:           -9.0006575.
MG DL_MG: Calling solver with defect correction order = 8
MG DL_MG: Solver finished
MG Hartree energy from (\int phi*rho dr):              1257.619774
MG Hartree energy from (\int eps (grad phi)^2 dr):     1256.983596
MG Discrepancy due to finite box and discretization:     -0.636178 (  -0.05059%)
MG Correction to account for finite box:                  0.458339
MG Remaining discrepancy, due to discretization:         -0.177839 (  -0.01414%)
     Trial step:       0.433960221681
             Q1:  -11715.580002931179
 Quadratic coef:       0.023200531212
 Linear coef   :      -0.091387124105
           Qmin:  -11715.601810036878
Quadratic minimum step length (  0.854686823190) accepted
    Initial Ne1:    7233.99999812
      Final Ne1:    7234.00000000

=================== Penalty functional idempotency correction ==================
 RMS occupancy error at iteration   1:  0.000594 (step -0.4543 Ne1=   7234.0000)
 RMS occupancy error at iteration   2:  0.000002 (step -0.5000 Ne1=   7234.0000)
            Final RMS occupancy error   :  0.000000 (Ne1=   7234.0000)
               Final occupancy bounds   : [  0.0000,  1.0000]
================================================================================

    7        -1.171551181634E+04     7.0136E-05     6.3436E-05    -6.2421E-02
MG BCs: +ve charge blocks (gridpoints):     24563 (   17009560).
MG BCs: -ve charge blocks (gridpoints):      8553 (    1102325).
MG BCs:     Elided blocks (gridpoints):    190669 (  192591660).
MG BCs: Computational effort saved:  99.9843%.
MG BCs: Charge after coarse-graining:           -9.0006579.
MG DL_MG: Calling solver with defect correction order = 8
MG DL_MG: Solver finished
MG Hartree energy from (\int phi*rho dr):              1256.513557
MG Hartree energy from (\int eps (grad phi)^2 dr):     1255.877524
MG Discrepancy due to finite box and discretization:     -0.636034 (  -0.05062%)
MG Correction to account for finite box:                  0.458128
MG Remaining discrepancy, due to discretization:         -0.177905 (  -0.01416%)
      ideal mu1:      -0.726715131348
             Q0:  -11715.598746439908
             G0:      -0.343782129110
   RMS gradient:       0.000091396861
MG BCs: +ve charge blocks (gridpoints):     24565 (   17008616).
MG BCs: -ve charge blocks (gridpoints):      8558 (    1102595).
[...]
MG Hartree energy from (\int phi*rho dr):              1215.999399
MG Hartree energy from (\int eps (grad phi)^2 dr):     1215.816046
MG Discrepancy due to finite box and discretization:     -0.183353 (  -0.01508%)
MG Correction to account for finite box:                  0.006261
MG Remaining discrepancy, due to discretization:         -0.177092 (  -0.01456%)
             Q2:  -11749.769769820268
  Cubic LS coeff:       1.006655403435
Predicted energy:  -11749.769769820286
Cubic minimum step length accepted
    Initial Ne1:    7234.00000000
      Final Ne1:    7234.00000000

=================== Penalty functional idempotency correction ==================
 RMS occupancy error at iteration   1:  0.000000 (step -0.5000 Ne1=   7234.0000)
            Final RMS occupancy error   :  0.000000 (Ne1=   7234.0000)
               Final occupancy bounds   : [ -0.0000,  1.0000]
================================================================================

    7        -1.174976976982E+04     8.7058E-09     7.8742E-09    -2.2119E-09

Reusing previously generated solute cavity.
MG BCs: +ve charge blocks (gridpoints):     28764 (   19167760).
MG BCs: -ve charge blocks (gridpoints):      8552 (    1069752).
MG BCs:     Elided blocks (gridpoints):    186468 (  190466033).
MG BCs: Computational effort saved:  99.9823%.
MG BCs: Charge after coarse-graining:           -9.0009571.
MG DL_MG: Calling solver with defect correction order = 8
MG DL_MG: Solver finished
MG Hartree energy from (\int phi*rho dr):              1215.999398
MG Hartree energy from (\int eps (grad phi)^2 dr):     1215.816045
MG Discrepancy due to finite box and discretization:     -0.183353 (  -0.01508%)
MG Correction to account for finite box:                  0.006261
MG Remaining discrepancy, due to discretization:         -0.177092 (  -0.01456%)
      ideal mu1:      -0.480196189174
             Q0:  -11749.769769820385
             G0:      -0.000000004183
   RMS gradient:       0.000000009723

Reusing previously generated solute cavity.
MG BCs: +ve charge blocks (gridpoints):     28764 (   19167760).
MG BCs: -ve charge blocks (gridpoints):      8552 (    1069752).
MG BCs:     Elided blocks (gridpoints):    186468 (  190466033).
MG BCs: Computational effort saved:  99.9823%.
MG BCs: Charge after coarse-graining:           -9.0009571.
MG DL_MG: Calling solver with defect correction order = 8
MG DL_MG: Solver finished
MG Hartree energy from (\int phi*rho dr):              1215.999362
MG Hartree energy from (\int eps (grad phi)^2 dr):     1215.816009
MG Discrepancy due to finite box and discretization:     -0.183353 (  -0.01508%)
MG Correction to account for finite box:                  0.006261
MG Remaining discrepancy, due to discretization:         -0.177092 (  -0.01456%)
     Trial step:       0.688607701724
             Q1:  -11749.769769821549
 Quadratic coef:       0.000000001717
 Linear coef   :      -0.000000002881
           Qmin:  -11749.769769821592
Quadratic minimum step length (  0.577604763833) accepted
    Initial Ne1:    7234.00000000
      Final Ne1:    7234.00000000

=================== Penalty functional idempotency correction ==================
 RMS occupancy error at iteration   1:  0.000000 (step -0.5000 Ne1=   7234.0000)
            Final RMS occupancy error   :  0.000000 (Ne1=   7234.0000)
               Final occupancy bounds   : [  0.0000,  1.0000]
================================================================================

    8        -1.174976976982E+04     9.7229E-09     8.7942E-09    -3.2596E-09

Reusing previously generated solute cavity.
MG BCs: +ve charge blocks (gridpoints):     28764 (   19167760).
MG BCs: -ve charge blocks (gridpoints):      8552 (    1069752).
MG BCs:     Elided blocks (gridpoints):    186468 (  190466033).
MG BCs: Computational effort saved:  99.9823%.
MG BCs: Charge after coarse-graining:           -9.0009571.
MG DL_MG: Calling solver with defect correction order = 8
MG DL_MG: Solver finished
MG Hartree energy from (\int phi*rho dr):              1215.999368
MG Hartree energy from (\int eps (grad phi)^2 dr):     1215.816015
MG Discrepancy due to finite box and discretization:     -0.183353 (  -0.01508%)
MG Correction to account for finite box:                  0.006261
MG Remaining discrepancy, due to discretization:         -0.177092 (  -0.01456%)
      ideal mu1:      -0.480196148960
             Q0:  -11749.769769821432
             G0:      -0.000000001860
   RMS gradient:       0.000000005521

Reusing previously generated solute cavity.
MG BCs: +ve charge blocks (gridpoints):     28764 (   19167759).
MG BCs: -ve charge blocks (gridpoints):      8552 (    1069752).
MG BCs:     Elided blocks (gridpoints):    186468 (  190466034).
MG BCs: Computational effort saved:  99.9823%.
MG BCs: Charge after coarse-graining:           -9.0009571.
MG DL_MG: Calling solver with defect correction order = 8
MG DL_MG: Solver finished
MG Hartree energy from (\int phi*rho dr):              1215.999370
MG Hartree energy from (\int eps (grad phi)^2 dr):     1215.816018
MG Discrepancy due to finite box and discretization:     -0.183353 (  -0.01508%)
MG Correction to account for finite box:                  0.006261
MG Remaining discrepancy, due to discretization:         -0.177092 (  -0.01456%)
     Trial step:       0.630668763241
             Q1:  -11749.769769821316
 Quadratic coef:       0.000000001290
 Linear coef   :      -0.000000001173
           Qmin:  -11749.769769821700
Quadratic minimum step length (  0.286851536726) accepted
    Initial Ne1:    7234.00000000
      Final Ne1:    7234.00000000

=================== Penalty functional idempotency correction ==================
 RMS occupancy error at iteration   1:  0.000000 (step -0.5000 Ne1=   7234.0000)
            Final RMS occupancy error   :  0.000000 (Ne1=   7234.0000)
               Final occupancy bounds   : [  0.0000,  1.0000]
================================================================================

    9        -1.174976976982E+04     5.5208E-09     4.9935E-09    -1.0477E-09

Reusing previously generated solute cavity.
MG BCs: +ve charge blocks (gridpoints):     28764 (   19167759).
MG BCs: -ve charge blocks (gridpoints):      8552 (    1069752).
MG BCs:     Elided blocks (gridpoints):    186468 (  190466034).
MG BCs: Computational effort saved:  99.9823%.
MG BCs: Charge after coarse-graining:           -9.0009571.
MG DL_MG: Calling solver with defect correction order = 8
MG DL_MG: Solver finished
MG Hartree energy from (\int phi*rho dr):              1215.999369
MG Hartree energy from (\int eps (grad phi)^2 dr):     1215.816016
MG Discrepancy due to finite box and discretization:     -0.183353 (  -0.01508%)
MG Correction to account for finite box:                  0.006261
MG Remaining discrepancy, due to discretization:         -0.177092 (  -0.01456%)
      ideal mu1:      -0.480196147533
   10        -1.174976976982E+04     3.9318E-09     3.5562E-09    -1.1642E-10
Finished density kernel iterations (  10)

Writing density kernel to file "complex_17961.dkn" ... done


>>> Density kernel optimised for the current NGWF basis:
     ~~~~~~~~~~~~~~~~~~~~~~~~~~~~~~~~~~~~~~~~~~~~~~~~~~~~~~~~~~~
     Total energy                =  -1.17497697698215E+04  Eh
     Estimated bandgap           =   9.3183E-02  Eh
     RMS occupancy error         =   3.4445E-16
     [H,K] commutator            =   3.5562E-09
     Occupancy bounds            = [ -0.000:  1.000]
     ~~~~~~~~~~~~~~~~~~~~~~~~~~~~~~~~~~~~~~~~~~~~~~~~~~~~~~~~~~~




################################################################################
########################### NGWF CG iteration  004 #############################
################################################################################
****** Reciprocal space K.E. preconditioning with k_zero =  3.5000 a0^-1 *******

>>> Checking for convergence of NGWFs: 
           ........................................................
           |         *** NGWF optimisation converged ***          |
           | RMS NGWF gradient =    0.00000195206161              |
           | Criteria satisfied:                                  |
           | -> RMS NGWF gradient lower than set threshold.       |
           ========================================================

Reusing previously generated solute cavity.
MG BCs: +ve charge blocks (gridpoints):     28764 (   19167759).
MG BCs: -ve charge blocks (gridpoints):      8552 (    1069752).
MG BCs:     Elided blocks (gridpoints):    186468 (  190466034).
MG BCs: Computational effort saved:  99.9823%.
MG BCs: Charge after coarse-graining:           -9.0009571.
MG DL_MG: Calling solver with defect correction order = 8
MG DL_MG: Solver finished
MG Hartree energy from (\int phi*rho dr):              1215.999369
MG Hartree energy from (\int eps (grad phi)^2 dr):     1215.816016
MG Discrepancy due to finite box and discretization:     -0.183353 (  -0.01508%)
MG Correction to account for finite box:                  0.006261
MG Remaining discrepancy, due to discretization:         -0.177092 (  -0.01456%)

================================================================================
           ---------------- ENERGY COMPONENTS (Eh) ----------------
           | Kinetic                    :     8580.99343307335039 |
           | Pseudo. (local,OBC,corr'd) :    -5082.84521634468456 |
           | Pseudopotential (non-local):     1411.52489751417465 |
           | Hartree (molecular)        :     1215.99936893668337 |
           | Exchange-correlation       :    -3377.06522418863642 |
           | Ion-ion (open BC)          :   843753.47489986754954 |
           | Dispersion Correction      :       -3.29351226822680 |
           | Smeared ion non-self corr. :  -843705.26575638086069 |
           | Smeared ion self corr.     :   -14543.93950988473262 |
           | Solvent cavitation energy  :        2.30134253776098 |
           | Solute-solvent dis-rep en. :       -1.65449268395982 |
           | Total                      :   -11749.76976982155065 |
           --------------------------------------------------------
           ------ LOCAL ENERGY COMPONENTS FROM MATRIX TRACES ------
           | Pseudopotential (local)    :    -5082.84521634468911 |
           | Hartree                    :    -1998.41027784769017 |
           --------------------------------------------------------
           Integrated density           :     7233.99999999889314
           Integrated density tr(KS)    :     7234.00000000000000
================================================================================


                        <<<<< CALCULATION SUMMARY >>>>>                         
|ITER|    RMS GRADIENT   |     TOTAL ENERGY    |   step   |     Epredicted              
   0     0.00003795207380 -11749.71221492928453   0.618949 -11749.76174943235128        
   1     0.00001020270133 -11749.76908687339164   0.098490 -11749.76965651731371        
   2     0.00000443441346 -11749.76974809856620   0.017416 -11749.76976712703618        
   3     0.00000195206161 -11749.76976982154883  <-- CG                                 

=================== Finished the calculation in solvent ========================
= Adjusting the following parameters: 
= read_denskern: F
= read_tightbox_ngwfs: F
= maxit_pen: 0 (restored to user-specified value)
= restart read filename prefix: ""
= restart write filename prefix: ""
================================================================================

================================================================================
IS: Calculation in solvent completed (NGWFs converged).      

Individual components of total energy in solvent:     hartree           kcal/mol
- Usual non-electrostatic DFT terms:    -12966.41598861203420    -8136548.700974
- Electrostatic fixed charge energy:      1215.99936893668337      763051.107908
- Apolar cavitation energy:                  2.30134253776098        1444.114214
- Apolar dispersion-repulsion energy:       -1.65449268395982       -1038.209811
 -------------------------------------------------------------------------------
- Total energy in solvent:              -11749.76976982154883    -7373091.688663

Components of total energy in solvent:                hartree           kcal/mol
- Usual non-electrostatic DFT terms:    -12966.41598861203420    -8136548.700974
- Electrostatic energy:                   1215.99936893668337      763051.107908
- Apolar energy terms:                       0.64684985380117         405.904403
 -------------------------------------------------------------------------------
- Total energy in solvent:              -11749.76976982154883    -7373091.688663

Calculation of free energy of solvation:              hartree           kcal/mol
- Total energy in solvent:         (+)  -11749.76976982154883    -7373091.688663
- Total energy in vacuum:          (-)  -11746.00132952607237    -7370726.956727
 -------------------------------------------------------------------------------
- Total free energy of solvation:           -3.76844029547647       -2364.731937

Components of polar term in f.e. of solvation:        hartree           kcal/mol
- Electrostatic:                            -4.61910055456838       -2898.529297
- Change in nonelectrostatic DFT terms:      0.20381040528991         127.892957
 -------------------------------------------------------------------------------
- Polar term in f.e. of solvation:          -4.41529014927846       -2770.636339

Components of free energy of solvation:               hartree           kcal/mol
- Polar term in f.e. of solvation: (+)      -4.41529014927846       -2770.636339
- Apolar (cavitation, dis., rep.): (+)       0.64684985380117         405.904403
 -------------------------------------------------------------------------------
- Total free energy of solvation:           -3.76844029547729       -2364.731937
================================================================================


------------------------------ TIMING INFORMATION ------------------------------
AVERAGE TIME:   32049.479s on     60 node(s)                                    
TOTAL TIME:     32049.479s on     60 node(s)                                    
================= AVERAGE TIMINGS FROM ALL NODES (CUMULATIVE) ==================
|| TAG                                    #calls    cpu time   %total  Gflops ||
|| work_imbalance                       :     1        0.00s   0.000%  ------ ||
|| sparse_set_to_garbage                :   164        0.03s   0.000%  ------ ||
|| parallel_prepare_fd_halos_request    :  1827        0.03s   0.000%  ------ ||
|| parallel_prepare_fd_halos_alloc      :  1827        0.09s   0.000%  ------ ||
|| ngwfs_initialise_from_radial         :     1        0.11s   0.000%  ------ ||
|| basis_extract_function_from_box      :  3380        0.15s   0.000%  ------ ||
|| parallel_prepare_fd_halos_satisfy    :  1827        0.56s   0.002%  ------ ||
|| pseudopotentials_nonlocal_mat        :    28        0.98s   0.003%  ------ ||
|| restart_kernel_read                  :     1        4.42s   0.014%  ------ ||
|| openbc_locps_radial                  :     1        4.74s   0.015%  ------ ||
|| restart_ngwfs_tightbox_input         :     1        6.01s   0.019%  ------ ||
|| parallel_prepare_fd_halos_comms_imbal:  1827        9.64s   0.030%  ------ ||
|| density_init_guess_real              :     1        9.79s   0.031%  ------ ||
|| parallel_prepare_fd_halos_clear      :  1827       19.59s   0.061%  ------ ||
|| sparse_init                          :     2       23.45s   0.073%  ------ ||
|| projectors_func_ovlp_box             :    28       27.17s   0.085%  ------ ||
|| projectors_init_fftbox_recip         :   133       27.56s   0.086%  ------ ||
|| parallel_prepare_fd_halos_comms_wait :  1827       28.02s   0.087%  ------ ||
|| function_ops_brappd_ketppd           :    28       29.17s   0.091%  ------ ||
|| palser_mano_kernel_optimise          :     1       34.93s   0.109%  ------ ||
|| basis_copy_function_to_box           : 54852       42.22s   0.132%  ------ ||
|| ngwf_gradient_coeffs                 :    15       45.08s   0.141%  ------ ||
|| fourier_apply_box_pair               :  4811       52.97s   0.165% 596.635 ||
|| parallel_prepare_fd_halos            :  1827       57.94s   0.181%  ------ ||
|| pseudo_make_structure_factor         :     2       64.55s   0.201%  ------ ||
|| sparse_embed_hotelling_invert_embed  :    28       70.68s   0.221%  ------ ||
|| restart_kernel_write                 :    16       99.99s   0.312%  ------ ||
|| finite_difference_derivative         :  1827      142.45s   0.444%  ------ ||
|| integrals_kinetic                    :    28      148.06s   0.462%  ------ ||
|| projectors_gradient_batch            :   105      151.84s   0.474%  ------ ||
|| basis_dot_function_with_box          : 8.473M     160.05s   0.499%  ------ ||
|| sparse_trace                         :  5037      168.20s   0.525%  ------ ||
|| fourier_apply_cell_backward          :  1219      175.30s   0.547% 103.830 ||
|| fourier_apply_cell_forward           :  1217      207.64s   0.648%  87.516 ||
|| kernel_purify                        :   464      275.30s   0.859%  ------ ||
|| openbc_locps_on_grid                 :     2      288.42s   0.900%  ------ ||
|| basis_add_function_to_box            : 17.62M     387.28s   1.208%  ------ ||
|| lnv_gradient_norm                    :   150      403.46s   1.259%  ------ ||
|| xc_energy_potential                  :   304      447.28s   1.396%  ------ ||
|| kernel_fix                           :   150      504.61s   1.574%  ------ ||
|| hamiltonian_energy_components        :     4      529.66s   1.653%  ------ ||
|| integrals_locpot_mat_els_batch       :  1113      748.78s   2.336%  ------ ||
|| ngwf_gradient_build_batch            :   105      818.45s   2.554%  ------ ||
|| restart_ngwfs_tightbox_output        :    13     1019.50s   3.181%  ------ ||
|| ngwf_gradient_batch                  :   105     1138.49s   3.552%  ------ ||
|| density_batch_row_sums               :  2121     1221.76s   3.812%  ------ ||
|| ngwf_gradient_lnv                    :    15     1292.49s   4.033%  ------ ||
|| cell_grid_deposit_box_real           : 35200     1293.45s   4.036%  ------ ||
|| sparse_product                       :  6300     1746.02s   5.448%  ------ ||
|| cell_grid_extract_box_real           : 38596     1902.89s   5.937%  ------ ||
|| density_fftbox_deposit_to_cell       : 33330     2042.71s   6.374%  ------ ||
|| density_fftbox_interpolate_multiply  : 33330     3841.22s  11.985%  ------ ||
|| potential_apply_to_ngwf_batch        :  1113     3867.62s  12.068%  ------ ||
|| fourier_apply_box                    : 114.7k    4608.99s  14.381% 791.860 ||
|| integrals_locpot_dbl_grid            :   159     4635.69s  14.464%  ------ ||
|| multigrid_prepare_bound_cond         :   304     4679.96s  14.602%  ------ ||
|| density_batch_interp_deposit         :  2121     6907.88s  21.554%  ------ ||
|| dl_mg_solver_calls                   :   304     7653.15s  23.879%  ------ ||
|| density_on_dbl_grid                  :   303     8552.49s  26.685%  ------ ||
|| multigrid_calculate_hartree          :   304    12527.00s  39.086%  ------ ||
|| hamiltonian_lhxc_calculate           :   299    21446.60s  66.917%  ------ ||
|| lnv_denskernel_optimise_cg           :    15    26829.26s  83.712%  ------ ||
|| ngwf_cg_optimise                     :     2    30990.22s  96.695%  ------ ||
|| total_time                           :     1    32049.48s 100.000%  ------ ||
================================================================================
Overhead of generating timer report: 
- 0 ms averaging over threads,
- 15 ms ensuring consistency across MPI ranks,
- 0 ms printing in order.

Job completed: 13-03-2020 17:15 (-0000)

Application 39792094 resources: utime ~6570253s, stime ~318086s, Rss ~4226000, inblocks ~315508182, outblocks ~64556702
