 +---------------------------------------------------------------+
 |                                                               |
 |        ####### #     # ####### ####### ####### ######         |
 |        #     # ##    # #          #    #       #     #        |
 |        #     # # #   # #          #    #       #     #        |
 |        #     # #  #  # #####      #    #####   ######         |
 |        #     # #   # # #          #    #       #              |
 |        #     # #    ## #          #    #       #              |
 |        ####### #     # #######    #    ####### #              |
 |                                                               |
 |        Linear-Scaling Ab Initio Total Energy Program          |
 |                                                               |
 |          Release for academic collaborators of ODG            |
 |                                             Version 5.3.2.6.  |
 |                                                               |
 +---------------------------------------------------------------+
 |                                                               |
 |  Authors:                                                     |
 |  Jacek Dziedzic, Peter D. Haynes, Nicholas D. M. Hine,        |
 |  Arash. A. Mostofi, Mike C. Payne and Chris-Kriton Skylaris   |
 |                                                               |
 |  Contributors:                                                |
 |  J. Aarons, L. Andrinopoulos, P. W. Avraam, R. A. Bell,       |
 |  A. Bhandari, G. A. Bramley, R. J. Charlton, S. J. Clark,     |
 |  R. J. Clements, G. C. Constantinescu, F. Corsetti,           |
 |  N. Corsini, O. Dieguez, S. M. M. Dubois, K. K. B. Duff,      |
 |  J. M. Escartin, A. Greco, H. Helal, Q. O. Hill, L. P. Lee,   |
 |  J.-H. Li, E. B. Linscott, G. Moynihan, D. D. O`Regan,        |
 |  O. K. Okan, M. J. S. Phipps, C. J. Pickard,                  |
 |  J. C. A. Prentice, M. I. J. Probert, L. E. Ratcliff,         |
 |  M. Robinson, A. Ruiz Serrano, J. S. Spencer, E. W. Tait,     |
 |  G. Teobaldi, D. Turban, V. Vitale, K. A. Wilkinson,          |
 |  C. Weber, J. C. Womack, N. Yeung and T. J. Zuehlsdorff       |
 |                                                               |
 |                                   Copyright (c) 2004-2019     |
 |                                                               |
 |  Please cite:                                                 |
 |  "Introducing ONETEP: Linear-scaling density functional       |
 |   simulations on parallel computers".                         |
 |   C.-K. Skylaris, P. D. Haynes, A. A. Mostofi, M. C. Payne.   |
 |   J. Chem. Phys. 122 084119 (2005).                           |
 |                                                               |
 |          in all publications arising from your use of ONETEP. |
 |                                                               |
 +---------------------------------------------------------------+
 |                                                               |
 |   ONETEP is based on developments described in the following  |
 |   publications:                                               |
 |                                                               |
 |  "Nonorthogonal generalized Wannier function pseudopotential  |
 |   plane-wave method".                                         |
 |   C.-K. Skylaris, A. A. Mostofi, P. D. Haynes, O. Dieguez,    |
 |   M. C. Payne.                                                |
 |   Phys. Rev. B 66 035119 (2002).                              |
 |                                                               |
 |  "Preconditioned iterative minimization for linear-scaling    |
 |   electronic structure calculations".                         |
 |   A. A. Mostofi, P. D. Haynes, C.-K. Skylaris, M. C. Payne.   |
 |   J. Chem. Phys. 119(17), pp.8842-8848 (2003).                |
 |                                                               |
 |  "Total-energy calculations on a real space grid with         |
 |   localized functions and a plane-wave basis".                |
 |   A. A. Mostofi, C.-K. Skylaris, P. D. Haynes, M. C. Payne.   |
 |   Comput. Phys. Commun. 147, pp.788-802 (2002).               |
 |                                                               |
 |  "Accurate kinetic energy evaluation in electronic structure  |
 |   calculations with localized functions on real space grids"  |
 |   C.-K. Skylaris, A. A. Mostofi, P. D. Haynes, C. J. Pickard, |
 |   M. C. Payne.                                                |
 |   Comput. Phys. Commun. 140, pp.315-322 (2001).               |
 |                                                               |
 |  "Accurate ionic forces and geometry optimization in linear-  |
 |   scaling density-functional theory with local orbitals"      |
 |   N. D. M. Hine, M. Robinson, P. D. Haynes, C.-K. Skylaris,   |
 |   M. C. Payne, and A. A. Mostofi.                             |
 |   Phys. Rev. B 83 195102 (2011).                              |
 |                                                               |
 +---------------------------------------------------------------+

Job started: 07-05-2020 06:58 (+0100)
 
Reading parameters from file "complex_29741.dat" ...... done

If your calculation crashes here, before "Checking processes and threads..."
is displayed, then your stack size is insufficient.
If so, use "ulimit -s unlimited" at runtime.
You can disable this check with "check_stack_size F".

Checking processes and threads...
   Determining the default number of threads...
      No default threads set at compilation time: defaulting to 1.
      OpenMP library call suggests 4 threads.
      Hybrid MPI-OpenMP compilation detected.
      Number of MPI processes > 1.
      OMP_NUM_THREADS environment variable present and
      its value matches the one obtained from the OpenMP library call.
      Using this value as default.
      Default threads: 4
      Default applies to threads_max and threads_num_fftboxes.
      Settings in the input file override this default.
   ... done

   Running with 60 MPI processes.
   There are 6 MPI processes running on the same node as the root process.
   Each MPI process is using: 
               1 threads for simulation cell FFTs.
               1 threads for parallel FFT box operations.
               4 threads for loops over batched FFT box operations.
               4 threads in other parallel regions.
... done

Basic input checks...... done

Reading geometry and species blocks from file "complex_29741.dat" ...
  <species_atomic_set> block not found: NGWF initialisation set to SOLVE
IS: Dielectric excluded regions:
    - NONE.
    
  Number of PPD points along a3 set to 1.  This is 
  the default value, it may have been provided also in the input file.
... done
 Writing xyz coordinates to file "complex_29741.xyz" ... done


--------------------------------------------------------------------------------
---------------------------------- INPUT FILE ----------------------------------
--------------------------------------------------------------------------------

cutoff_energy       : 800 eV                                                    
xc_functional PBE                                                               
task SINGLEPOINT                                                                
write_xyz true                                                                  
output_detail VERBOSE                                                           
ngwf_threshold_orig : 0.000002                                                  
kernel_cutoff       : 1000                                                      
k_zero              : 3.5                                                       
elec_cg_max 0                                                                   
occ_mix 1.0                                                                     
dispersion 1                                                                    
maxit_ngwf_cg 40                                                                
minit_lnv 10                                                                    
maxit_lnv 10                                                                    
write_denskern T                                                                
write_tightbox_ngwfs T                                                          
charge 9                                                                        
is_implicit_solvent T                                                           
is_auto_solvation T                                                             
is_include_apolar T                                                             
is_smeared_ion_rep T                                                            
is_solvent_surf_tension 4.7624E-5 Ha/bohr**2                                    
is_apolar_scaling_factor 0.281075                                               
is_solvation_beta 1.3                                                           
is_density_threshold 0.00035                                                    
is_bulk_permittivity 78.54                                                      
is_dielectric_model fix_initial                                                 
is_smeared_ion_width 0.8                                                        
mg_defco_fd_order 8                                                             
is_bc_coarseness 10                                                             
is_bc_surface_coarseness 1                                                      
fine_grid_scale 2.0                                                             
%block species                                                                  
N   N   7 4 8.0                                                                 
H   H   1 1 8.0                                                                 
C   C   6 4 8.0                                                                 
S   S  16 9 8.0                                                                 
O   O   8 4 8.0                                                                 
%endblock species                                                               
%block species_pot                                                              
N   N_00.recpot                                                                 
H   H_04.recpot                                                                 
C   C_01.recpot                                                                 
S   S_00.recpot                                                                 
O   O_02.recpot                                                                 
%endblock species_pot                                                           
%block lattice_cart                                                             
142.669   0.000   0.000                                                         
0.000 146.65   0.000                                                            
0.000   0.000   162.396                                                         
%endblock lattice_cart                                                          
%block positions_abs                                                            
     Hash =  -000004101500135322473274
%endblock positions_abs                                                         

--------------------------------------------------------------------------------
-------------------------------- END INPUT FILE --------------------------------
--------------------------------------------------------------------------------


 
 ESDF WARNING(1): "kernelcutoff" (esdf_physical) has no units. Assume "bohr".
 ESDF WARNING(2): "kzero" (esdf_physical) has no units. Assume "1/bohr".
 ESDF WARNING(3
 ): "issmearedionwidth" (esdf_physical) has no units. Assume "bohr".
<<<<<<<<<<<<<<<<<<<<<<<<<<<<<<<<< Full system >>>>>>>>>>>>>>>>>>>>>>>>>>>>>>>>>>
<<<<<<<<<<<<<<<<<<<<<<<<< Pseudopotential information >>>>>>>>>>>>>>>>>>>>>>>>>>
File: N_00.recpot [ 2001 points up to Gmax=  52.9 (1/bohr)]
  Atomic number:  7;  ionic charge:  5.000000
    Shell 1: l = 0; rc = 1.48 bohr
File: H_04.recpot [ 2001 points up to Gmax=  52.9 (1/bohr)]
  Atomic number:  1;  ionic charge:  1.000000
    Local potential
File: C_01.recpot [ 2001 points up to Gmax=  52.9 (1/bohr)]
  Atomic number:  6;  ionic charge:  4.000000
    Shell 1: l = 0; rc = 1.48 bohr
File: S_00.recpot [ 2001 points up to Gmax=  52.9 (1/bohr)]
  Atomic number: 16;  ionic charge:  6.000000
    Shell 1: l = 0; rc = 1.90 bohr
    Shell 2: l = 2; rc = 1.84 bohr
File: O_02.recpot [ 2001 points up to Gmax=  52.9 (1/bohr)]
  Atomic number:  8;  ionic charge:  6.000000
    Shell 1: l = 0; rc = 1.31 bohr
<<<<<<<<<<<<<<<<<<<<<<<<<<<<<<<<<<<<<<<<>>>>>>>>>>>>>>>>>>>>>>>>>>>>>>>>>>>>>>>>

-------------------------- Atom counting information ---------------------------
Symbol    Natoms    Nngwfs    Nprojs
  N        236       944       236
  H       1317      1317         0
  C        816      3264       816
  S          6        54        36
  O        241       964       241
.......   ......    ......    ......
Totals:   2616      6543      1329
--------------------------------------------------------------------------------

=============================== PSINC grid sizes ===============================
                      Simulation cell:  286 x 294 x 320
                              FFT-box:  105 x 105 x  99
                                  PPD:   11 x   6 x   1
Grid space d1=  0.498842657343a0 (KE cutoff=  30.52649Eh = 830.66799eV)
Grid space d2=  0.498809523810a0 (KE cutoff=  30.53054Eh = 830.77835eV)
Grid space d3=  0.507487500000a0 (KE cutoff=  29.49533Eh = 802.60885eV)
================================================================================

********************* Fourier parallelisation information **********************
       Coarse grid (whole simulation cell) dimensions:    286   294   320
          Real-space ('12') slabs/node (min max mean):      5     6     5
         Recip-space ('23') slabs/node (min max mean):      2     3     2
********************************************************************************

********************* Fourier parallelisation information **********************
       Double grid (whole simulation cell) dimensions:    572   588   640
          Real-space ('12') slabs/node (min max mean):     10    11    10
         Recip-space ('23') slabs/node (min max mean):      4     5     4
********************************************************************************
ONETEP fine grid is 572 x 588 x 640 gridpoints, 142.6690 x 146.6500 x 162.3960 bohr.
FD multigrid is     569 x 585 x 633 gridpoints, 141.9207 x 145.9018 x 160.6198 bohr.


Calculating local pseudopotential in open BC on a radial grid ...
Discrepancy between calculated realspace psloc and -Z/x on [5a0,261.215a0]:
max |rel. diff| # avg |rel. diff| #  avg rel. diff #  f # pseudopotential file
 0.000261901569    0.000004963664   0.000000071970   55  'N_00.recpot'
 0.000422260137    0.000017549664  -0.000000063361   55  'H_04.recpot'
 0.000361991046    0.000016543264   0.000000134927   55  'C_01.recpot'
 0.000447743184    0.000019132268   0.000000438157   55  'S_00.recpot'
 0.000711628927    0.000028437426   0.000000135877   55  'O_02.recpot'
... done

Atom SCF Calculation for N  : Z (AE atom) =   7 : Z (PS atom) =   5
Config String:
Orbitals (num,occ):  2     2.00 3.00
Orbitals   (num,l):  2        0    1
Real-space Grid (nr,dr,rmax): 1203    0.0066555740    8.0000000000
Spherical Bessel Basis (nsws,lmax,cutoff):   47    1  176.3951722778
Confining potential (l,width,scale):  0    3.0000000000  100.0000000000
Confining potential (l,width,scale):  1    3.0000000000  100.0000000000
  1         -4.7312375307   -3.4155304497    7.0523828109   -1.9351020946
  2         -9.7309464766   -2.0532547791    8.2966052865   -2.2494486027
  3         -9.6627394379   -2.1124926340    8.2327997121   -2.2369778124
  4         -9.6814993499   -2.1215521045    8.2229805960   -2.2365178421
  5         -9.6843326483   -2.1250939529    8.2191374534   -2.2362718126
  6         -9.6859628709   -2.1267894855    8.2172963573   -2.2362066344
  7         -9.6867347035   -2.1276425665    8.2163697352   -2.2361903369
  8         -9.6870802100   -2.1280764625    8.2158983890   -2.2361891460
  9         -9.6872290423   -2.1282977424    8.2156580222   -2.2361920435
 10         -9.6872901988   -2.1284107021    8.2155353368   -2.2361953393
 11         -9.6873135296   -2.1284684031    8.2154726809   -2.2361979819
 12         -9.6873212476   -2.1284978948    8.2154406648   -2.2361998431
 13         -9.6873229586   -2.1285129774    8.2154242957   -2.2362010676
 14         -9.6873226456   -2.1285206957    8.2154159216   -2.2362018403
 15         -9.6873218534   -2.1285246479    8.2154116349   -2.2362023142
 16         -9.6873212599   -2.1285262679    8.2154098784   -2.2362025420
 17         -9.6873207834   -2.1285272564    8.2154088068   -2.2362026955
 18         -9.6873204210   -2.1285278596    8.2154081529   -2.2362027982
 19         -9.6873201550   -2.1285282280    8.2154077538   -2.2362028667
 20         -9.6873199645   -2.1285284529    8.2154075102   -2.2362029121
 21         -9.6873198305   -2.1285285903    8.2154073614   -2.2362029421
 22         -9.6873197377   -2.1285286742    8.2154072705   -2.2362029618
Atom SCF converged after  22 iterations to a total energy of     -9.68731974

Atom SCF Calculation for H  : Z (AE atom) =   1 : Z (PS atom) =   1
Config String:
Orbitals (num,occ):  1     1.00
Orbitals   (num,l):  1        0
Real-space Grid (nr,dr,rmax): 1203    0.0066555740    8.0000000000
Spherical Bessel Basis (nsws,lmax,cutoff):   47    0  176.3951722778
Confining potential (l,width,scale):  0    3.0000000000  100.0000000000
  1         -0.3194257691   -0.2393854593    0.2820953124   -0.2424203209
  2         -0.3951823392   -0.2377116493    0.2886404059   -0.2475147891
  3         -0.4317044583   -0.2352244387    0.2921333887   -0.2514046172
  4         -0.4470703708   -0.2341892222    0.2934391879   -0.2531009782
  5         -0.4532132900   -0.2338556667    0.2938388426   -0.2537313520
  6         -0.4556579251   -0.2337612552    0.2939448584   -0.2539550462
  7         -0.4566418315   -0.2337377355    0.2939680120   -0.2540342273
  8         -0.4570437922   -0.2337331116    0.2939708287   -0.2540627372
  9         -0.4572102946   -0.2337328328    0.2939698291   -0.2540732650
 10         -0.4572800424   -0.2337332404    0.2939687193   -0.2540772588
 11         -0.4573095100   -0.2337335791    0.2939680317   -0.2540788122
 12         -0.4573220379   -0.2337337762    0.2939676699   -0.2540794294
 13         -0.4573273880   -0.2337338775    0.2939674931   -0.2540796787
 14         -0.4573296803   -0.2337339266    0.2939674099   -0.2540797808
 15         -0.4573306647   -0.2337339495    0.2939673718   -0.2540798230
 16         -0.4573310882   -0.2337339601    0.2939673545   -0.2540798406
 17         -0.4573312706   -0.2337339649    0.2939673467   -0.2540798479
 18         -0.4573313493   -0.2337339670    0.2939673433   -0.2540798510
Atom SCF converged after  18 iterations to a total energy of     -0.45733135

Atom SCF Calculation for C  : Z (AE atom) =   6 : Z (PS atom) =   4
Config String:
Orbitals (num,occ):  2     2.00 2.00
Orbitals   (num,l):  2        0    1
Real-space Grid (nr,dr,rmax): 1203    0.0066555740    8.0000000000
Spherical Bessel Basis (nsws,lmax,cutoff):   47    1  176.3951722778
Confining potential (l,width,scale):  0    3.0000000000  100.0000000000
Confining potential (l,width,scale):  1    3.0000000000  100.0000000000
  1         -5.2976922011   -1.3069684169    4.5135249990   -1.4493313817
  2         -5.3721716256   -1.3429755895    4.4750154450   -1.4361613026
  3         -5.3809959565   -1.3617365618    4.4541655428   -1.4305930207
  4         -5.3918938866   -1.3667928461    4.4484735100   -1.4294652294
  5         -5.3956096428   -1.3688539142    4.4461376126   -1.4290734646
  6         -5.3968271862   -1.3696852393    4.4451910874   -1.4289366866
  7         -5.3972028401   -1.3700178062    4.4448112275   -1.4288900460
  8         -5.3973067903   -1.3701500158    4.4446598370   -1.4288749220
  9         -5.3973286940   -1.3702023868    4.4445997329   -1.4288704293
 10         -5.3973289850   -1.3702230869    4.4445759233   -1.4288693188
 11         -5.3973254264   -1.3702312560    4.4445665049   -1.4288691775
 12         -5.3973224003   -1.3702344755    4.4445627836   -1.4288692549
 13         -5.3973208708   -1.3702354890    4.4445616088   -1.4288693270
 14         -5.3973198783   -1.3702360102    4.4445610034   -1.4288693814
 15         -5.3973192535   -1.3702362780    4.4445606917   -1.4288694190
 16         -5.3973188684   -1.3702364155    4.4445605313   -1.4288694437
 17         -5.3973186349   -1.3702364860    4.4445604489   -1.4288694595
 18         -5.3973184951   -1.3702365221    4.4445604065   -1.4288694693
 19         -5.3973184122   -1.3702365405    4.4445603848   -1.4288694753
Atom SCF converged after  19 iterations to a total energy of     -5.39731841

Atom SCF Calculation for S  : Z (AE atom) =  16 : Z (PS atom) =   6
Config String:
Orbitals (num,occ):  3     2.00 4.00 0.00
Orbitals   (num,l):  3        0    1    2
Real-space Grid (nr,dr,rmax): 1203    0.0066555740    8.0000000000
Spherical Bessel Basis (nsws,lmax,cutoff):   47    2  176.3951722778
Confining potential (l,width,scale):  0    3.0000000000  100.0000000000
Confining potential (l,width,scale):  1    3.0000000000  100.0000000000
Confining potential (l,width,scale):  2    3.0000000000  100.0000000000
  1        -12.4735062396   -1.0328741412   10.1554312477   -2.4512393157
  2         -9.9458301913   -2.4607392455    8.3041325857   -2.0306994528
  3        -10.1450417646   -2.2931184565    8.4831893826   -2.0812538287
  4        -10.1528335592   -2.2733105793    8.5050388867   -2.0896035179
  5        -10.1571940363   -2.2633716629    8.5160794258   -2.0939370707
  6        -10.1594380571   -2.2584938667    8.5215163935   -2.0961289008
  7        -10.1605856507   -2.2561081821    8.5241804044   -2.0972291378
  8        -10.1611799191   -2.2549395235    8.5254868240   -2.0977806248
  9        -10.1614918752   -2.2543658586    8.5261285885   -2.0980571586
 10        -10.1616572884   -2.2540839121    8.5264441898   -2.0981959233
 11        -10.1617455602   -2.2539453058    8.5265994231   -2.0982656006
 12        -10.1617928447   -2.2538772062    8.5266757320   -2.0983006047
 13        -10.1618182292   -2.2538437891    8.5267131983   -2.0983181961
 14        -10.1618318741   -2.2538274201    8.5267315620   -2.0983270391
 15        -10.1618392144   -2.2538194197    8.5267405433   -2.0983314852
 16        -10.1618431651   -2.2538155200    8.5267449245   -2.0983337210
 17        -10.1618452923   -2.2538136252    8.5267470551   -2.0983348455
 18        -10.1618464380   -2.2538127080    8.5267480875   -2.0983354110
 19        -10.1618470552   -2.2538122659    8.5267485856   -2.0983356955
 20        -10.1618473878   -2.2538120540    8.5267488248   -2.0983358386
 21        -10.1618475670   -2.2538119530    8.5267489389   -2.0983359106
 22        -10.1618476637   -2.2538119053    8.5267489929   -2.0983359468
Atom SCF converged after  22 iterations to a total energy of    -10.16184766

Atom SCF Calculation for O  : Z (AE atom) =   8 : Z (PS atom) =   6
Config String:
Orbitals (num,occ):  2     2.00 4.00
Orbitals   (num,l):  2        0    1
Real-space Grid (nr,dr,rmax): 1203    0.0066555740    8.0000000000
Spherical Bessel Basis (nsws,lmax,cutoff):   47    1  176.3951722778
Confining potential (l,width,scale):  0    3.0000000000  100.0000000000
Confining potential (l,width,scale):  1    3.0000000000  100.0000000000
  1         -1.8735052164   -7.5539365035   10.1554312477   -2.4512393157
  2        -16.0318313751   -3.1285771268   13.6395848164   -3.2358799643
  3        -15.9524020423   -3.0762819706   13.6967272503   -3.2536856837
  4        -15.8521515939   -3.0781493909   13.6951909330   -3.2561700440
  5        -15.8357139793   -3.0748501933   13.6988803334   -3.2580493133
  6        -15.8246052853   -3.0740779781   13.6997881576   -3.2588327446
  7        -15.8189019501   -3.0737449687   13.7001869911   -3.2592378801
  8        -15.8159785510   -3.0736026016   13.7003615168   -3.2594475790
  9        -15.8144776168   -3.0735437994   13.7004360379   -3.2595560735
 10        -15.8137058024   -3.0735207882   13.7004667348   -3.2596122456
 11        -15.8133083127   -3.0735125946   13.7004786868   -3.2596413656
 12        -15.8131032938   -3.0735102195   13.7004828997   -3.2596564858
 13        -15.8129973902   -3.0735099286   13.7004840891   -3.2596643505
 14        -15.8129426040   -3.0735102506   13.7004842061   -3.2596684489
 15        -15.8129142203   -3.0735106556   13.7004840157   -3.2596705887
 16        -15.8128994940   -3.0735109855   13.7004837906   -3.2596717080
 17        -15.8128918425   -3.0735112169   13.7004836103   -3.2596722946
 18        -15.8128878614   -3.0735113674   13.7004834848   -3.2596726026
 19        -15.8128857871   -3.0735114608   13.7004834035   -3.2596727646
 20        -15.8128847048   -3.0735115170   13.7004833533   -3.2596728500
 21        -15.8128841394   -3.0735115501   13.7004833231   -3.2596728951
 22        -15.8128838436   -3.0735115693   13.7004833054   -3.2596729190
 23        -15.8128836887   -3.0735115802   13.7004832951   -3.2596729316
 24        -15.8128836074   -3.0735115864   13.7004832893   -3.2596729383
Atom SCF converged after  24 iterations to a total energy of    -15.81288361

========================== Calculation in vacuum ==============================
= Adjusting the following parameters: 
= is_implicit_solvent: F
= is_include_apolar: F
= write_denskern: T
= write_tightbox_ngwfs: T
= restart read filename prefix: ""
= restart write filename prefix: "vacuum_"
===============================================================================

Determining parallel strategy ...
... using space-filling curve
... NGWF load balancing: max    110;  min    109;  average    109
... Projector load balancing: max     26;  min     21;  average     22
... done
Calculating direct Ion-Ion energy ...
Ion-Ion Energy        :    838129.44126949808560
======================= Empirical dispersion information =======================
Model : Elstner
Dispersion Correction Energy: -0.32784662E+01 Hartree
================================================================================
Basis initialisation ...... NGWF spheres initialised
... Projector spheres initialised
... NGWF tight boxes initialised
... Tight-boxes gathered
... NGWF basis size (local,global):     983231  59034125
... Nonlocal pseudopotential projector initialisation
... done

========================== Sparse matrix information ===========================
                        Overlap matrix filling:   6.78%
                        Density kernel filling: 100.00%
              NGWF-Proj overlap matrix filling:   1.77%
                    Hamiltonian matrix filling:   7.66%
                  NGWF diagonal matrix filling:   0.05%
                             KS matrix filling: 100.00% 
                           KSKS matrix filling: 100.00% 
================================================================================

Sparse matrix initialisation ... done

Generating smeared ion density ... done
Smeared ion self correction:     -14543.939510
Smeared ion non-self correction: -838081.249965
NGWF initialisation ...... done
============ Calculation of NGWF S^-1 using Hotelling algorithm ================ 
         Iteration  |  Frobenius norm and Maximum abs value    (of I-S*S_n^-1)   
               1       0.78799092E+02     0.98341472E+00
               2       0.77006846E+02     0.96722360E+00
               3       0.74081476E+02     0.93595918E+00
               4       0.69882232E+02     0.87751463E+00
               5       0.64608706E+02     0.77625045E+00
               6       0.58644464E+02     0.70736289E+00
               7       0.52600858E+02     0.67039401E+00
               8       0.47016158E+02     0.64645747E+00
               9       0.41023063E+02     0.60820359E+00
              10       0.32908399E+02     0.54147679E+00
              11       0.22425248E+02     0.43222843E+00
              12       0.11708314E+02     0.28043645E+00
              13       0.39935117E+01     0.12774538E+00
              14       0.66964422E+00     0.38592308E-01
              15       0.35993766E-01     0.42592218E-02
              16       0.26290353E-03     0.56479852E-04
              17       0.33468823E-07     0.10094704E-07
              18       0.10147198E-12     0.53290705E-14
================================================================================
Calculating local pseudopotential in open BC on the fine real space grid ...
... done

MG BCs: +ve charge blocks (gridpoints):     20631 (   16246251).
MG BCs: -ve charge blocks (gridpoints):      8130 (    1102802).
MG BCs:     Elided blocks (gridpoints):    194601 (  193354492).
MG BCs: Computational effort saved:  99.9864%.
MG BCs: Charge after coarse-graining:           -9.0002265.
MG DL_MG: Calling solver with defect correction order = 8
MG DL_MG: Solver finished
MG Hartree energy from (\int phi*rho dr):              1471.235390
MG Hartree energy from (\int eps (grad phi)^2 dr):     1470.634652
MG Discrepancy due to finite box and discretization:     -0.600738 (  -0.04083%)
MG Correction to account for finite box:                  0.453043
MG Remaining discrepancy, due to discretization:         -0.147694 (  -0.01004%)
Up spin density kernel initialisation ... 
======= Optimisation of K by Palser-Manolopoulos canonical purification ======== 
         Iteration  |  Band structure energy |    c_n   
               1       -2593.71283841502009    0.5274880
               2       -2770.29019456254036    0.5174644
               3       -2951.95209869551218    0.5155030
               4       -3104.44404353476648    0.5287544
               5       -3198.91703092834905    0.5642266
               6       -3238.78823144048920    0.6090110
               7       -3252.39569471136383    0.6212751
               8       -3258.27776634454631    0.6195613
               9       -3261.13193213779232    0.6339607
              10       -3262.31131436374562    0.6613069
              11       -3262.76404001247920    0.6850789
              12       -3262.95429034160134    0.6826921
              13       -3263.05255054613690    0.6382290
              14       -3263.11544035111592    0.5656240
              15       -3263.15343069435312    0.4977822
              16       -3263.16664167834779    0.4601444
              17       -3263.16792588085809    0.4257251
              18       -3263.16847976828103    0.3944091
              19       -3263.16868856269593    0.4095168
              20       -3263.16880607326175    0.4482252
              21       -3263.16889914937428    0.4832364
              22       -3263.16896637482887    0.4982800
              23       -3263.16902620292103    0.4999822
              24       -3263.16908485231670    0.5000000
              25       -3263.16912312801742    0.5000000
              26       -3263.16913355478664    0.5000000
              27       -3263.16913412467738    0.5000005
              28       -3263.16913412623671    0.5000005
Termination criterion satisfied: band energy change below threshold.
Final occupancy bounds: [    0.00000000000000:    0.99999999999999]
Closest occupancy to 0.5:     1.00000000000000
================================================================================
... done

Writing density kernel to file "complex_29741.vacuum_dkn" ... done

>>> Optimising kernel for current NGWFs:
   Initial electron number for spin 1:    7234.00000000
     Final electron number for spin 1:    7234.00000000

=================== Penalty functional idempotency correction ==================
 RMS occupancy error at iteration   1:  0.000000 (step -0.5000 Ne1=   7234.0000)
            Final RMS occupancy error   :  0.000000 (Ne1=   7234.0000)
               Final occupancy bounds   : [  0.0000,  1.0000]
================================================================================

................................................................................
<<<<<<<<<<<<<< LNV (Original version) density kernel optimisation >>>>>>>>>>>>>>
~~~~~~~~~~~~~~~~~~~~~~~~~~~~~~~~~~~~~~~~~~~~~~~~~~~~~~~~~~~~~~~~~~~~~~~~~~~~~~~~
   iter  |      energy (Eh)       | rms gradient |  commutator  |   dE (Eh)
MG BCs: +ve charge blocks (gridpoints):     31750 (   17408448).
MG BCs: -ve charge blocks (gridpoints):      8444 (    1136218).
MG BCs:     Elided blocks (gridpoints):    183474 (  192158879).
MG BCs: Computational effort saved:  99.9809%.
MG BCs: Charge after coarse-graining:           -9.0010030.
MG DL_MG: Calling solver with defect correction order = 8
MG DL_MG: Solver finished
MG Hartree energy from (\int phi*rho dr):              1425.324707
MG Hartree energy from (\int eps (grad phi)^2 dr):     1424.677096
MG Discrepancy due to finite box and discretization:     -0.647611 (  -0.04544%)
MG Correction to account for finite box:                  0.457247
MG Remaining discrepancy, due to discretization:         -0.190364 (  -0.01336%)
      ideal mu1:      -0.719597178969
             Q0:  -11578.602753496147
             G0:    -143.409550649418
   RMS gradient:       0.001830257171
MG BCs: +ve charge blocks (gridpoints):     31752 (   17487986).
MG BCs: -ve charge blocks (gridpoints):      8367 (    1115477).
MG BCs:     Elided blocks (gridpoints):    183473 (  192100082).
MG BCs: Computational effort saved:  99.9810%.
MG BCs: Charge after coarse-graining:           -9.0010242.
MG DL_MG: Calling solver with defect correction order = 8
MG DL_MG: Solver finished
MG Hartree energy from (\int phi*rho dr):              1450.701219
MG Hartree energy from (\int eps (grad phi)^2 dr):     1450.069172
MG Discrepancy due to finite box and discretization:     -0.632047 (  -0.04357%)
MG Correction to account for finite box:                  0.457323
MG Remaining discrepancy, due to discretization:         -0.174724 (  -0.01204%)
     Trial step:       0.500000000000
             Q1:  -11589.732574509457
 Quadratic coef:      60.574954311400
 Linear coef   :     -71.704775324709
           Qmin:  -11599.822640753244
Quadratic minimum step length (  0.295934087528) accepted
    Initial Ne1:    7234.00000000
      Final Ne1:    7234.00000000

=================== Penalty functional idempotency correction ==================
 RMS occupancy error at iteration   1:  0.003352 (step -0.4886 Ne1=   7234.0000)
 RMS occupancy error at iteration   2:  0.000025 (step -0.5000 Ne1=   7234.0000)
            Final RMS occupancy error   :  0.000000 (Ne1=   7234.0000)
               Final occupancy bounds   : [  0.0000,  1.0000]
================================================================================

    1        -1.157860275350E+04     1.8303E-03     1.6554E-03
MG BCs: +ve charge blocks (gridpoints):     31753 (   17456771).
MG BCs: -ve charge blocks (gridpoints):      8397 (    1124341).
MG BCs:     Elided blocks (gridpoints):    183472 (  192122433).
MG BCs: Computational effort saved:  99.9809%.
MG BCs: Charge after coarse-graining:           -9.0010157.
MG DL_MG: Calling solver with defect correction order = 8
MG DL_MG: Solver finished
MG Hartree energy from (\int phi*rho dr):              1432.428068
MG Hartree energy from (\int eps (grad phi)^2 dr):     1431.790559
MG Discrepancy due to finite box and discretization:     -0.637509 (  -0.04451%)
MG Correction to account for finite box:                  0.457226
MG Remaining discrepancy, due to discretization:         -0.180283 (  -0.01259%)
      ideal mu1:      -0.759507363122
             Q0:  -11600.220636576414
             G0:     -11.721073792426
   RMS gradient:       0.000519732879
MG BCs: +ve charge blocks (gridpoints):     31747 (   17473338).
MG BCs: -ve charge blocks (gridpoints):      8376 (    1118955).
MG BCs:     Elided blocks (gridpoints):    183477 (  192111252).
MG BCs: Computational effort saved:  99.9810%.
MG BCs: Charge after coarse-graining:           -9.0010198.
MG DL_MG: Calling solver with defect correction order = 8
MG DL_MG: Solver finished
MG Hartree energy from (\int phi*rho dr):              1437.808080
MG Hartree energy from (\int eps (grad phi)^2 dr):     1437.173966
MG Discrepancy due to finite box and discretization:     -0.634114 (  -0.04410%)
MG Correction to account for finite box:                  0.457010
MG Remaining discrepancy, due to discretization:         -0.177104 (  -0.01232%)
     Trial step:       0.384664846020
             Q1:  -11602.981147869723
 Quadratic coef:       1.748173752248
 Linear coef   :      -4.508685045557
           Qmin:  -11603.127704711644
Quadratic minimum step length (  0.496041264941) accepted
    Initial Ne1:    7233.99991623
      Final Ne1:    7234.00000000

=================== Penalty functional idempotency correction ==================
 RMS occupancy error at iteration   1:  0.001767 (step -0.4933 Ne1=   7234.0000)
 RMS occupancy error at iteration   2:  0.000009 (step -0.5001 Ne1=   7234.0000)
            Final RMS occupancy error   :  0.000000 (Ne1=   7234.0000)
               Final occupancy bounds   : [  0.0000,  1.0000]
================================================================================

    2        -1.160022063658E+04     5.1973E-04     4.7009E-04    -2.1618E+01
MG BCs: +ve charge blocks (gridpoints):     31749 (   17478156).
MG BCs: -ve charge blocks (gridpoints):      8365 (    1117390).
MG BCs:     Elided blocks (gridpoints):    183475 (  192107999).
MG BCs: Computational effort saved:  99.9810%.
MG BCs: Charge after coarse-graining:           -9.0010210.
MG DL_MG: Calling solver with defect correction order = 8
MG DL_MG: Solver finished
MG Hartree energy from (\int phi*rho dr):              1439.407570
MG Hartree energy from (\int eps (grad phi)^2 dr):     1438.774366
MG Discrepancy due to finite box and discretization:     -0.633204 (  -0.04399%)
MG Correction to account for finite box:                  0.456957
MG Remaining discrepancy, due to discretization:         -0.176247 (  -0.01224%)
      ideal mu1:      -0.781239735801
             Q0:  -11603.162311176071
             G0:      -1.854346113195
   RMS gradient:       0.000206888025
MG BCs: +ve charge blocks (gridpoints):     31750 (   17477901).
MG BCs: -ve charge blocks (gridpoints):      8371 (    1118330).
MG BCs:     Elided blocks (gridpoints):    183474 (  192107314).
MG BCs: Computational effort saved:  99.9810%.
MG BCs: Charge after coarse-graining:           -9.0010206.
MG DL_MG: Calling solver with defect correction order = 8
MG DL_MG: Solver finished
MG Hartree energy from (\int phi*rho dr):              1437.288398
MG Hartree energy from (\int eps (grad phi)^2 dr):     1436.655527
MG Discrepancy due to finite box and discretization:     -0.632871 (  -0.04403%)
MG Correction to account for finite box:                  0.456801
MG Remaining discrepancy, due to discretization:         -0.176070 (  -0.01225%)
     Trial step:       0.436817624185
             Q1:  -11603.626032996108
 Quadratic coef:       0.346289243544
 Linear coef   :      -0.810011063581
           Qmin:  -11603.635988842470
Quadratic minimum step length (  0.510883769787) accepted
    Initial Ne1:    7233.99996451
      Final Ne1:    7234.00000000

=================== Penalty functional idempotency correction ==================
 RMS occupancy error at iteration   1:  0.000581 (step -0.4977 Ne1=   7234.0000)
 RMS occupancy error at iteration   2:  0.000001 (step -0.5000 Ne1=   7234.0000)
            Final RMS occupancy error   :  0.000000 (Ne1=   7234.0000)
               Final occupancy bounds   : [  0.0000,  1.0000]
================================================================================

    3        -1.160316231118E+04     2.0689E-04     1.8713E-04    -2.9417E+00
MG BCs: +ve charge blocks (gridpoints):     31753 (   17477852).
MG BCs: -ve charge blocks (gridpoints):      8373 (    1118506).
MG BCs:     Elided blocks (gridpoints):    183471 (  192107187).
MG BCs: Computational effort saved:  99.9810%.
MG BCs: Charge after coarse-graining:           -9.0010205.
MG DL_MG: Calling solver with defect correction order = 8
MG DL_MG: Solver finished
MG Hartree energy from (\int phi*rho dr):              1436.936953
MG Hartree energy from (\int eps (grad phi)^2 dr):     1436.304130
MG Discrepancy due to finite box and discretization:     -0.632822 (  -0.04404%)
MG Correction to account for finite box:                  0.456775
MG Remaining discrepancy, due to discretization:         -0.176048 (  -0.01225%)
      ideal mu1:      -0.781739006079
             Q0:  -11603.640275144600
             G0:      -0.441961241810
   RMS gradient:       0.000101093501
MG BCs: +ve charge blocks (gridpoints):     31757 (   17478792).
MG BCs: -ve charge blocks (gridpoints):      8371 (    1118298).
MG BCs:     Elided blocks (gridpoints):    183467 (  192106455).
MG BCs: Computational effort saved:  99.9810%.
MG BCs: Charge after coarse-graining:           -9.0010205.
MG DL_MG: Calling solver with defect correction order = 8
MG DL_MG: Solver finished
MG Hartree energy from (\int phi*rho dr):              1437.999318
MG Hartree energy from (\int eps (grad phi)^2 dr):     1437.366446
MG Discrepancy due to finite box and discretization:     -0.632872 (  -0.04401%)
MG Correction to account for finite box:                  0.456716
MG Remaining discrepancy, due to discretization:         -0.176156 (  -0.01225%)
     Trial step:       0.472401349017
             Q1:  -11603.740556665696
 Quadratic coef:       0.108501565748
 Linear coef   :      -0.208783086844
           Qmin:  -11603.740712352699
Quadratic minimum step length (  0.454506859864) accepted
    Initial Ne1:    7233.99999232
      Final Ne1:    7234.00000000

=================== Penalty functional idempotency correction ==================
 RMS occupancy error at iteration   1:  0.000189 (step -0.4992 Ne1=   7234.0000)
            Final RMS occupancy error   :  0.000000 (Ne1=   7234.0000)
               Final occupancy bounds   : [ -0.0000,  1.0000]
================================================================================

    4        -1.160364027514E+04     1.0109E-04     9.1437E-05    -4.7796E-01
MG BCs: +ve charge blocks (gridpoints):     31757 (   17478715).
MG BCs: -ve charge blocks (gridpoints):      8371 (    1118327).
MG BCs:     Elided blocks (gridpoints):    183467 (  192106503).
MG BCs: Computational effort saved:  99.9810%.
MG BCs: Charge after coarse-graining:           -9.0010206.
MG DL_MG: Calling solver with defect correction order = 8
MG DL_MG: Solver finished
MG Hartree energy from (\int phi*rho dr):              1437.959060
MG Hartree energy from (\int eps (grad phi)^2 dr):     1437.326191
MG Discrepancy due to finite box and discretization:     -0.632870 (  -0.04401%)
MG Correction to account for finite box:                  0.456718
MG Remaining discrepancy, due to discretization:         -0.176151 (  -0.01225%)
      ideal mu1:      -0.782061101860
             Q0:  -11603.741153055103
             G0:      -0.107415693019
   RMS gradient:       0.000049985516
MG BCs: +ve charge blocks (gridpoints):     31757 (   17479025).
MG BCs: -ve charge blocks (gridpoints):      8371 (    1118202).
MG BCs:     Elided blocks (gridpoints):    183467 (  192106318).
MG BCs: Computational effort saved:  99.9810%.
MG BCs: Charge after coarse-graining:           -9.0010204.
MG DL_MG: Calling solver with defect correction order = 8
MG DL_MG: Solver finished
MG Hartree energy from (\int phi*rho dr):              1438.393678
MG Hartree energy from (\int eps (grad phi)^2 dr):     1437.760700
MG Discrepancy due to finite box and discretization:     -0.632978 (  -0.04401%)
MG Correction to account for finite box:                  0.456691
MG Remaining discrepancy, due to discretization:         -0.176287 (  -0.01226%)
     Trial step:       0.463367730574
             Q1:  -11603.767418749281
 Quadratic coef:       0.023507271724
 Linear coef   :      -0.049772965902
           Qmin:  -11603.767499669928
Quadratic minimum step length (  0.490554295810) accepted
    Initial Ne1:    7234.00170397
      Final Ne1:    7234.00000000

=================== Penalty functional idempotency correction ==================
 RMS occupancy error at iteration   1:  0.000067 (step -0.4997 Ne1=   7234.0000)
            Final RMS occupancy error   :  0.000000 (Ne1=   7234.0000)
               Final occupancy bounds   : [ -0.0000,  1.0000]
================================================================================

    5        -1.160374115306E+04     4.9986E-05     4.5211E-05    -1.0088E-01
MG BCs: +ve charge blocks (gridpoints):     31757 (   17479058).
MG BCs: -ve charge blocks (gridpoints):      8371 (    1118186).
MG BCs:     Elided blocks (gridpoints):    183467 (  192106301).
MG BCs: Computational effort saved:  99.9810%.
MG BCs: Charge after coarse-graining:           -9.0010204.
MG DL_MG: Calling solver with defect correction order = 8
MG DL_MG: Solver finished
MG Hartree energy from (\int phi*rho dr):              1438.419222
MG Hartree energy from (\int eps (grad phi)^2 dr):     1437.786237
MG Discrepancy due to finite box and discretization:     -0.632985 (  -0.04401%)
MG Correction to account for finite box:                  0.456690
MG Remaining discrepancy, due to discretization:         -0.176295 (  -0.01226%)
      ideal mu1:      -0.781971286201
             Q0:  -11603.767551567056
             G0:      -0.032101315199
   RMS gradient:       0.000027348364
MG BCs: +ve charge blocks (gridpoints):     31755 (   17478764).
MG BCs: -ve charge blocks (gridpoints):      8372 (    1118379).
MG BCs:     Elided blocks (gridpoints):    183469 (  192106402).
MG BCs: Computational effort saved:  99.9810%.
MG BCs: Charge after coarse-graining:           -9.0010202.
MG DL_MG: Calling solver with defect correction order = 8
MG DL_MG: Solver finished
MG Hartree energy from (\int phi*rho dr):              1437.814226
MG Hartree energy from (\int eps (grad phi)^2 dr):     1437.181249
MG Discrepancy due to finite box and discretization:     -0.632977 (  -0.04402%)
MG Correction to account for finite box:                  0.456689
MG Remaining discrepancy, due to discretization:         -0.176288 (  -0.01226%)
     Trial step:       0.476767271080
             Q1:  -11603.777597393258
 Quadratic coef:       0.005259030244
 Linear coef   :      -0.015304856445
           Qmin:  -11603.778686634738
Quadratic minimum step length (  0.693745263221) accepted
    Initial Ne1:    7234.00105175
      Final Ne1:    7234.00000000

=================== Penalty functional idempotency correction ==================
 RMS occupancy error at iteration   1:  0.000040 (step -0.4998 Ne1=   7234.0000)
            Final RMS occupancy error   :  0.000000 (Ne1=   7234.0000)
               Final occupancy bounds   : [ -0.0000,  1.0000]
================================================================================

    6        -1.160376755157E+04     2.7348E-05     2.4736E-05    -2.6399E-02
MG BCs: +ve charge blocks (gridpoints):     31755 (   17478568).
MG BCs: -ve charge blocks (gridpoints):      8372 (    1118477).
MG BCs:     Elided blocks (gridpoints):    183469 (  192106500).
MG BCs: Computational effort saved:  99.9810%.
MG BCs: Charge after coarse-graining:           -9.0010202.
MG DL_MG: Calling solver with defect correction order = 8
MG DL_MG: Solver finished
MG Hartree energy from (\int phi*rho dr):              1437.538116
MG Hartree energy from (\int eps (grad phi)^2 dr):     1436.905143
MG Discrepancy due to finite box and discretization:     -0.632973 (  -0.04403%)
MG Correction to account for finite box:                  0.456689
MG Remaining discrepancy, due to discretization:         -0.176284 (  -0.01226%)
      ideal mu1:      -0.781694562821
             Q0:  -11603.778697097790
             G0:      -0.017165356881
   RMS gradient:       0.000020023938
MG BCs: +ve charge blocks (gridpoints):     31756 (   17478938).
MG BCs: -ve charge blocks (gridpoints):      8371 (    1118219).
MG BCs:     Elided blocks (gridpoints):    183468 (  192106388).
MG BCs: Computational effort saved:  99.9810%.
MG BCs: Charge after coarse-graining:           -9.0010204.
MG DL_MG: Calling solver with defect correction order = 8
MG DL_MG: Solver finished
MG Hartree energy from (\int phi*rho dr):              1438.090715
MG Hartree energy from (\int eps (grad phi)^2 dr):     1437.457784
MG Discrepancy due to finite box and discretization:     -0.632932 (  -0.04401%)
MG Correction to account for finite box:                  0.456673
MG Remaining discrepancy, due to discretization:         -0.176258 (  -0.01226%)
     Trial step:       0.575113063641
             Q1:  -11603.782953062560
 Quadratic coef:       0.005616056214
 Linear coef   :      -0.009872020985
           Qmin:  -11603.783035408991
Quadratic minimum step length (  0.505472881322) accepted
    Initial Ne1:    7234.00016160
      Final Ne1:    7234.00000000

=================== Penalty functional idempotency correction ==================
 RMS occupancy error at iteration   1:  0.000002 (step -0.5000 Ne1=   7234.0000)
            Final RMS occupancy error   :  0.000000 (Ne1=   7234.0000)
               Final occupancy bounds   : [  0.0000,  1.0000]
================================================================================

    7        -1.160377869710E+04     2.0024E-05     1.8111E-05    -1.1146E-02
MG BCs: +ve charge blocks (gridpoints):     31756 (   17478912).
MG BCs: -ve charge blocks (gridpoints):      8372 (    1118238).
MG BCs:     Elided blocks (gridpoints):    183468 (  192106395).
MG BCs: Computational effort saved:  99.9810%.
MG BCs: Charge after coarse-graining:           -9.0010203.
MG DL_MG: Calling solver with defect correction order = 8
MG DL_MG: Solver finished
MG Hartree energy from (\int phi*rho dr):              1438.023687
MG Hartree energy from (\int eps (grad phi)^2 dr):     1437.390750
MG Discrepancy due to finite box and discretization:     -0.632937 (  -0.04401%)
MG Correction to account for finite box:                  0.456675
MG Remaining discrepancy, due to discretization:         -0.176261 (  -0.01226%)
      ideal mu1:      -0.781963411086
             Q0:  -11603.783035671571
             G0:      -0.010100195768
   RMS gradient:       0.000015360765
MG BCs: +ve charge blocks (gridpoints):     31756 (   17478952).
MG BCs: -ve charge blocks (gridpoints):      8371 (    1118205).
MG BCs:     Elided blocks (gridpoints):    183468 (  192106388).
MG BCs: Computational effort saved:  99.9810%.
MG BCs: Charge after coarse-graining:           -9.0010204.
MG DL_MG: Calling solver with defect correction order = 8
MG DL_MG: Solver finished
MG Hartree energy from (\int phi*rho dr):              1438.110381
MG Hartree energy from (\int eps (grad phi)^2 dr):     1437.477483
MG Discrepancy due to finite box and discretization:     -0.632899 (  -0.04401%)
MG Correction to account for finite box:                  0.456664
MG Remaining discrepancy, due to discretization:         -0.176235 (  -0.01225%)
     Trial step:       0.539169785285
             Q1:  -11603.787071226165
 Quadratic coef:       0.001410165791
 Linear coef   :      -0.005445720383
           Qmin:  -11603.788293186448
Quadratic minimum step length (  1.041071875785) accepted
    Initial Ne1:    7234.00019465
      Final Ne1:    7234.00000000

=================== Penalty functional idempotency correction ==================
 RMS occupancy error at iteration   1:  0.000026 (step -0.4993 Ne1=   7234.0000)
            Final RMS occupancy error   :  0.000000 (Ne1=   7234.0000)
               Final occupancy bounds   : [ -0.0000,  1.0000]
================================================================================

    8        -1.160378303567E+04     1.5361E-05     1.3893E-05    -4.3386E-03
MG BCs: +ve charge blocks (gridpoints):     31756 (   17478970).
MG BCs: -ve charge blocks (gridpoints):      8371 (    1118185).
MG BCs:     Elided blocks (gridpoints):    183468 (  192106390).
MG BCs: Computational effort saved:  99.9810%.
MG BCs: Charge after coarse-graining:           -9.0010205.
MG DL_MG: Calling solver with defect correction order = 8
MG DL_MG: Solver finished
MG Hartree energy from (\int phi*rho dr):              1438.189215
MG Hartree energy from (\int eps (grad phi)^2 dr):     1437.556353
MG Discrepancy due to finite box and discretization:     -0.632862 (  -0.04400%)
MG Correction to account for finite box:                  0.456652
MG Remaining discrepancy, due to discretization:         -0.176210 (  -0.01225%)
      ideal mu1:      -0.782010479857
             Q0:  -11603.788280959474
             G0:      -0.015147648988
   RMS gradient:       0.000018853053
MG BCs: +ve charge blocks (gridpoints):     31756 (   17478829).
MG BCs: -ve charge blocks (gridpoints):      8371 (    1118279).
MG BCs:     Elided blocks (gridpoints):    183468 (  192106437).
MG BCs: Computational effort saved:  99.9810%.
MG BCs: Charge after coarse-graining:           -9.0010204.
MG DL_MG: Calling solver with defect correction order = 8
MG DL_MG: Solver finished
MG Hartree energy from (\int phi*rho dr):              1437.851329
MG Hartree energy from (\int eps (grad phi)^2 dr):     1437.218561
MG Discrepancy due to finite box and discretization:     -0.632768 (  -0.04401%)
MG Correction to account for finite box:                  0.456613
MG Remaining discrepancy, due to discretization:         -0.176155 (  -0.01225%)
     Trial step:       0.749209249632
             Q1:  -11603.795424806536
 Quadratic coef:       0.004204911669
 Linear coef   :      -0.011348758732
           Qmin:  -11603.795938333451
Quadratic minimum step length (  1.011031346506) accepted
    Initial Ne1:    7234.00052876
      Final Ne1:    7234.00000000

=================== Penalty functional idempotency correction ==================
 RMS occupancy error at iteration   1:  0.000154 (step -0.4956 Ne1=   7234.0000)
 RMS occupancy error at iteration   2:  0.000001 (step -0.5000 Ne1=   7234.0000)
            Final RMS occupancy error   :  0.000000 (Ne1=   7234.0000)
               Final occupancy bounds   : [  0.0000,  1.0000]
================================================================================

    9        -1.160378828096E+04     1.8853E-05     1.7052E-05    -5.2453E-03
MG BCs: +ve charge blocks (gridpoints):     31756 (   17478764).
MG BCs: -ve charge blocks (gridpoints):      8372 (    1118340).
MG BCs:     Elided blocks (gridpoints):    183468 (  192106441).
MG BCs: Computational effort saved:  99.9810%.
MG BCs: Charge after coarse-graining:           -9.0010204.
MG DL_MG: Calling solver with defect correction order = 8
MG DL_MG: Solver finished
MG Hartree energy from (\int phi*rho dr):              1437.729519
MG Hartree energy from (\int eps (grad phi)^2 dr):     1437.096786
MG Discrepancy due to finite box and discretization:     -0.632732 (  -0.04401%)
MG Correction to account for finite box:                  0.456598
MG Remaining discrepancy, due to discretization:         -0.176135 (  -0.01225%)
      ideal mu1:      -0.781398741091
   10        -1.160379586406E+04     2.1749E-05     1.9671E-05    -7.5831E-03
Finished density kernel iterations (  10)

Writing density kernel to file "complex_29741.vacuum_dkn" ... done


>>> Density kernel optimised for the current NGWF basis:
     ~~~~~~~~~~~~~~~~~~~~~~~~~~~~~~~~~~~~~~~~~~~~~~~~~~~~~~~~~~~
     Total energy                =  -1.16037958640599E+04  Eh
     Estimated bandgap           =  -2.7953E-01  Eh
     RMS occupancy error         =   1.6510E-11
     [H,K] commutator            =   1.9671E-05
     Occupancy bounds            = [  0.000:  1.000]
     ~~~~~~~~~~~~~~~~~~~~~~~~~~~~~~~~~~~~~~~~~~~~~~~~~~~~~~~~~~~




################################################################################
########################### NGWF CG iteration  001 #############################
################################################################################
****** Reciprocal space K.E. preconditioning with k_zero =  3.5000 a0^-1 *******

>>> Checking for convergence of NGWFs:   NOT CONVERGED
  ========================================================================
         NGWF RMS gradient =  1.5610E-03 >  2.0000E-06  | above tolerance
  ========================================================================

>>> Improving NGWFs using line search:
============ Calculation of NGWF S^-1 using Hotelling algorithm ================ 
         Iteration  |  Frobenius norm and Maximum abs value    (of I-S*S_n^-1)   
               1       0.19291120E+00     0.50596696E-02
               2       0.86153993E-03     0.36896596E-04
               3       0.29189492E-07     0.21073134E-08
               4       0.12638172E-12     0.57731597E-14
================================================================================
MG BCs: +ve charge blocks (gridpoints):     31266 (   17415404).
MG BCs: -ve charge blocks (gridpoints):      8382 (    1118321).
MG BCs:     Elided blocks (gridpoints):    183962 (  192169820).
MG BCs: Computational effort saved:  99.9812%.
MG BCs: Charge after coarse-graining:           -9.0010209.
MG DL_MG: Calling solver with defect correction order = 8
MG DL_MG: Solver finished
MG Hartree energy from (\int phi*rho dr):              1406.378905
MG Hartree energy from (\int eps (grad phi)^2 dr):     1405.746996
MG Discrepancy due to finite box and discretization:     -0.631909 (  -0.04493%)
MG Correction to account for finite box:                  0.456572
MG Remaining discrepancy, due to discretization:         -0.175337 (  -0.01247%)
============ Calculation of NGWF S^-1 using Hotelling algorithm ================ 
         Iteration  |  Frobenius norm and Maximum abs value    (of I-S*S_n^-1)   
               1       0.18556779E+01     0.40441810E-01
               2       0.71354927E-01     0.22418155E-02
               3       0.14268574E-03     0.81791618E-05
               4       0.10565662E-08     0.11937107E-09
               5       0.10960407E-12     0.42188475E-14
================================================================================
------------------------------- NGWF line search -------------------------------
RMS gradient                =       0.00156095472106
Trial step length           =               0.122474
Gradient along search dir.  =       -270.76494186568
Functional at step 0        =  -11603.79586405993905
Functional at step 1        =  -11634.47451245645061
Functional predicted        =  -11714.51262017485351
Selected quadratic step     =               0.817807
--------------------------- NGWF line search finished --------------------------
                                               
Writing NGWFs to file "complex_29741.vacuum_tightbox_ngwfs"....  done

>>> Optimising kernel for current NGWFs:
   Initial electron number for spin 1:    7268.71482082
     Final electron number for spin 1:    7234.00000000

=================== Penalty functional idempotency correction ==================
 RMS occupancy error at iteration   1:  0.004270 (step -0.4861 Ne1=   7234.0000)
 RMS occupancy error at iteration   2:  0.000070 (step -0.5003 Ne1=   7234.0000)
            Final RMS occupancy error   :  0.000000 (Ne1=   7234.0000)
               Final occupancy bounds   : [  0.0000,  1.0000]
================================================================================

................................................................................
<<<<<<<<<<<<<< LNV (Original version) density kernel optimisation >>>>>>>>>>>>>>
~~~~~~~~~~~~~~~~~~~~~~~~~~~~~~~~~~~~~~~~~~~~~~~~~~~~~~~~~~~~~~~~~~~~~~~~~~~~~~~~
   iter  |      energy (Eh)       | rms gradient |  commutator  |   dE (Eh)
MG BCs: +ve charge blocks (gridpoints):     25029 (   17121781).
MG BCs: -ve charge blocks (gridpoints):      8574 (    1102064).
MG BCs:     Elided blocks (gridpoints):    190203 (  192479700).
MG BCs: Computational effort saved:  99.9841%.
MG BCs: Charge after coarse-graining:           -9.0006673.
MG DL_MG: Calling solver with defect correction order = 8
MG DL_MG: Solver finished
MG Hartree energy from (\int phi*rho dr):              1250.799474
MG Hartree energy from (\int eps (grad phi)^2 dr):     1250.167798
MG Discrepancy due to finite box and discretization:     -0.631676 (  -0.05050%)
MG Correction to account for finite box:                  0.456464
MG Remaining discrepancy, due to discretization:         -0.175212 (  -0.01401%)
      ideal mu1:      -0.720671043190
             Q0:  -11713.698080007220
             G0:      -9.824802611523
   RMS gradient:       0.000479054580
MG BCs: +ve charge blocks (gridpoints):     25107 (   17141493).
MG BCs: -ve charge blocks (gridpoints):      8553 (    1097525).
MG BCs:     Elided blocks (gridpoints):    190125 (  192464527).
MG BCs: Computational effort saved:  99.9840%.
MG BCs: Charge after coarse-graining:           -9.0006625.
MG DL_MG: Calling solver with defect correction order = 8
MG DL_MG: Solver finished
MG Hartree energy from (\int phi*rho dr):              1270.683057
MG Hartree energy from (\int eps (grad phi)^2 dr):     1270.045025
MG Discrepancy due to finite box and discretization:     -0.638033 (  -0.05021%)
MG Correction to account for finite box:                  0.455903
MG Remaining discrepancy, due to discretization:         -0.182129 (  -0.01433%)
     Trial step:       0.870329843490
             Q1:  -11710.965076586697
 Quadratic coef:      11.283822339730
 Linear coef   :      -8.550818919208
           Qmin:  -11715.318020971987
Quadratic minimum step length (  0.329765600149) accepted
    Initial Ne1:    7233.99958031
      Final Ne1:    7234.00000000

=================== Penalty functional idempotency correction ==================
 RMS occupancy error at iteration   1:  0.000354 (step -0.4986 Ne1=   7234.0000)
 RMS occupancy error at iteration   2:  0.000000 (step -0.5000 Ne1=   7234.0000)
            Final RMS occupancy error   :  0.000000 (Ne1=   7234.0000)
               Final occupancy bounds   : [  0.0000,  1.0000]
================================================================================

    1        -1.171369808001E+04     4.7905E-04     4.3329E-04
MG BCs: +ve charge blocks (gridpoints):     25057 (   17129511).
MG BCs: -ve charge blocks (gridpoints):      8564 (    1100343).
MG BCs:     Elided blocks (gridpoints):    190175 (  192473691).
MG BCs: Computational effort saved:  99.9840%.
MG BCs: Charge after coarse-graining:           -9.0006653.
MG DL_MG: Calling solver with defect correction order = 8
MG DL_MG: Solver finished
MG Hartree energy from (\int phi*rho dr):              1257.016926
MG Hartree energy from (\int eps (grad phi)^2 dr):     1256.382968
MG Discrepancy due to finite box and discretization:     -0.633958 (  -0.05043%)
MG Correction to account for finite box:                  0.456228
MG Remaining discrepancy, due to discretization:         -0.177730 (  -0.01414%)
      ideal mu1:      -0.727522103620
             Q0:  -11715.282224295544
             G0:      -0.985768441925
   RMS gradient:       0.000152925300
MG BCs: +ve charge blocks (gridpoints):     25064 (   17129322).
MG BCs: -ve charge blocks (gridpoints):      8568 (    1101229).
MG BCs:     Elided blocks (gridpoints):    190168 (  192472994).
MG BCs: Computational effort saved:  99.9840%.
MG BCs: Charge after coarse-graining:           -9.0006652.
MG DL_MG: Calling solver with defect correction order = 8
MG DL_MG: Solver finished
MG Hartree energy from (\int phi*rho dr):              1258.235746
MG Hartree energy from (\int eps (grad phi)^2 dr):     1257.601444
MG Discrepancy due to finite box and discretization:     -0.634302 (  -0.05041%)
MG Correction to account for finite box:                  0.456187
MG Remaining discrepancy, due to discretization:         -0.178115 (  -0.01416%)
     Trial step:       0.535728329628
             Q1:  -11715.477580081555
 Quadratic coef:       0.332748294783
 Linear coef   :      -0.528104080793
           Qmin:  -11715.491762499438
Quadratic minimum step length (  0.425126621998) accepted
    Initial Ne1:    7233.99994485
      Final Ne1:    7234.00000000

=================== Penalty functional idempotency correction ==================
 RMS occupancy error at iteration   1:  0.000142 (step -0.4994 Ne1=   7234.0000)
            Final RMS occupancy error   :  0.000000 (Ne1=   7234.0000)
               Final occupancy bounds   : [ -0.0000,  1.0000]
================================================================================

    2        -1.171528222430E+04     1.5293E-04     1.3832E-04    -1.5841E+00
MG BCs: +ve charge blocks (gridpoints):     25062 (   17129373).
MG BCs: -ve charge blocks (gridpoints):      8564 (    1101063).
MG BCs:     Elided blocks (gridpoints):    190170 (  192473109).
MG BCs: Computational effort saved:  99.9840%.
MG BCs: Charge after coarse-graining:           -9.0006652.
MG DL_MG: Calling solver with defect correction order = 8
MG DL_MG: Solver finished
MG Hartree energy from (\int phi*rho dr):              1257.983715
MG Hartree energy from (\int eps (grad phi)^2 dr):     1257.349487
MG Discrepancy due to finite box and discretization:     -0.634228 (  -0.05042%)
MG Correction to account for finite box:                  0.456195
MG Remaining discrepancy, due to discretization:         -0.178033 (  -0.01415%)
      ideal mu1:      -0.728457343067
             Q0:  -11715.492238369654
             G0:      -0.145887036866
   RMS gradient:       0.000058309334
MG BCs: +ve charge blocks (gridpoints):     25062 (   17128747).
MG BCs: -ve charge blocks (gridpoints):      8570 (    1101509).
MG BCs:     Elided blocks (gridpoints):    190170 (  192473289).
MG BCs: Computational effort saved:  99.9840%.
MG BCs: Charge after coarse-graining:           -9.0006652.
MG DL_MG: Calling solver with defect correction order = 8
MG DL_MG: Solver finished
MG Hartree energy from (\int phi*rho dr):              1257.491540
MG Hartree energy from (\int eps (grad phi)^2 dr):     1256.857353
MG Discrepancy due to finite box and discretization:     -0.634187 (  -0.05043%)
MG Correction to account for finite box:                  0.456175
MG Remaining discrepancy, due to discretization:         -0.178012 (  -0.01416%)
     Trial step:       0.477234088350
             Q1:  -11715.536625415785
 Quadratic coef:       0.025235220910
 Linear coef   :      -0.069622267041
           Qmin:  -11715.540259150661
Quadratic minimum step length (  0.658328279720) accepted
    Initial Ne1:    7234.00060323
      Final Ne1:    7234.00000000

=================== Penalty functional idempotency correction ==================
 RMS occupancy error at iteration   1:  0.000061 (step -0.4998 Ne1=   7234.0000)
            Final RMS occupancy error   :  0.000000 (Ne1=   7234.0000)
               Final occupancy bounds   : [ -0.0000,  1.0000]
================================================================================

    3        -1.171549223837E+04     5.8309E-05     5.2740E-05    -2.1001E-01
MG BCs: +ve charge blocks (gridpoints):     25061 (   17128499).
MG BCs: -ve charge blocks (gridpoints):      8568 (    1101664).
MG BCs:     Elided blocks (gridpoints):    190171 (  192473382).
MG BCs: Computational effort saved:  99.9840%.
MG BCs: Charge after coarse-graining:           -9.0006652.
MG DL_MG: Calling solver with defect correction order = 8
MG DL_MG: Solver finished
MG Hartree energy from (\int phi*rho dr):              1257.304832
MG Hartree energy from (\int eps (grad phi)^2 dr):     1256.670660
MG Discrepancy due to finite box and discretization:     -0.634172 (  -0.05044%)
MG Correction to account for finite box:                  0.456168
MG Remaining discrepancy, due to discretization:         -0.178004 (  -0.01416%)
      ideal mu1:      -0.727536930896
             Q0:  -11715.540345101734
             G0:      -0.035965831817
   RMS gradient:       0.000028943348
MG BCs: +ve charge blocks (gridpoints):     25060 (   17128392).
MG BCs: -ve charge blocks (gridpoints):      8568 (    1101684).
MG BCs:     Elided blocks (gridpoints):    190172 (  192473469).
MG BCs: Computational effort saved:  99.9840%.
MG BCs: Charge after coarse-graining:           -9.0006652.
MG DL_MG: Calling solver with defect correction order = 8
MG DL_MG: Solver finished
MG Hartree energy from (\int phi*rho dr):              1257.318292
MG Hartree energy from (\int eps (grad phi)^2 dr):     1256.684219
MG Discrepancy due to finite box and discretization:     -0.634073 (  -0.05043%)
MG Correction to account for finite box:                  0.456168
MG Remaining discrepancy, due to discretization:         -0.177905 (  -0.01415%)
     Trial step:       0.560514671001
             Q1:  -11715.549240145017
 Quadratic coef:       0.011264333105
 Linear coef   :      -0.020159376388
           Qmin:  -11715.549364731492
Quadratic minimum step length (  0.501566587150) accepted
    Initial Ne1:    7234.00022277
      Final Ne1:    7234.00000000

=================== Penalty functional idempotency correction ==================
 RMS occupancy error at iteration   1:  0.000018 (step -0.4999 Ne1=   7234.0000)
            Final RMS occupancy error   :  0.000000 (Ne1=   7234.0000)
               Final occupancy bounds   : [ -0.0000,  1.0000]
================================================================================

    4        -1.171554034510E+04     2.8943E-05     2.6179E-05    -4.8107E-02
MG BCs: +ve charge blocks (gridpoints):     25060 (   17128423).
MG BCs: -ve charge blocks (gridpoints):      8568 (    1101672).
MG BCs:     Elided blocks (gridpoints):    190172 (  192473450).
MG BCs: Computational effort saved:  99.9840%.
MG BCs: Charge after coarse-graining:           -9.0006652.
MG DL_MG: Calling solver with defect correction order = 8
MG DL_MG: Solver finished
MG Hartree energy from (\int phi*rho dr):              1257.316699
MG Hartree energy from (\int eps (grad phi)^2 dr):     1256.682616
MG Discrepancy due to finite box and discretization:     -0.634084 (  -0.05043%)
MG Correction to account for finite box:                  0.456168
MG Remaining discrepancy, due to discretization:         -0.177916 (  -0.01415%)
      ideal mu1:      -0.727523497966
             Q0:  -11715.549369778950
             G0:      -0.012160803520
   RMS gradient:       0.000016850458
MG BCs: +ve charge blocks (gridpoints):     25061 (   17128933).
MG BCs: -ve charge blocks (gridpoints):      8568 (    1101467).
MG BCs:     Elided blocks (gridpoints):    190171 (  192473145).
MG BCs: Computational effort saved:  99.9840%.
MG BCs: Charge after coarse-graining:           -9.0006651.
MG DL_MG: Calling solver with defect correction order = 8
MG DL_MG: Solver finished
MG Hartree energy from (\int phi*rho dr):              1257.712917
MG Hartree energy from (\int eps (grad phi)^2 dr):     1257.078868
MG Discrepancy due to finite box and discretization:     -0.634049 (  -0.05041%)
MG Correction to account for finite box:                  0.456165
MG Remaining discrepancy, due to discretization:         -0.177883 (  -0.01414%)
     Trial step:       0.530222057803
             Q1:  -11715.552816873533
 Quadratic coef:       0.003000831684
 Linear coef   :      -0.006447926267
           Qmin:  -11715.552833464813
Quadratic minimum step length (  0.569647533318) accepted
    Initial Ne1:    7234.00009963
      Final Ne1:    7234.00000000

=================== Penalty functional idempotency correction ==================
 RMS occupancy error at iteration   1:  0.000010 (step -0.4999 Ne1=   7234.0000)
            Final RMS occupancy error   :  0.000000 (Ne1=   7234.0000)
               Final occupancy bounds   : [ -0.0000,  1.0000]
================================================================================

    5        -1.171554936978E+04     1.6850E-05     1.5241E-05    -9.0247E-03
MG BCs: +ve charge blocks (gridpoints):     25061 (   17128976).
MG BCs: -ve charge blocks (gridpoints):      8567 (    1101446).
MG BCs:     Elided blocks (gridpoints):    190171 (  192473123).
MG BCs: Computational effort saved:  99.9840%.
MG BCs: Charge after coarse-graining:           -9.0006651.
MG DL_MG: Calling solver with defect correction order = 8
MG DL_MG: Solver finished
MG Hartree energy from (\int phi*rho dr):              1257.742408
MG Hartree energy from (\int eps (grad phi)^2 dr):     1257.108362
MG Discrepancy due to finite box and discretization:     -0.634046 (  -0.05041%)
MG Correction to account for finite box:                  0.456165
MG Remaining discrepancy, due to discretization:         -0.177881 (  -0.01414%)
      ideal mu1:      -0.727899976717
             Q0:  -11715.552834619768
             G0:      -0.004186888177
   RMS gradient:       0.000009887572
MG BCs: +ve charge blocks (gridpoints):     25061 (   17128963).
MG BCs: -ve charge blocks (gridpoints):      8568 (    1101495).
MG BCs:     Elided blocks (gridpoints):    190171 (  192473087).
MG BCs: Computational effort saved:  99.9840%.
MG BCs: Charge after coarse-graining:           -9.0006651.
MG DL_MG: Calling solver with defect correction order = 8
MG DL_MG: Solver finished
MG Hartree energy from (\int phi*rho dr):              1257.716896
MG Hartree energy from (\int eps (grad phi)^2 dr):     1257.082861
MG Discrepancy due to finite box and discretization:     -0.634035 (  -0.05041%)
MG Correction to account for finite box:                  0.456158
MG Remaining discrepancy, due to discretization:         -0.177877 (  -0.01414%)
     Trial step:       0.549581374629
             Q1:  -11715.554313255940
 Quadratic coef:       0.000822399588
 Linear coef   :      -0.002301035760
           Qmin:  -11715.554444167499
Quadratic minimum step length (  0.768851549705) accepted
    Initial Ne1:    7234.00005959
      Final Ne1:    7234.00000000

=================== Penalty functional idempotency correction ==================
 RMS occupancy error at iteration   1:  0.000009 (step -0.4998 Ne1=   7234.0000)
            Final RMS occupancy error   :  0.000000 (Ne1=   7234.0000)
               Final occupancy bounds   : [ -0.0000,  1.0000]
================================================================================

    6        -1.171555283462E+04     9.8876E-06     8.9431E-06    -3.4648E-03
MG BCs: +ve charge blocks (gridpoints):     25061 (   17128987).
MG BCs: -ve charge blocks (gridpoints):      8568 (    1101495).
MG BCs:     Elided blocks (gridpoints):    190171 (  192473063).
MG BCs: Computational effort saved:  99.9840%.
MG BCs: Charge after coarse-graining:           -9.0006651.
MG DL_MG: Calling solver with defect correction order = 8
MG DL_MG: Solver finished
MG Hartree energy from (\int phi*rho dr):              1257.706641
MG Hartree energy from (\int eps (grad phi)^2 dr):     1257.072611
MG Discrepancy due to finite box and discretization:     -0.634031 (  -0.05041%)
MG Correction to account for finite box:                  0.456155
MG Remaining discrepancy, due to discretization:         -0.177875 (  -0.01414%)
      ideal mu1:      -0.727827945297
             Q0:  -11715.554444039590
             G0:      -0.002959779244
   RMS gradient:       0.000008314818
MG BCs: +ve charge blocks (gridpoints):     25061 (   17128700).
MG BCs: -ve charge blocks (gridpoints):      8568 (    1101580).
MG BCs:     Elided blocks (gridpoints):    190171 (  192473265).
MG BCs: Computational effort saved:  99.9840%.
MG BCs: Charge after coarse-graining:           -9.0006651.
MG DL_MG: Calling solver with defect correction order = 8
MG DL_MG: Solver finished
MG Hartree energy from (\int phi*rho dr):              1257.573789
MG Hartree energy from (\int eps (grad phi)^2 dr):     1256.939745
MG Discrepancy due to finite box and discretization:     -0.634044 (  -0.05042%)
MG Correction to account for finite box:                  0.456159
MG Remaining discrepancy, due to discretization:         -0.177884 (  -0.01415%)
     Trial step:       0.650035761764
             Q1:  -11715.555070560775
 Quadratic coef:       0.001297441171
 Linear coef   :      -0.001923962356
           Qmin:  -11715.555157295656
Quadratic minimum step length (  0.481965719638) accepted
    Initial Ne1:    7234.00002529
      Final Ne1:    7234.00000000

=================== Penalty functional idempotency correction ==================
 RMS occupancy error at iteration   1:  0.000001 (step -0.5000 Ne1=   7234.0000)
            Final RMS occupancy error   :  0.000000 (Ne1=   7234.0000)
               Final occupancy bounds   : [  0.0000,  1.0000]
================================================================================

    7        -1.171555444404E+04     8.3148E-06     7.5206E-06    -1.6094E-03
MG BCs: +ve charge blocks (gridpoints):     25061 (   17128782).
MG BCs: -ve charge blocks (gridpoints):      8568 (    1101554).
MG BCs:     Elided blocks (gridpoints):    190171 (  192473209).
MG BCs: Computational effort saved:  99.9840%.
MG BCs: Charge after coarse-graining:           -9.0006651.
MG DL_MG: Calling solver with defect correction order = 8
MG DL_MG: Solver finished
MG Hartree energy from (\int phi*rho dr):              1257.608063
MG Hartree energy from (\int eps (grad phi)^2 dr):     1256.974023
MG Discrepancy due to finite box and discretization:     -0.634040 (  -0.05042%)
MG Correction to account for finite box:                  0.456158
MG Remaining discrepancy, due to discretization:         -0.177882 (  -0.01414%)
      ideal mu1:      -0.727712384110
             Q0:  -11715.555157277384
             G0:      -0.001973044109
   RMS gradient:       0.000006788694
MG BCs: +ve charge blocks (gridpoints):     25061 (   17128708).
MG BCs: -ve charge blocks (gridpoints):      8568 (    1101579).
MG BCs:     Elided blocks (gridpoints):    190171 (  192473258).
MG BCs: Computational effort saved:  99.9840%.
MG BCs: Charge after coarse-graining:           -9.0006651.
MG DL_MG: Calling solver with defect correction order = 8
MG DL_MG: Solver finished
MG Hartree energy from (\int phi*rho dr):              1257.550534
MG Hartree energy from (\int eps (grad phi)^2 dr):     1256.916488
MG Discrepancy due to finite box and discretization:     -0.634046 (  -0.05042%)
MG Correction to account for finite box:                  0.456155
MG Remaining discrepancy, due to discretization:         -0.177891 (  -0.01415%)
     Trial step:       0.559727570974
             Q1:  -11715.556056140922
 Quadratic coef:       0.000205503648
 Linear coef   :      -0.001104367186
           Qmin:  -11715.556640982049
Quadratic minimum step length (  1.503975161043) accepted
    Initial Ne1:    7234.00005245
      Final Ne1:    7234.00000000

=================== Penalty functional idempotency correction ==================
 RMS occupancy error at iteration   1:  0.000021 (step -0.4990 Ne1=   7234.0000)
            Final RMS occupancy error   :  0.000000 (Ne1=   7234.0000)
               Final occupancy bounds   : [ -0.0000,  1.0000]
================================================================================

    8        -1.171555515728E+04     6.7887E-06     6.1402E-06    -7.1324E-04
MG BCs: +ve charge blocks (gridpoints):     25061 (   17128562).
MG BCs: -ve charge blocks (gridpoints):      8567 (    1101648).
[...]

    7        -1.174968668972E+04     1.4285E-08     1.2920E-08    -6.2864E-09

Reusing previously generated solute cavity.
MG BCs: +ve charge blocks (gridpoints):     29233 (   19325419).
MG BCs: -ve charge blocks (gridpoints):      8554 (    1070293).
MG BCs:     Elided blocks (gridpoints):    185999 (  190307833).
MG BCs: Computational effort saved:  99.9821%.
MG BCs: Charge after coarse-graining:           -9.0009780.
MG DL_MG: Calling solver with defect correction order = 8
MG DL_MG: Solver finished
MG Hartree energy from (\int phi*rho dr):              1215.817806
MG Hartree energy from (\int eps (grad phi)^2 dr):     1215.634342
MG Discrepancy due to finite box and discretization:     -0.183464 (  -0.01509%)
MG Correction to account for finite box:                  0.006186
MG Remaining discrepancy, due to discretization:         -0.177278 (  -0.01458%)
      ideal mu1:      -0.481710127237
             Q0:  -11749.686689725262
             G0:      -0.000000009225
   RMS gradient:       0.000000011090

Reusing previously generated solute cavity.
MG BCs: +ve charge blocks (gridpoints):     29233 (   19325419).
MG BCs: -ve charge blocks (gridpoints):      8554 (    1070293).
MG BCs:     Elided blocks (gridpoints):    185999 (  190307833).
MG BCs: Computational effort saved:  99.9821%.
MG BCs: Charge after coarse-graining:           -9.0009780.
MG DL_MG: Calling solver with defect correction order = 8
MG DL_MG: Solver finished
MG Hartree energy from (\int phi*rho dr):              1215.817848
MG Hartree energy from (\int eps (grad phi)^2 dr):     1215.634384
MG Discrepancy due to finite box and discretization:     -0.183464 (  -0.01509%)
MG Correction to account for finite box:                  0.006186
MG Remaining discrepancy, due to discretization:         -0.177278 (  -0.01458%)
     Trial step:       0.312252250322
             Q1:  -11749.686689728522
 Quadratic coef:      -0.000000000378
 Linear coef   :      -0.000000002880
         Quadratic fit unsuccessful: proceeding to cubic fit

Reusing previously generated solute cavity.
MG BCs: +ve charge blocks (gridpoints):     29233 (   19325419).
MG BCs: -ve charge blocks (gridpoints):      8554 (    1070293).
MG BCs:     Elided blocks (gridpoints):    185999 (  190307833).
MG BCs: Computational effort saved:  99.9821%.
MG BCs: Charge after coarse-graining:           -9.0009780.
MG DL_MG: Calling solver with defect correction order = 8
MG DL_MG: Solver finished
MG Hartree energy from (\int phi*rho dr):              1215.817890
MG Hartree energy from (\int eps (grad phi)^2 dr):     1215.634425
MG Discrepancy due to finite box and discretization:     -0.183464 (  -0.01509%)
MG Correction to account for finite box:                  0.006186
MG Remaining discrepancy, due to discretization:         -0.177278 (  -0.01458%)
             Q2:  -11749.686689729802
  Cubic LS coeff:       0.564887393641
Predicted energy:  -11749.686689729895
Cubic minimum step length accepted
    Initial Ne1:    7234.00000000
      Final Ne1:    7234.00000000

=================== Penalty functional idempotency correction ==================
 RMS occupancy error at iteration   1:  0.000000 (step -0.5000 Ne1=   7234.0000)
            Final RMS occupancy error   :  0.000000 (Ne1=   7234.0000)
               Final occupancy bounds   : [  0.0000,  1.0000]
================================================================================

    8        -1.174968668973E+04     1.1090E-08     1.0031E-08    -1.7462E-09

Reusing previously generated solute cavity.
MG BCs: +ve charge blocks (gridpoints):     29233 (   19325419).
MG BCs: -ve charge blocks (gridpoints):      8554 (    1070293).
MG BCs:     Elided blocks (gridpoints):    185999 (  190307833).
MG BCs: Computational effort saved:  99.9821%.
MG BCs: Charge after coarse-graining:           -9.0009780.
MG DL_MG: Calling solver with defect correction order = 8
MG DL_MG: Solver finished
MG Hartree energy from (\int phi*rho dr):              1215.817882
MG Hartree energy from (\int eps (grad phi)^2 dr):     1215.634417
MG Discrepancy due to finite box and discretization:     -0.183464 (  -0.01509%)
MG Correction to account for finite box:                  0.006186
MG Remaining discrepancy, due to discretization:         -0.177278 (  -0.01458%)
      ideal mu1:      -0.481710220107
             Q0:  -11749.686689729686
             G0:      -0.000000004647
   RMS gradient:       0.000000015088

Reusing previously generated solute cavity.
MG BCs: +ve charge blocks (gridpoints):     29233 (   19325420).
MG BCs: -ve charge blocks (gridpoints):      8554 (    1070293).
MG BCs:     Elided blocks (gridpoints):    185999 (  190307832).
MG BCs: Computational effort saved:  99.9821%.
MG BCs: Charge after coarse-graining:           -9.0009780.
MG DL_MG: Calling solver with defect correction order = 8
MG DL_MG: Solver finished
MG Hartree energy from (\int phi*rho dr):              1215.817926
MG Hartree energy from (\int eps (grad phi)^2 dr):     1215.634462
MG Discrepancy due to finite box and discretization:     -0.183464 (  -0.01509%)
MG Correction to account for finite box:                  0.006186
MG Remaining discrepancy, due to discretization:         -0.177278 (  -0.01458%)
     Trial step:       0.419984951925
             Q1:  -11749.686689730734
 Quadratic coef:       0.000000000904
 Linear coef   :      -0.000000001951
           Qmin:  -11749.686689730739
Quadratic minimum step length (  0.453292876893) accepted
    Initial Ne1:    7234.00000000
      Final Ne1:    7234.00000000

=================== Penalty functional idempotency correction ==================
 RMS occupancy error at iteration   1:  0.000000 (step -0.5000 Ne1=   7234.0000)
            Final RMS occupancy error   :  0.000000 (Ne1=   7234.0000)
               Final occupancy bounds   : [  0.0000,  1.0000]
================================================================================

    9        -1.174968668973E+04     1.5088E-08     1.3647E-08    -4.4238E-09

Reusing previously generated solute cavity.
MG BCs: +ve charge blocks (gridpoints):     29233 (   19325420).
MG BCs: -ve charge blocks (gridpoints):      8554 (    1070293).
MG BCs:     Elided blocks (gridpoints):    185999 (  190307832).
MG BCs: Computational effort saved:  99.9821%.
MG BCs: Charge after coarse-graining:           -9.0009780.
MG DL_MG: Calling solver with defect correction order = 8
MG DL_MG: Solver finished
MG Hartree energy from (\int phi*rho dr):              1215.817930
MG Hartree energy from (\int eps (grad phi)^2 dr):     1215.634466
MG Discrepancy due to finite box and discretization:     -0.183464 (  -0.01509%)
MG Correction to account for finite box:                  0.006186
MG Remaining discrepancy, due to discretization:         -0.177278 (  -0.01458%)
      ideal mu1:      -0.481710262321
   10        -1.174968668973E+04     2.4928E-08     2.2547E-08    -9.3132E-10
Finished density kernel iterations (  10)

Writing density kernel to file "complex_29741.dkn" ... done


>>> Density kernel optimised for the current NGWF basis:
     ~~~~~~~~~~~~~~~~~~~~~~~~~~~~~~~~~~~~~~~~~~~~~~~~~~~~~~~~~~~
     Total energy                =  -1.17496866897306E+04  Eh
     Estimated bandgap           =   8.8402E-02  Eh
     RMS occupancy error         =   3.2387E-16
     [H,K] commutator            =   2.2547E-08
     Occupancy bounds            = [  0.000:  1.000]
     ~~~~~~~~~~~~~~~~~~~~~~~~~~~~~~~~~~~~~~~~~~~~~~~~~~~~~~~~~~~




################################################################################
########################### NGWF CG iteration  004 #############################
################################################################################
****** Reciprocal space K.E. preconditioning with k_zero =  3.5000 a0^-1 *******

>>> Checking for convergence of NGWFs: 
           ........................................................
           |         *** NGWF optimisation converged ***          |
           | RMS NGWF gradient =    0.00000190687699              |
           | Criteria satisfied:                                  |
           | -> RMS NGWF gradient lower than set threshold.       |
           ========================================================

Reusing previously generated solute cavity.
MG BCs: +ve charge blocks (gridpoints):     29233 (   19325420).
MG BCs: -ve charge blocks (gridpoints):      8554 (    1070293).
MG BCs:     Elided blocks (gridpoints):    185999 (  190307832).
MG BCs: Computational effort saved:  99.9821%.
MG BCs: Charge after coarse-graining:           -9.0009780.
MG DL_MG: Calling solver with defect correction order = 8
MG DL_MG: Solver finished
MG Hartree energy from (\int phi*rho dr):              1215.817930
MG Hartree energy from (\int eps (grad phi)^2 dr):     1215.634466
MG Discrepancy due to finite box and discretization:     -0.183464 (  -0.01509%)
MG Correction to account for finite box:                  0.006186
MG Remaining discrepancy, due to discretization:         -0.177278 (  -0.01458%)

================================================================================
           ---------------- ENERGY COMPONENTS (Eh) ----------------
           | Kinetic                    :     8581.63538333923316 |
           | Pseudo. (local,OBC,corr'd) :    -5083.20436556854474 |
           | Pseudopotential (non-local):     1411.62214745375377 |
           | Hartree (molecular)        :     1215.81792998451078 |
           | Exchange-correlation       :    -3377.18461184168109 |
           | Ion-ion (open BC)          :   838129.44126949808560 |
           | Dispersion Correction      :       -3.27846621040645 |
           | Smeared ion non-self corr. :  -838081.24996510951314 |
           | Smeared ion self corr.     :   -14543.93950988473262 |
           | Solvent cavitation energy  :        2.32499727356215 |
           | Solute-solvent dis-rep en. :       -1.67149866489567 |
           | Total                      :   -11749.68668973062267 |
           --------------------------------------------------------
           ------ LOCAL ENERGY COMPONENTS FROM MATRIX TRACES ------
           | Pseudopotential (local)    :    -5083.20436556854747 |
           | Hartree                    :    -2004.00568089365493 |
           --------------------------------------------------------
           Integrated density           :     7233.99999999884221
           Integrated density tr(KS)    :     7234.00000000000091
================================================================================


                        <<<<< CALCULATION SUMMARY >>>>>                         
|ITER|    RMS GRADIENT   |     TOTAL ENERGY    |   step   |     Epredicted              
   0     0.00003928431993 -11749.62379589560442   0.631833 -11749.67797381308446        
   1     0.00000981261408 -11749.68610811827239   0.090009 -11749.68658966243675        
   2     0.00000430236860 -11749.68667056842241   0.016254 -11749.68668728588273        
   3     0.00000190687699 -11749.68668973061722  <-- CG                                 

=================== Finished the calculation in solvent ========================
= Adjusting the following parameters: 
= read_denskern: F
= read_tightbox_ngwfs: F
= maxit_pen: 0 (restored to user-specified value)
= restart read filename prefix: ""
= restart write filename prefix: ""
================================================================================

================================================================================
IS: Calculation in solvent completed (NGWFs converged).      

Individual components of total energy in solvent:     hartree           kcal/mol
- Usual non-electrostatic DFT terms:    -12966.15811832379586    -8136386.884929
- Electrostatic fixed charge energy:      1215.81792998451078      762937.253249
- Apolar cavitation energy:                  2.32499727356215        1458.957785
- Apolar dispersion-repulsion energy:       -1.67149866489567       -1048.881225
 -------------------------------------------------------------------------------
- Total energy in solvent:              -11749.68668973061722    -7373039.555120

Components of total energy in solvent:                hartree           kcal/mol
- Usual non-electrostatic DFT terms:    -12966.15811832379586    -8136386.884929
- Electrostatic energy:                   1215.81792998451078      762937.253249
- Apolar energy terms:                       0.65349860866648         410.076559
 -------------------------------------------------------------------------------
- Total energy in solvent:              -11749.68668973061722    -7373039.555120

Calculation of free energy of solvation:              hartree           kcal/mol
- Total energy in solvent:         (+)  -11749.68668973061722    -7373039.555120
- Total energy in vacuum:          (-)  -11745.75041470269207    -7370569.505301
 -------------------------------------------------------------------------------
- Total free energy of solvation:           -3.93627502792515       -2470.049819

Components of polar term in f.e. of solvation:        hartree           kcal/mol
- Electrostatic:                            -4.75961782235731       -2986.705212
- Change in nonelectrostatic DFT terms:      0.16984418576430         106.578833
 -------------------------------------------------------------------------------
- Polar term in f.e. of solvation:          -4.58977363659301       -2880.126378

Components of free energy of solvation:               hartree           kcal/mol
- Polar term in f.e. of solvation: (+)      -4.58977363659301       -2880.126378
- Apolar (cavitation, dis., rep.): (+)       0.65349860866648         410.076559
 -------------------------------------------------------------------------------
- Total free energy of solvation:           -3.93627502792653       -2470.049819
================================================================================


------------------------------ TIMING INFORMATION ------------------------------
AVERAGE TIME:   34527.716s on     60 node(s)                                    
TOTAL TIME:     34527.717s on     60 node(s)                                    
================= AVERAGE TIMINGS FROM ALL NODES (CUMULATIVE) ==================
|| TAG                                    #calls    cpu time   %total  Gflops ||
|| work_imbalance                       :     1        0.00s   0.000%  ------ ||
|| sparse_set_to_garbage                :   176        0.03s   0.000%  ------ ||
|| parallel_prepare_fd_halos_request    :  1953        0.03s   0.000%  ------ ||
|| parallel_prepare_fd_halos_alloc      :  1953        0.09s   0.000%  ------ ||
|| ngwfs_initialise_from_radial         :     1        0.11s   0.000%  ------ ||
|| basis_extract_function_from_box      :  3598        0.16s   0.000%  ------ ||
|| parallel_prepare_fd_halos_satisfy    :  1953        0.61s   0.002%  ------ ||
|| pseudopotentials_nonlocal_mat        :    30        1.33s   0.004%  ------ ||
|| openbc_locps_radial                  :     1        3.07s   0.009%  ------ ||
|| density_init_guess_real              :     1        3.82s   0.011%  ------ ||
|| restart_kernel_read                  :     1        4.52s   0.013%  ------ ||
|| restart_ngwfs_tightbox_input         :     1        8.98s   0.026%  ------ ||
|| parallel_prepare_fd_halos_comms_imbal:  1953        9.23s   0.027%  ------ ||
|| parallel_prepare_fd_halos_clear      :  1953       20.62s   0.060%  ------ ||
|| sparse_init                          :     2       22.36s   0.065%  ------ ||
|| projectors_func_ovlp_box             :    30       28.77s   0.083%  ------ ||
|| parallel_prepare_fd_halos_comms_wait :  1953       29.34s   0.085%  ------ ||
|| projectors_init_fftbox_recip         :   142       29.44s   0.085%  ------ ||
|| function_ops_brappd_ketppd           :    30       30.46s   0.088%  ------ ||
|| palser_mano_kernel_optimise          :     1       38.92s   0.113%  ------ ||
|| basis_copy_function_to_box           : 58559       44.28s   0.128%  ------ ||
|| ngwf_gradient_coeffs                 :    16       49.29s   0.143%  ------ ||
|| pseudo_make_structure_factor         :     2       54.67s   0.158%  ------ ||
|| fourier_apply_box_pair               :  5139       56.91s   0.165% 593.111 ||
|| parallel_prepare_fd_halos            :  1953       59.94s   0.174%  ------ ||
|| sparse_embed_hotelling_invert_embed  :    30       76.99s   0.223%  ------ ||
|| restart_kernel_write                 :    17      112.69s   0.326%  ------ ||
|| finite_difference_derivative         :  1953      137.65s   0.399%  ------ ||
|| integrals_kinetic                    :    30      155.92s   0.452%  ------ ||
|| sparse_trace                         :  5155      165.76s   0.480%  ------ ||
|| basis_dot_function_with_box          : 8.974M     169.67s   0.491%  ------ ||
|| projectors_gradient_batch            :   112      181.84s   0.527%  ------ ||
|| fourier_apply_cell_backward          :  1303      202.44s   0.586%  96.104 ||
|| fourier_apply_cell_forward           :  1301      232.31s   0.673%  83.618 ||
|| openbc_locps_on_grid                 :     2      284.50s   0.824%  ------ ||
|| kernel_purify                        :   496      299.32s   0.867%  ------ ||
|| basis_add_function_to_box            : 18.76M     400.51s   1.160%  ------ ||
|| lnv_gradient_norm                    :   160      435.28s   1.261%  ------ ||
|| kernel_fix                           :   160      498.15s   1.443%  ------ ||
|| xc_energy_potential                  :   325      506.59s   1.467%  ------ ||
|| hamiltonian_energy_components        :     4      544.15s   1.576%  ------ ||
|| integrals_locpot_mat_els_batch       :  1183      727.90s   2.108%  ------ ||
|| ngwf_gradient_build_batch            :   112      837.72s   2.426%  ------ ||
|| restart_ngwfs_tightbox_output        :    14     1064.08s   3.082%  ------ ||
|| ngwf_gradient_batch                  :   112     1142.00s   3.307%  ------ ||
|| ngwf_gradient_lnv                    :    16     1278.99s   3.704%  ------ ||
|| density_batch_row_sums               :  2268     1314.33s   3.807%  ------ ||
|| cell_grid_deposit_box_real           : 37636     1368.69s   3.964%  ------ ||
|| sparse_product                       :  6578     1846.41s   5.348%  ------ ||
|| cell_grid_extract_box_real           : 41150     2213.04s   6.409%  ------ ||
|| density_fftbox_deposit_to_cell       : 35640     2220.86s   6.432%  ------ ||
|| density_fftbox_interpolate_multiply  : 35640     4065.27s  11.774%  ------ ||
|| potential_apply_to_ngwf_batch        :  1183     4105.46s  11.890%  ------ ||
|| integrals_locpot_dbl_grid            :   169     4854.63s  14.060%  ------ ||
|| fourier_apply_box                    : 122.4k    4898.98s  14.189% 794.956 ||
|| multigrid_prepare_bound_cond         :   325     5261.80s  15.239%  ------ ||
|| density_batch_interp_deposit         :  2268     7297.71s  21.136%  ------ ||
|| dl_mg_solver_calls                   :   325     8759.55s  25.370%  ------ ||
|| density_on_dbl_grid                  :   324     8891.28s  25.751%  ------ ||
|| multigrid_calculate_hartree          :   325    14206.19s  41.144%  ------ ||
|| hamiltonian_lhxc_calculate           :   320    23538.78s  68.174%  ------ ||
|| lnv_denskernel_optimise_cg           :    16    29160.36s  84.455%  ------ ||
|| ngwf_cg_optimise                     :     2    33483.76s  96.976%  ------ ||
|| total_time                           :     1    34527.72s 100.000%  ------ ||
================================================================================
Overhead of generating timer report: 
- 0 ms averaging over threads,
- 15 ms ensuring consistency across MPI ranks,
- 0 ms printing in order.

Job completed: 07-05-2020 16:34 (+0100)

Application 40515694 resources: utime ~7107565s, stime ~349591s, Rss ~4224464, inblocks ~343175933, outblocks ~69217526
