 +---------------------------------------------------------------+
 |                                                               |
 |        ####### #     # ####### ####### ####### ######         |
 |        #     # ##    # #          #    #       #     #        |
 |        #     # # #   # #          #    #       #     #        |
 |        #     # #  #  # #####      #    #####   ######         |
 |        #     # #   # # #          #    #       #              |
 |        #     # #    ## #          #    #       #              |
 |        ####### #     # #######    #    ####### #              |
 |                                                               |
 |        Linear-Scaling Ab Initio Total Energy Program          |
 |                                                               |
 |          Release for academic collaborators of ODG            |
 |                                             Version 5.3.2.6.  |
 |                                                               |
 +---------------------------------------------------------------+
 |                                                               |
 |  Authors:                                                     |
 |  Jacek Dziedzic, Peter D. Haynes, Nicholas D. M. Hine,        |
 |  Arash. A. Mostofi, Mike C. Payne and Chris-Kriton Skylaris   |
 |                                                               |
 |  Contributors:                                                |
 |  J. Aarons, L. Andrinopoulos, P. W. Avraam, R. A. Bell,       |
 |  A. Bhandari, G. A. Bramley, R. J. Charlton, S. J. Clark,     |
 |  R. J. Clements, G. C. Constantinescu, F. Corsetti,           |
 |  N. Corsini, O. Dieguez, S. M. M. Dubois, K. K. B. Duff,      |
 |  J. M. Escartin, A. Greco, H. Helal, Q. O. Hill, L. P. Lee,   |
 |  J.-H. Li, E. B. Linscott, G. Moynihan, D. D. O`Regan,        |
 |  O. K. Okan, M. J. S. Phipps, C. J. Pickard,                  |
 |  J. C. A. Prentice, M. I. J. Probert, L. E. Ratcliff,         |
 |  M. Robinson, A. Ruiz Serrano, J. S. Spencer, E. W. Tait,     |
 |  G. Teobaldi, D. Turban, V. Vitale, K. A. Wilkinson,          |
 |  C. Weber, J. C. Womack, N. Yeung and T. J. Zuehlsdorff       |
 |                                                               |
 |                                   Copyright (c) 2004-2019     |
 |                                                               |
 |  Please cite:                                                 |
 |  "Introducing ONETEP: Linear-scaling density functional       |
 |   simulations on parallel computers".                         |
 |   C.-K. Skylaris, P. D. Haynes, A. A. Mostofi, M. C. Payne.   |
 |   J. Chem. Phys. 122 084119 (2005).                           |
 |                                                               |
 |          in all publications arising from your use of ONETEP. |
 |                                                               |
 +---------------------------------------------------------------+
 |                                                               |
 |   ONETEP is based on developments described in the following  |
 |   publications:                                               |
 |                                                               |
 |  "Nonorthogonal generalized Wannier function pseudopotential  |
 |   plane-wave method".                                         |
 |   C.-K. Skylaris, A. A. Mostofi, P. D. Haynes, O. Dieguez,    |
 |   M. C. Payne.                                                |
 |   Phys. Rev. B 66 035119 (2002).                              |
 |                                                               |
 |  "Preconditioned iterative minimization for linear-scaling    |
 |   electronic structure calculations".                         |
 |   A. A. Mostofi, P. D. Haynes, C.-K. Skylaris, M. C. Payne.   |
 |   J. Chem. Phys. 119(17), pp.8842-8848 (2003).                |
 |                                                               |
 |  "Total-energy calculations on a real space grid with         |
 |   localized functions and a plane-wave basis".                |
 |   A. A. Mostofi, C.-K. Skylaris, P. D. Haynes, M. C. Payne.   |
 |   Comput. Phys. Commun. 147, pp.788-802 (2002).               |
 |                                                               |
 |  "Accurate kinetic energy evaluation in electronic structure  |
 |   calculations with localized functions on real space grids"  |
 |   C.-K. Skylaris, A. A. Mostofi, P. D. Haynes, C. J. Pickard, |
 |   M. C. Payne.                                                |
 |   Comput. Phys. Commun. 140, pp.315-322 (2001).               |
 |                                                               |
 |  "Accurate ionic forces and geometry optimization in linear-  |
 |   scaling density-functional theory with local orbitals"      |
 |   N. D. M. Hine, M. Robinson, P. D. Haynes, C.-K. Skylaris,   |
 |   M. C. Payne, and A. A. Mostofi.                             |
 |   Phys. Rev. B 83 195102 (2011).                              |
 |                                                               |
 +---------------------------------------------------------------+

Job started: 15-06-2020 19:18 (+0100)
 
Reading parameters from file "complex_4661.dat" ...... done

If your calculation crashes here, before "Checking processes and threads..."
is displayed, then your stack size is insufficient.
If so, use "ulimit -s unlimited" at runtime.
You can disable this check with "check_stack_size F".

Checking processes and threads...
   Determining the default number of threads...
      No default threads set at compilation time: defaulting to 1.
      OpenMP library call suggests 4 threads.
      Hybrid MPI-OpenMP compilation detected.
      Number of MPI processes > 1.
      OMP_NUM_THREADS environment variable present and
      its value matches the one obtained from the OpenMP library call.
      Using this value as default.
      Default threads: 4
      Default applies to threads_max and threads_num_fftboxes.
      Settings in the input file override this default.
   ... done

   Running with 60 MPI processes.
   There are 6 MPI processes running on the same node as the root process.
   Each MPI process is using: 
               1 threads for simulation cell FFTs.
               1 threads for parallel FFT box operations.
               4 threads for loops over batched FFT box operations.
               4 threads in other parallel regions.
... done

Basic input checks...... done

Reading geometry and species blocks from file "complex_4661.dat" ...
  <species_atomic_set> block not found: NGWF initialisation set to SOLVE
IS: Dielectric excluded regions:
    - NONE.
    
  Number of PPD points along a3 set to 1.  This is 
  the default value, it may have been provided also in the input file.
... done
 Writing xyz coordinates to file "complex_4661.xyz" ... done


--------------------------------------------------------------------------------
---------------------------------- INPUT FILE ----------------------------------
--------------------------------------------------------------------------------

cutoff_energy       : 800 eV                                                    
xc_functional PBE                                                               
task SINGLEPOINT                                                                
write_xyz true                                                                  
output_detail VERBOSE                                                           
ngwf_threshold_orig : 0.000002                                                  
kernel_cutoff       : 1000                                                      
k_zero              : 3.5                                                       
elec_cg_max 0                                                                   
occ_mix 1.0                                                                     
dispersion 1                                                                    
maxit_ngwf_cg 40                                                                
minit_lnv 10                                                                    
maxit_lnv 10                                                                    
write_denskern T                                                                
write_tightbox_ngwfs T                                                          
charge 9                                                                        
is_implicit_solvent T                                                           
is_auto_solvation T                                                             
is_include_apolar T                                                             
is_smeared_ion_rep T                                                            
is_solvent_surf_tension 4.7624E-5 Ha/bohr**2                                    
is_apolar_scaling_factor 0.281075                                               
is_solvation_beta 1.3                                                           
is_density_threshold 0.00035                                                    
is_bulk_permittivity 78.54                                                      
is_dielectric_model fix_initial                                                 
is_smeared_ion_width 0.8                                                        
mg_defco_fd_order 8                                                             
is_bc_coarseness 10                                                             
is_bc_surface_coarseness 1                                                      
fine_grid_scale 2.0                                                             
%block species                                                                  
N   N   7 4 8.0                                                                 
H   H   1 1 8.0                                                                 
C   C   6 4 8.0                                                                 
S   S  16 9 8.0                                                                 
O   O   8 4 8.0                                                                 
%endblock species                                                               
%block species_pot                                                              
N   N_00.recpot                                                                 
H   H_04.recpot                                                                 
C   C_01.recpot                                                                 
S   S_00.recpot                                                                 
O   O_02.recpot                                                                 
%endblock species_pot                                                           
%block lattice_cart                                                             
142.669   0.000   0.000                                                         
0.000 146.65   0.000                                                            
0.000   0.000   162.396                                                         
%endblock lattice_cart                                                          
%block positions_abs                                                            
     Hash =  -000002858245075207966249
%endblock positions_abs                                                         

--------------------------------------------------------------------------------
-------------------------------- END INPUT FILE --------------------------------
--------------------------------------------------------------------------------


 
 ESDF WARNING(1): "kernelcutoff" (esdf_physical) has no units. Assume "bohr".
 ESDF WARNING(2): "kzero" (esdf_physical) has no units. Assume "1/bohr".
 ESDF WARNING(3
 ): "issmearedionwidth" (esdf_physical) has no units. Assume "bohr".
<<<<<<<<<<<<<<<<<<<<<<<<<<<<<<<<< Full system >>>>>>>>>>>>>>>>>>>>>>>>>>>>>>>>>>
<<<<<<<<<<<<<<<<<<<<<<<<< Pseudopotential information >>>>>>>>>>>>>>>>>>>>>>>>>>
File: N_00.recpot [ 2001 points up to Gmax=  52.9 (1/bohr)]
  Atomic number:  7;  ionic charge:  5.000000
    Shell 1: l = 0; rc = 1.48 bohr
File: H_04.recpot [ 2001 points up to Gmax=  52.9 (1/bohr)]
  Atomic number:  1;  ionic charge:  1.000000
    Local potential
File: C_01.recpot [ 2001 points up to Gmax=  52.9 (1/bohr)]
  Atomic number:  6;  ionic charge:  4.000000
    Shell 1: l = 0; rc = 1.48 bohr
File: S_00.recpot [ 2001 points up to Gmax=  52.9 (1/bohr)]
  Atomic number: 16;  ionic charge:  6.000000
    Shell 1: l = 0; rc = 1.90 bohr
    Shell 2: l = 2; rc = 1.84 bohr
File: O_02.recpot [ 2001 points up to Gmax=  52.9 (1/bohr)]
  Atomic number:  8;  ionic charge:  6.000000
    Shell 1: l = 0; rc = 1.31 bohr
<<<<<<<<<<<<<<<<<<<<<<<<<<<<<<<<<<<<<<<<>>>>>>>>>>>>>>>>>>>>>>>>>>>>>>>>>>>>>>>>

-------------------------- Atom counting information ---------------------------
Symbol    Natoms    Nngwfs    Nprojs
  N        236       944       236
  H       1317      1317         0
  C        816      3264       816
  S          6        54        36
  O        241       964       241
.......   ......    ......    ......
Totals:   2616      6543      1329
--------------------------------------------------------------------------------

=============================== PSINC grid sizes ===============================
                      Simulation cell:  286 x 294 x 320
                              FFT-box:  105 x 105 x  99
                                  PPD:   11 x   6 x   1
Grid space d1=  0.498842657343a0 (KE cutoff=  30.52649Eh = 830.66799eV)
Grid space d2=  0.498809523810a0 (KE cutoff=  30.53054Eh = 830.77835eV)
Grid space d3=  0.507487500000a0 (KE cutoff=  29.49533Eh = 802.60885eV)
================================================================================

********************* Fourier parallelisation information **********************
       Coarse grid (whole simulation cell) dimensions:    286   294   320
          Real-space ('12') slabs/node (min max mean):      5     6     5
         Recip-space ('23') slabs/node (min max mean):      2     3     2
********************************************************************************

********************* Fourier parallelisation information **********************
       Double grid (whole simulation cell) dimensions:    572   588   640
          Real-space ('12') slabs/node (min max mean):     10    11    10
         Recip-space ('23') slabs/node (min max mean):      4     5     4
********************************************************************************
ONETEP fine grid is 572 x 588 x 640 gridpoints, 142.6690 x 146.6500 x 162.3960 bohr.
FD multigrid is     569 x 585 x 633 gridpoints, 141.9207 x 145.9018 x 160.6198 bohr.


Calculating local pseudopotential in open BC on a radial grid ...
Discrepancy between calculated realspace psloc and -Z/x on [5a0,261.215a0]:
max |rel. diff| # avg |rel. diff| #  avg rel. diff #  f # pseudopotential file
 0.000261901569    0.000004963664   0.000000071970   55  'N_00.recpot'
 0.000422260137    0.000017549664  -0.000000063361   55  'H_04.recpot'
 0.000361991046    0.000016543264   0.000000134927   55  'C_01.recpot'
 0.000447743184    0.000019132268   0.000000438157   55  'S_00.recpot'
 0.000711628927    0.000028437426   0.000000135877   55  'O_02.recpot'
... done

Atom SCF Calculation for N  : Z (AE atom) =   7 : Z (PS atom) =   5
Config String:
Orbitals (num,occ):  2     2.00 3.00
Orbitals   (num,l):  2        0    1
Real-space Grid (nr,dr,rmax): 1203    0.0066555740    8.0000000000
Spherical Bessel Basis (nsws,lmax,cutoff):   47    1  176.3951722778
Confining potential (l,width,scale):  0    3.0000000000  100.0000000000
Confining potential (l,width,scale):  1    3.0000000000  100.0000000000
  1         -4.7312375307   -3.4155304497    7.0523828109   -1.9351020946
  2         -9.7309464766   -2.0532547791    8.2966052865   -2.2494486027
  3         -9.6627394379   -2.1124926340    8.2327997121   -2.2369778124
  4         -9.6814993499   -2.1215521045    8.2229805960   -2.2365178421
  5         -9.6843326483   -2.1250939529    8.2191374534   -2.2362718126
  6         -9.6859628709   -2.1267894855    8.2172963573   -2.2362066344
  7         -9.6867347035   -2.1276425665    8.2163697352   -2.2361903369
  8         -9.6870802100   -2.1280764625    8.2158983890   -2.2361891460
  9         -9.6872290423   -2.1282977424    8.2156580222   -2.2361920435
 10         -9.6872901988   -2.1284107021    8.2155353368   -2.2361953393
 11         -9.6873135296   -2.1284684031    8.2154726809   -2.2361979819
 12         -9.6873212476   -2.1284978948    8.2154406648   -2.2361998431
 13         -9.6873229586   -2.1285129774    8.2154242957   -2.2362010676
 14         -9.6873226456   -2.1285206957    8.2154159216   -2.2362018403
 15         -9.6873218534   -2.1285246479    8.2154116349   -2.2362023142
 16         -9.6873212599   -2.1285262679    8.2154098784   -2.2362025420
 17         -9.6873207834   -2.1285272564    8.2154088068   -2.2362026955
 18         -9.6873204210   -2.1285278596    8.2154081529   -2.2362027982
 19         -9.6873201550   -2.1285282280    8.2154077538   -2.2362028667
 20         -9.6873199645   -2.1285284529    8.2154075102   -2.2362029121
 21         -9.6873198305   -2.1285285903    8.2154073614   -2.2362029421
 22         -9.6873197377   -2.1285286742    8.2154072705   -2.2362029618
Atom SCF converged after  22 iterations to a total energy of     -9.68731974

Atom SCF Calculation for H  : Z (AE atom) =   1 : Z (PS atom) =   1
Config String:
Orbitals (num,occ):  1     1.00
Orbitals   (num,l):  1        0
Real-space Grid (nr,dr,rmax): 1203    0.0066555740    8.0000000000
Spherical Bessel Basis (nsws,lmax,cutoff):   47    0  176.3951722778
Confining potential (l,width,scale):  0    3.0000000000  100.0000000000
  1         -0.3194257691   -0.2393854593    0.2820953124   -0.2424203209
  2         -0.3951823392   -0.2377116493    0.2886404059   -0.2475147891
  3         -0.4317044583   -0.2352244387    0.2921333887   -0.2514046172
  4         -0.4470703708   -0.2341892222    0.2934391879   -0.2531009782
  5         -0.4532132900   -0.2338556667    0.2938388426   -0.2537313520
  6         -0.4556579251   -0.2337612552    0.2939448584   -0.2539550462
  7         -0.4566418315   -0.2337377355    0.2939680120   -0.2540342273
  8         -0.4570437922   -0.2337331116    0.2939708287   -0.2540627372
  9         -0.4572102946   -0.2337328328    0.2939698291   -0.2540732650
 10         -0.4572800424   -0.2337332404    0.2939687193   -0.2540772588
 11         -0.4573095100   -0.2337335791    0.2939680317   -0.2540788122
 12         -0.4573220379   -0.2337337762    0.2939676699   -0.2540794294
 13         -0.4573273880   -0.2337338775    0.2939674931   -0.2540796787
 14         -0.4573296803   -0.2337339266    0.2939674099   -0.2540797808
 15         -0.4573306647   -0.2337339495    0.2939673718   -0.2540798230
 16         -0.4573310882   -0.2337339601    0.2939673545   -0.2540798406
 17         -0.4573312706   -0.2337339649    0.2939673467   -0.2540798479
 18         -0.4573313493   -0.2337339670    0.2939673433   -0.2540798510
Atom SCF converged after  18 iterations to a total energy of     -0.45733135

Atom SCF Calculation for C  : Z (AE atom) =   6 : Z (PS atom) =   4
Config String:
Orbitals (num,occ):  2     2.00 2.00
Orbitals   (num,l):  2        0    1
Real-space Grid (nr,dr,rmax): 1203    0.0066555740    8.0000000000
Spherical Bessel Basis (nsws,lmax,cutoff):   47    1  176.3951722778
Confining potential (l,width,scale):  0    3.0000000000  100.0000000000
Confining potential (l,width,scale):  1    3.0000000000  100.0000000000
  1         -5.2976922011   -1.3069684169    4.5135249990   -1.4493313817
  2         -5.3721716256   -1.3429755895    4.4750154450   -1.4361613026
  3         -5.3809959565   -1.3617365618    4.4541655428   -1.4305930207
  4         -5.3918938866   -1.3667928461    4.4484735100   -1.4294652294
  5         -5.3956096428   -1.3688539142    4.4461376126   -1.4290734646
  6         -5.3968271862   -1.3696852393    4.4451910874   -1.4289366866
  7         -5.3972028401   -1.3700178062    4.4448112275   -1.4288900460
  8         -5.3973067903   -1.3701500158    4.4446598370   -1.4288749220
  9         -5.3973286940   -1.3702023868    4.4445997329   -1.4288704293
 10         -5.3973289850   -1.3702230869    4.4445759233   -1.4288693188
 11         -5.3973254264   -1.3702312560    4.4445665049   -1.4288691775
 12         -5.3973224003   -1.3702344755    4.4445627836   -1.4288692549
 13         -5.3973208708   -1.3702354890    4.4445616088   -1.4288693270
 14         -5.3973198783   -1.3702360102    4.4445610034   -1.4288693814
 15         -5.3973192535   -1.3702362780    4.4445606917   -1.4288694190
 16         -5.3973188684   -1.3702364155    4.4445605313   -1.4288694437
 17         -5.3973186349   -1.3702364860    4.4445604489   -1.4288694595
 18         -5.3973184951   -1.3702365221    4.4445604065   -1.4288694693
 19         -5.3973184122   -1.3702365405    4.4445603848   -1.4288694753
Atom SCF converged after  19 iterations to a total energy of     -5.39731841

Atom SCF Calculation for S  : Z (AE atom) =  16 : Z (PS atom) =   6
Config String:
Orbitals (num,occ):  3     2.00 4.00 0.00
Orbitals   (num,l):  3        0    1    2
Real-space Grid (nr,dr,rmax): 1203    0.0066555740    8.0000000000
Spherical Bessel Basis (nsws,lmax,cutoff):   47    2  176.3951722778
Confining potential (l,width,scale):  0    3.0000000000  100.0000000000
Confining potential (l,width,scale):  1    3.0000000000  100.0000000000
Confining potential (l,width,scale):  2    3.0000000000  100.0000000000
  1        -12.4735062396   -1.0328741412   10.1554312477   -2.4512393157
  2         -9.9458301913   -2.4607392455    8.3041325857   -2.0306994528
  3        -10.1450417646   -2.2931184565    8.4831893826   -2.0812538287
  4        -10.1528335592   -2.2733105793    8.5050388867   -2.0896035179
  5        -10.1571940363   -2.2633716629    8.5160794258   -2.0939370707
  6        -10.1594380571   -2.2584938667    8.5215163935   -2.0961289008
  7        -10.1605856507   -2.2561081821    8.5241804044   -2.0972291378
  8        -10.1611799191   -2.2549395235    8.5254868240   -2.0977806248
  9        -10.1614918752   -2.2543658586    8.5261285885   -2.0980571586
 10        -10.1616572884   -2.2540839121    8.5264441898   -2.0981959233
 11        -10.1617455602   -2.2539453058    8.5265994231   -2.0982656006
 12        -10.1617928447   -2.2538772062    8.5266757320   -2.0983006047
 13        -10.1618182292   -2.2538437891    8.5267131983   -2.0983181961
 14        -10.1618318741   -2.2538274201    8.5267315620   -2.0983270391
 15        -10.1618392144   -2.2538194197    8.5267405433   -2.0983314852
 16        -10.1618431651   -2.2538155200    8.5267449245   -2.0983337210
 17        -10.1618452923   -2.2538136252    8.5267470551   -2.0983348455
 18        -10.1618464380   -2.2538127080    8.5267480875   -2.0983354110
 19        -10.1618470552   -2.2538122659    8.5267485856   -2.0983356955
 20        -10.1618473878   -2.2538120540    8.5267488248   -2.0983358386
 21        -10.1618475670   -2.2538119530    8.5267489389   -2.0983359106
 22        -10.1618476637   -2.2538119053    8.5267489929   -2.0983359468
Atom SCF converged after  22 iterations to a total energy of    -10.16184766

Atom SCF Calculation for O  : Z (AE atom) =   8 : Z (PS atom) =   6
Config String:
Orbitals (num,occ):  2     2.00 4.00
Orbitals   (num,l):  2        0    1
Real-space Grid (nr,dr,rmax): 1203    0.0066555740    8.0000000000
Spherical Bessel Basis (nsws,lmax,cutoff):   47    1  176.3951722778
Confining potential (l,width,scale):  0    3.0000000000  100.0000000000
Confining potential (l,width,scale):  1    3.0000000000  100.0000000000
  1         -1.8735052164   -7.5539365035   10.1554312477   -2.4512393157
  2        -16.0318313751   -3.1285771268   13.6395848164   -3.2358799643
  3        -15.9524020423   -3.0762819706   13.6967272503   -3.2536856837
  4        -15.8521515939   -3.0781493909   13.6951909330   -3.2561700440
  5        -15.8357139793   -3.0748501933   13.6988803334   -3.2580493133
  6        -15.8246052853   -3.0740779781   13.6997881576   -3.2588327446
  7        -15.8189019501   -3.0737449687   13.7001869911   -3.2592378801
  8        -15.8159785510   -3.0736026016   13.7003615168   -3.2594475790
  9        -15.8144776168   -3.0735437994   13.7004360379   -3.2595560735
 10        -15.8137058024   -3.0735207882   13.7004667348   -3.2596122456
 11        -15.8133083127   -3.0735125946   13.7004786868   -3.2596413656
 12        -15.8131032938   -3.0735102195   13.7004828997   -3.2596564858
 13        -15.8129973902   -3.0735099286   13.7004840891   -3.2596643505
 14        -15.8129426040   -3.0735102506   13.7004842061   -3.2596684489
 15        -15.8129142203   -3.0735106556   13.7004840157   -3.2596705887
 16        -15.8128994940   -3.0735109855   13.7004837906   -3.2596717080
 17        -15.8128918425   -3.0735112169   13.7004836103   -3.2596722946
 18        -15.8128878614   -3.0735113674   13.7004834848   -3.2596726026
 19        -15.8128857871   -3.0735114608   13.7004834035   -3.2596727646
 20        -15.8128847048   -3.0735115170   13.7004833533   -3.2596728500
 21        -15.8128841394   -3.0735115501   13.7004833231   -3.2596728951
 22        -15.8128838436   -3.0735115693   13.7004833054   -3.2596729190
 23        -15.8128836887   -3.0735115802   13.7004832951   -3.2596729316
 24        -15.8128836074   -3.0735115864   13.7004832893   -3.2596729383
Atom SCF converged after  24 iterations to a total energy of    -15.81288361

========================== Calculation in vacuum ==============================
= Adjusting the following parameters: 
= is_implicit_solvent: F
= is_include_apolar: F
= write_denskern: T
= write_tightbox_ngwfs: T
= restart read filename prefix: ""
= restart write filename prefix: "vacuum_"
===============================================================================

Determining parallel strategy ...
... using space-filling curve
... NGWF load balancing: max    110;  min    109;  average    109
... Projector load balancing: max     26;  min     21;  average     22
... done
Calculating direct Ion-Ion energy ...
Ion-Ion Energy        :    835959.53481384890620
======================= Empirical dispersion information =======================
Model : Elstner
Dispersion Correction Energy: -0.32923321E+01 Hartree
================================================================================
Basis initialisation ...... NGWF spheres initialised
... Projector spheres initialised
... NGWF tight boxes initialised
... Tight-boxes gathered
... NGWF basis size (local,global):     985239  59015389
... Nonlocal pseudopotential projector initialisation
... done

========================== Sparse matrix information ===========================
                        Overlap matrix filling:   6.76%
                        Density kernel filling: 100.00%
              NGWF-Proj overlap matrix filling:   1.78%
                    Hamiltonian matrix filling:   7.65%
                  NGWF diagonal matrix filling:   0.05%
                             KS matrix filling: 100.00% 
                           KSKS matrix filling: 100.00% 
================================================================================

Sparse matrix initialisation ... done

Generating smeared ion density ... done
Smeared ion self correction:     -14543.939510
Smeared ion non-self correction: -835911.015425
NGWF initialisation ...... done
============ Calculation of NGWF S^-1 using Hotelling algorithm ================ 
         Iteration  |  Frobenius norm and Maximum abs value    (of I-S*S_n^-1)   
               1       0.78729369E+02     0.98273734E+00
               2       0.76888107E+02     0.96590935E+00
               3       0.73902576E+02     0.93348686E+00
               4       0.69651670E+02     0.87314535E+00
               5       0.64347873E+02     0.77022506E+00
               6       0.58376260E+02     0.70477194E+00
               7       0.52357065E+02     0.66866157E+00
               8       0.46794557E+02     0.64266676E+00
               9       0.40748755E+02     0.60138022E+00
              10       0.32529162E+02     0.53550836E+00
              11       0.21983091E+02     0.42900874E+00
              12       0.11334794E+02     0.28280978E+00
              13       0.37938159E+01     0.13155550E+00
              14       0.62059840E+00     0.33624034E-01
              15       0.33012130E-01     0.34308201E-02
              16       0.23515643E-03     0.40604245E-04
              17       0.24142781E-07     0.58864300E-08
              18       0.99154087E-13     0.48849813E-14
================================================================================
Calculating local pseudopotential in open BC on the fine real space grid ...
... done

MG BCs: +ve charge blocks (gridpoints):     20948 (   16391303).
MG BCs: -ve charge blocks (gridpoints):      8090 (    1101980).
MG BCs:     Elided blocks (gridpoints):    194284 (  193210262).
MG BCs: Computational effort saved:  99.9862%.
MG BCs: Charge after coarse-graining:           -9.0002363.
MG DL_MG: Calling solver with defect correction order = 8
MG DL_MG: Solver finished
MG Hartree energy from (\int phi*rho dr):              1470.903381
MG Hartree energy from (\int eps (grad phi)^2 dr):     1470.301853
MG Discrepancy due to finite box and discretization:     -0.601528 (  -0.04090%)
MG Correction to account for finite box:                  0.453745
MG Remaining discrepancy, due to discretization:         -0.147784 (  -0.01005%)
Up spin density kernel initialisation ... 
======= Optimisation of K by Palser-Manolopoulos canonical purification ======== 
         Iteration  |  Band structure energy |    c_n   
               1       -2592.73522391759889    0.5274732
               2       -2769.64834660645465    0.5175537
               3       -2951.61920389638544    0.5156692
               4       -3104.24608829864292    0.5288444
               5       -3198.74625161967106    0.5639163
               6       -3238.68470078827477    0.6088334
               7       -3252.30852955641967    0.6230420
               8       -3258.14409186080320    0.6257440
               9       -3260.93773321470326    0.6431979
              10       -3262.10367354646314    0.6630036
              11       -3262.59027462169479    0.6778379
              12       -3262.81057841427901    0.6822012
              13       -3262.91980383036662    0.6559361
              14       -3262.98378423271379    0.5955397
              15       -3263.02382621368179    0.5254266
              16       -3263.04245042270486    0.4861787
              17       -3263.04618903369283    0.5018719
              18       -3263.04736784864690    0.5075506
              19       -3263.04776407050576    0.5010523
              20       -3263.04782429545003    0.5000085
              21       -3263.04782577263813    0.5000077
              22       -3263.04782577353217    0.5000077
Termination criterion satisfied: band energy change below threshold.
Final occupancy bounds: [    0.00000000000000:    1.00000000000000]
Closest occupancy to 0.5:     1.00000000000000
================================================================================
... done

Writing density kernel to file "complex_4661.vacuum_dkn" ... done

>>> Optimising kernel for current NGWFs:
   Initial electron number for spin 1:    7234.00000000
     Final electron number for spin 1:    7234.00000000

=================== Penalty functional idempotency correction ==================
 RMS occupancy error at iteration   1:  0.000000 (step -0.5000 Ne1=   7234.0000)
            Final RMS occupancy error   :  0.000000 (Ne1=   7234.0000)
               Final occupancy bounds   : [ -0.0000,  1.0000]
================================================================================

................................................................................
<<<<<<<<<<<<<< LNV (Original version) density kernel optimisation >>>>>>>>>>>>>>
~~~~~~~~~~~~~~~~~~~~~~~~~~~~~~~~~~~~~~~~~~~~~~~~~~~~~~~~~~~~~~~~~~~~~~~~~~~~~~~~
   iter  |      energy (Eh)       | rms gradient |  commutator  |   dE (Eh)
MG BCs: +ve charge blocks (gridpoints):     31744 (   17541287).
MG BCs: -ve charge blocks (gridpoints):      8416 (    1135200).
MG BCs:     Elided blocks (gridpoints):    183485 (  192027058).
MG BCs: Computational effort saved:  99.9809%.
MG BCs: Charge after coarse-graining:           -9.0010003.
MG DL_MG: Calling solver with defect correction order = 8
MG DL_MG: Solver finished
MG Hartree energy from (\int phi*rho dr):              1423.688686
MG Hartree energy from (\int eps (grad phi)^2 dr):     1423.040687
MG Discrepancy due to finite box and discretization:     -0.647999 (  -0.04552%)
MG Correction to account for finite box:                  0.458316
MG Remaining discrepancy, due to discretization:         -0.189683 (  -0.01332%)
      ideal mu1:      -0.719839219914
             Q0:  -11578.436695410637
             G0:    -143.483660214872
   RMS gradient:       0.001830730020
MG BCs: +ve charge blocks (gridpoints):     31713 (   17627333).
MG BCs: -ve charge blocks (gridpoints):      8303 (    1114231).
MG BCs:     Elided blocks (gridpoints):    183516 (  191961981).
MG BCs: Computational effort saved:  99.9810%.
MG BCs: Charge after coarse-graining:           -9.0010202.
MG DL_MG: Calling solver with defect correction order = 8
MG DL_MG: Solver finished
MG Hartree energy from (\int phi*rho dr):              1449.952501
MG Hartree energy from (\int eps (grad phi)^2 dr):     1449.320434
MG Discrepancy due to finite box and discretization:     -0.632067 (  -0.04359%)
MG Correction to account for finite box:                  0.457886
MG Remaining discrepancy, due to discretization:         -0.174181 (  -0.01201%)
     Trial step:       0.500000000000
             Q1:  -11589.403151130071
 Quadratic coef:      60.775374388002
 Linear coef   :     -71.741830107436
           Qmin:  -11599.608470323554
Quadratic minimum step length (  0.295110605364) accepted
    Initial Ne1:    7234.00000000
      Final Ne1:    7234.00000000

=================== Penalty functional idempotency correction ==================
 RMS occupancy error at iteration   1:  0.003317 (step -0.4888 Ne1=   7234.0000)
 RMS occupancy error at iteration   2:  0.000025 (step -0.5000 Ne1=   7234.0000)
            Final RMS occupancy error   :  0.000000 (Ne1=   7234.0000)
               Final occupancy bounds   : [  0.0000,  1.0000]
================================================================================

    1        -1.157843669541E+04     1.8307E-03     1.6559E-03
MG BCs: +ve charge blocks (gridpoints):     31732 (   17594885).
MG BCs: -ve charge blocks (gridpoints):      8347 (    1122833).
MG BCs:     Elided blocks (gridpoints):    183497 (  191985827).
MG BCs: Computational effort saved:  99.9810%.
MG BCs: Charge after coarse-graining:           -9.0010113.
MG DL_MG: Calling solver with defect correction order = 8
MG DL_MG: Solver finished
MG Hartree energy from (\int phi*rho dr):              1431.232291
MG Hartree energy from (\int eps (grad phi)^2 dr):     1430.594617
MG Discrepancy due to finite box and discretization:     -0.637675 (  -0.04455%)
MG Correction to account for finite box:                  0.457955
MG Remaining discrepancy, due to discretization:         -0.179720 (  -0.01256%)
      ideal mu1:      -0.757912663879
             Q0:  -11600.000033692806
             G0:     -11.714742538156
   RMS gradient:       0.000519629501
MG BCs: +ve charge blocks (gridpoints):     31725 (   17611911).
MG BCs: -ve charge blocks (gridpoints):      8326 (    1117583).
MG BCs:     Elided blocks (gridpoints):    183503 (  191974051).
MG BCs: Computational effort saved:  99.9810%.
MG BCs: Charge after coarse-graining:           -9.0010149.
MG DL_MG: Calling solver with defect correction order = 8
MG DL_MG: Solver finished
MG Hartree energy from (\int phi*rho dr):              1436.648669
MG Hartree energy from (\int eps (grad phi)^2 dr):     1436.014555
MG Discrepancy due to finite box and discretization:     -0.634114 (  -0.04414%)
MG Correction to account for finite box:                  0.457546
MG Remaining discrepancy, due to discretization:         -0.176568 (  -0.01229%)
     Trial step:       0.384129278605
             Q1:  -11602.749307567137
 Quadratic coef:       1.750701725899
 Linear coef   :      -4.499975600230
           Qmin:  -11602.891699946271
Quadratic minimum step length (  0.493679864333) accepted
    Initial Ne1:    7233.99992027
      Final Ne1:    7234.00000000

=================== Penalty functional idempotency correction ==================
 RMS occupancy error at iteration   1:  0.001749 (step -0.4934 Ne1=   7234.0000)
 RMS occupancy error at iteration   2:  0.000009 (step -0.5001 Ne1=   7234.0000)
            Final RMS occupancy error   :  0.000000 (Ne1=   7234.0000)
               Final occupancy bounds   : [  0.0000,  1.0000]
================================================================================

    2        -1.160000003369E+04     5.1963E-04     4.6999E-04    -2.1563E+01
MG BCs: +ve charge blocks (gridpoints):     31720 (   17616675).
MG BCs: -ve charge blocks (gridpoints):      8320 (    1116147).
MG BCs:     Elided blocks (gridpoints):    183508 (  191970723).
MG BCs: Computational effort saved:  99.9810%.
MG BCs: Charge after coarse-graining:           -9.0010160.
MG DL_MG: Calling solver with defect correction order = 8
MG DL_MG: Solver finished
MG Hartree energy from (\int phi*rho dr):              1438.233525
MG Hartree energy from (\int eps (grad phi)^2 dr):     1437.600353
MG Discrepancy due to finite box and discretization:     -0.633172 (  -0.04402%)
MG Correction to account for finite box:                  0.457440
MG Remaining discrepancy, due to discretization:         -0.175732 (  -0.01222%)
      ideal mu1:      -0.778642626697
             Q0:  -11602.926348715206
             G0:      -1.851626861082
   RMS gradient:       0.000206709074
MG BCs: +ve charge blocks (gridpoints):     31722 (   17616030).
MG BCs: -ve charge blocks (gridpoints):      8324 (    1117227).
MG BCs:     Elided blocks (gridpoints):    183506 (  191970288).
MG BCs: Computational effort saved:  99.9810%.
MG BCs: Charge after coarse-graining:           -9.0010157.
MG DL_MG: Calling solver with defect correction order = 8
MG DL_MG: Solver finished
MG Hartree energy from (\int phi*rho dr):              1436.008554
MG Hartree energy from (\int eps (grad phi)^2 dr):     1435.375785
MG Discrepancy due to finite box and discretization:     -0.632768 (  -0.04406%)
MG Correction to account for finite box:                  0.457243
MG Remaining discrepancy, due to discretization:         -0.175526 (  -0.01222%)
     Trial step:       0.435473179597
             Q1:  -11603.388017778983
 Quadratic coef:       0.344664772845
 Linear coef   :      -0.806333836622
           Qmin:  -11603.397947720461
Quadratic minimum step length (  0.509388813878) accepted
    Initial Ne1:    7233.99996517
      Final Ne1:    7234.00000000

=================== Penalty functional idempotency correction ==================
 RMS occupancy error at iteration   1:  0.000577 (step -0.4977 Ne1=   7234.0000)
 RMS occupancy error at iteration   2:  0.000001 (step -0.5000 Ne1=   7234.0000)
            Final RMS occupancy error   :  0.000000 (Ne1=   7234.0000)
               Final occupancy bounds   : [  0.0000,  1.0000]
================================================================================

    3        -1.160292634872E+04     2.0671E-04     1.8696E-04    -2.9263E+00
MG BCs: +ve charge blocks (gridpoints):     31722 (   17615914).
MG BCs: -ve charge blocks (gridpoints):      8323 (    1117386).
MG BCs:     Elided blocks (gridpoints):    183506 (  191970245).
MG BCs: Computational effort saved:  99.9810%.
MG BCs: Charge after coarse-graining:           -9.0010157.
MG DL_MG: Calling solver with defect correction order = 8
MG DL_MG: Solver finished
MG Hartree energy from (\int phi*rho dr):              1435.639049
MG Hartree energy from (\int eps (grad phi)^2 dr):     1435.006341
MG Discrepancy due to finite box and discretization:     -0.632708 (  -0.04407%)
MG Correction to account for finite box:                  0.457210
MG Remaining discrepancy, due to discretization:         -0.175498 (  -0.01222%)
      ideal mu1:      -0.779428043673
             Q0:  -11603.402180559700
             G0:      -0.431976285831
   RMS gradient:       0.000099957071
MG BCs: +ve charge blocks (gridpoints):     31719 (   17616906).
MG BCs: -ve charge blocks (gridpoints):      8323 (    1117136).
MG BCs:     Elided blocks (gridpoints):    183508 (  191969503).
MG BCs: Computational effort saved:  99.9810%.
MG BCs: Charge after coarse-graining:           -9.0010158.
MG DL_MG: Calling solver with defect correction order = 8
MG DL_MG: Solver finished
MG Hartree energy from (\int phi*rho dr):              1436.872715
MG Hartree energy from (\int eps (grad phi)^2 dr):     1436.239994
MG Discrepancy due to finite box and discretization:     -0.632720 (  -0.04403%)
MG Correction to account for finite box:                  0.457112
MG Remaining discrepancy, due to discretization:         -0.175608 (  -0.01222%)
     Trial step:       0.470983191240
             Q1:  -11603.500405636034
 Quadratic coef:       0.105228493307
 Linear coef   :      -0.203453569641
           Qmin:  -11603.500522163051
Quadratic minimum step length (  0.455310194452) accepted
    Initial Ne1:    7233.99999258
      Final Ne1:    7234.00000000

=================== Penalty functional idempotency correction ==================
 RMS occupancy error at iteration   1:  0.000184 (step -0.4992 Ne1=   7234.0000)
            Final RMS occupancy error   :  0.000000 (Ne1=   7234.0000)
               Final occupancy bounds   : [ -0.0000,  1.0000]
================================================================================

    4        -1.160340218056E+04     9.9957E-05     9.0409E-05    -4.7583E-01
MG BCs: +ve charge blocks (gridpoints):     31719 (   17616878).
MG BCs: -ve charge blocks (gridpoints):      8323 (    1117157).
MG BCs:     Elided blocks (gridpoints):    183508 (  191969510).
MG BCs: Computational effort saved:  99.9810%.
MG BCs: Charge after coarse-graining:           -9.0010158.
MG DL_MG: Calling solver with defect correction order = 8
MG DL_MG: Solver finished
MG Hartree energy from (\int phi*rho dr):              1436.831659
MG Hartree energy from (\int eps (grad phi)^2 dr):     1436.198940
MG Discrepancy due to finite box and discretization:     -0.632720 (  -0.04404%)
MG Correction to account for finite box:                  0.457115
MG Remaining discrepancy, due to discretization:         -0.175605 (  -0.01222%)
      ideal mu1:      -0.780032593958
             Q0:  -11603.500939386664
             G0:      -0.105167453931
   RMS gradient:       0.000049460915
MG BCs: +ve charge blocks (gridpoints):     31720 (   17617009).
MG BCs: -ve charge blocks (gridpoints):      8324 (    1116988).
MG BCs:     Elided blocks (gridpoints):    183507 (  191969548).
MG BCs: Computational effort saved:  99.9810%.
MG BCs: Charge after coarse-graining:           -9.0010157.
MG DL_MG: Calling solver with defect correction order = 8
MG DL_MG: Solver finished
MG Hartree energy from (\int phi*rho dr):              1437.219660
MG Hartree energy from (\int eps (grad phi)^2 dr):     1436.586825
MG Discrepancy due to finite box and discretization:     -0.632835 (  -0.04403%)
MG Correction to account for finite box:                  0.457102
MG Remaining discrepancy, due to discretization:         -0.175734 (  -0.01223%)
     Trial step:       0.463080390847
             Q1:  -11603.526744464878
 Quadratic coef:       0.022895907456
 Linear coef   :      -0.048700985671
           Qmin:  -11603.526836875220
Quadratic minimum step length (  0.492500057545) accepted
    Initial Ne1:    7234.00167192
      Final Ne1:    7234.00000000

=================== Penalty functional idempotency correction ==================
 RMS occupancy error at iteration   1:  0.000066 (step -0.4997 Ne1=   7234.0000)
            Final RMS occupancy error   :  0.000000 (Ne1=   7234.0000)
               Final occupancy bounds   : [ -0.0000,  1.0000]
================================================================================

    5        -1.160350093939E+04     4.9461E-05     4.4736E-05    -9.8759E-02
MG BCs: +ve charge blocks (gridpoints):     31719 (   17616970).
MG BCs: -ve charge blocks (gridpoints):      8324 (    1117001).
MG BCs:     Elided blocks (gridpoints):    183508 (  191969574).
MG BCs: Computational effort saved:  99.9810%.
MG BCs: Charge after coarse-graining:           -9.0010157.
MG DL_MG: Calling solver with defect correction order = 8
MG DL_MG: Solver finished
MG Hartree energy from (\int phi*rho dr):              1437.244360
MG Hartree energy from (\int eps (grad phi)^2 dr):     1436.611517
MG Discrepancy due to finite box and discretization:     -0.632842 (  -0.04403%)
MG Correction to account for finite box:                  0.457101
MG Remaining discrepancy, due to discretization:         -0.175742 (  -0.01223%)
      ideal mu1:      -0.779976490794
             Q0:  -11603.526886498323
             G0:      -0.031414593280
   RMS gradient:       0.000027055608
MG BCs: +ve charge blocks (gridpoints):     31722 (   17616611).
MG BCs: -ve charge blocks (gridpoints):      8323 (    1117205).
MG BCs:     Elided blocks (gridpoints):    183505 (  191969729).
MG BCs: Computational effort saved:  99.9810%.
MG BCs: Charge after coarse-graining:           -9.0010156.
MG DL_MG: Calling solver with defect correction order = 8
MG DL_MG: Solver finished
MG Hartree energy from (\int phi*rho dr):              1436.612659
MG Hartree energy from (\int eps (grad phi)^2 dr):     1435.979827
MG Discrepancy due to finite box and discretization:     -0.632831 (  -0.04405%)
MG Correction to account for finite box:                  0.457099
MG Remaining discrepancy, due to discretization:         -0.175732 (  -0.01223%)
     Trial step:       0.477563733066
             Q1:  -11603.536724057165
 Quadratic coef:       0.005164911598
 Linear coef   :      -0.015002470440
           Qmin:  -11603.537780882236
Quadratic minimum step length (  0.693587455756) accepted
    Initial Ne1:    7234.00104621
      Final Ne1:    7234.00000000

=================== Penalty functional idempotency correction ==================
 RMS occupancy error at iteration   1:  0.000040 (step -0.4997 Ne1=   7234.0000)
            Final RMS occupancy error   :  0.000000 (Ne1=   7234.0000)
               Final occupancy bounds   : [ -0.0000,  1.0000]
================================================================================

    6        -1.160352688650E+04     2.7056E-05     2.4471E-05    -2.5947E-02
MG BCs: +ve charge blocks (gridpoints):     31723 (   17616447).
MG BCs: -ve charge blocks (gridpoints):      8323 (    1117299).
MG BCs:     Elided blocks (gridpoints):    183504 (  191969799).
MG BCs: Computational effort saved:  99.9810%.
MG BCs: Charge after coarse-graining:           -9.0010156.
MG DL_MG: Calling solver with defect correction order = 8
MG DL_MG: Solver finished
MG Hartree energy from (\int phi*rho dr):              1436.326200
MG Hartree energy from (\int eps (grad phi)^2 dr):     1435.693374
MG Discrepancy due to finite box and discretization:     -0.632826 (  -0.04406%)
MG Correction to account for finite box:                  0.457098
MG Remaining discrepancy, due to discretization:         -0.175728 (  -0.01223%)
      ideal mu1:      -0.779718168709
             Q0:  -11603.537790075992
             G0:      -0.016717991029
   RMS gradient:       0.000019761282
MG BCs: +ve charge blocks (gridpoints):     31721 (   17616887).
MG BCs: -ve charge blocks (gridpoints):      8323 (    1117090).
MG BCs:     Elided blocks (gridpoints):    183506 (  191969568).
MG BCs: Computational effort saved:  99.9810%.
MG BCs: Charge after coarse-graining:           -9.0010157.
MG DL_MG: Calling solver with defect correction order = 8
MG DL_MG: Solver finished
MG Hartree energy from (\int phi*rho dr):              1436.935659
MG Hartree energy from (\int eps (grad phi)^2 dr):     1436.302876
MG Discrepancy due to finite box and discretization:     -0.632783 (  -0.04404%)
MG Correction to account for finite box:                  0.457076
MG Remaining discrepancy, due to discretization:         -0.175707 (  -0.01223%)
     Trial step:       0.575527770467
             Q1:  -11603.541941694799
 Quadratic coef:       0.005470049296
 Linear coef   :      -0.009621668104
           Qmin:  -11603.542021139190
Quadratic minimum step length (  0.506168856232) accepted
    Initial Ne1:    7234.00021886
      Final Ne1:    7234.00000000

=================== Penalty functional idempotency correction ==================
 RMS occupancy error at iteration   1:  0.000003 (step -0.5000 Ne1=   7234.0000)
            Final RMS occupancy error   :  0.000000 (Ne1=   7234.0000)
               Final occupancy bounds   : [  0.0000,  1.0000]
================================================================================

    7        -1.160353779008E+04     1.9761E-05     1.7874E-05    -1.0904E-02
MG BCs: +ve charge blocks (gridpoints):     31722 (   17616826).
MG BCs: -ve charge blocks (gridpoints):      8323 (    1117123).
MG BCs:     Elided blocks (gridpoints):    183505 (  191969596).
MG BCs: Computational effort saved:  99.9810%.
MG BCs: Charge after coarse-graining:           -9.0010157.
MG DL_MG: Calling solver with defect correction order = 8
MG DL_MG: Solver finished
MG Hartree energy from (\int phi*rho dr):              1436.862097
MG Hartree energy from (\int eps (grad phi)^2 dr):     1436.229309
MG Discrepancy due to finite box and discretization:     -0.632788 (  -0.04404%)
MG Correction to account for finite box:                  0.457079
MG Remaining discrepancy, due to discretization:         -0.175709 (  -0.01223%)
      ideal mu1:      -0.780008340474
             Q0:  -11603.542021377711
             G0:      -0.009894000296
   RMS gradient:       0.000015202943
MG BCs: +ve charge blocks (gridpoints):     31719 (   17616901).
MG BCs: -ve charge blocks (gridpoints):      8323 (    1117096).
MG BCs:     Elided blocks (gridpoints):    183508 (  191969548).
MG BCs: Computational effort saved:  99.9810%.
MG BCs: Charge after coarse-graining:           -9.0010157.
MG DL_MG: Calling solver with defect correction order = 8
MG DL_MG: Solver finished
MG Hartree energy from (\int phi*rho dr):              1436.941115
MG Hartree energy from (\int eps (grad phi)^2 dr):     1436.308370
MG Discrepancy due to finite box and discretization:     -0.632745 (  -0.04403%)
MG Correction to account for finite box:                  0.457063
MG Remaining discrepancy, due to discretization:         -0.175681 (  -0.01223%)
     Trial step:       0.539735336352
             Q1:  -11603.545940573094
 Quadratic coef:       0.001420946193
 Linear coef   :      -0.005340141578
           Qmin:  -11603.547038652856
Quadratic minimum step length (  1.014205577988) accepted
    Initial Ne1:    7234.00025789
      Final Ne1:    7234.00000000

=================== Penalty functional idempotency correction ==================
 RMS occupancy error at iteration   1:  0.000030 (step -0.4988 Ne1=   7234.0000)
            Final RMS occupancy error   :  0.000000 (Ne1=   7234.0000)
               Final occupancy bounds   : [ -0.0000,  1.0000]
================================================================================

    8        -1.160354202138E+04     1.5203E-05     1.3751E-05    -4.2313E-03
MG BCs: +ve charge blocks (gridpoints):     31719 (   17616980).
MG BCs: -ve charge blocks (gridpoints):      8323 (    1117025).
MG BCs:     Elided blocks (gridpoints):    183508 (  191969540).
MG BCs: Computational effort saved:  99.9810%.
MG BCs: Charge after coarse-graining:           -9.0010158.
MG DL_MG: Calling solver with defect correction order = 8
MG DL_MG: Solver finished
MG Hartree energy from (\int phi*rho dr):              1437.008976
MG Hartree energy from (\int eps (grad phi)^2 dr):     1436.376271
MG Discrepancy due to finite box and discretization:     -0.632705 (  -0.04403%)
MG Correction to account for finite box:                  0.457048
MG Remaining discrepancy, due to discretization:         -0.175657 (  -0.01222%)
      ideal mu1:      -0.780109306362
             Q0:  -11603.547024077736
             G0:      -0.014560264874
   RMS gradient:       0.000018494902
MG BCs: +ve charge blocks (gridpoints):     31720 (   17616865).
MG BCs: -ve charge blocks (gridpoints):      8323 (    1117171).
MG BCs:     Elided blocks (gridpoints):    183507 (  191969509).
MG BCs: Computational effort saved:  99.9810%.
MG BCs: Charge after coarse-graining:           -9.0010157.
MG DL_MG: Calling solver with defect correction order = 8
MG DL_MG: Solver finished
MG Hartree energy from (\int phi*rho dr):              1436.660275
MG Hartree energy from (\int eps (grad phi)^2 dr):     1436.027667
MG Discrepancy due to finite box and discretization:     -0.632608 (  -0.04403%)
MG Correction to account for finite box:                  0.457001
MG Remaining discrepancy, due to discretization:         -0.175607 (  -0.01222%)
     Trial step:       0.739866602007
             Q1:  -11603.553719738033
 Quadratic coef:       0.004076993400
 Linear coef   :      -0.010772653697
           Qmin:  -11603.554140232724
Quadratic minimum step length (  0.977476034732) accepted
    Initial Ne1:    7234.00080578
      Final Ne1:    7234.00000000

=================== Penalty functional idempotency correction ==================
 RMS occupancy error at iteration   1:  0.000171 (step -0.4925 Ne1=   7234.0000)
 RMS occupancy error at iteration   2:  0.000001 (step -0.5000 Ne1=   7234.0000)
            Final RMS occupancy error   :  0.000000 (Ne1=   7234.0000)
               Final occupancy bounds   : [  0.0000,  1.0000]
================================================================================

    9        -1.160354702408E+04     1.8495E-05     1.6728E-05    -5.0027E-03
MG BCs: +ve charge blocks (gridpoints):     31721 (   17616796).
MG BCs: -ve charge blocks (gridpoints):      8323 (    1117224).
MG BCs:     Elided blocks (gridpoints):    183506 (  191969525).
MG BCs: Computational effort saved:  99.9810%.
MG BCs: Charge after coarse-graining:           -9.0010157.
MG DL_MG: Calling solver with defect correction order = 8
MG DL_MG: Solver finished
MG Hartree energy from (\int phi*rho dr):              1436.545459
MG Hartree energy from (\int eps (grad phi)^2 dr):     1435.912885
MG Discrepancy due to finite box and discretization:     -0.632574 (  -0.04403%)
MG Correction to account for finite box:                  0.456984
MG Remaining discrepancy, due to discretization:         -0.175590 (  -0.01222%)
      ideal mu1:      -0.779563643773
   10        -1.160355406465E+04     2.0614E-05     1.8645E-05    -7.0406E-03
Finished density kernel iterations (  10)

Writing density kernel to file "complex_4661.vacuum_dkn" ... done


>>> Density kernel optimised for the current NGWF basis:
     ~~~~~~~~~~~~~~~~~~~~~~~~~~~~~~~~~~~~~~~~~~~~~~~~~~~~~~~~~~~
     Total energy                =  -1.16035540646451E+04  Eh
     Estimated bandgap           =  -2.9526E-01  Eh
     RMS occupancy error         =   6.5530E-11
     [H,K] commutator            =   1.8645E-05
     Occupancy bounds            = [  0.000:  1.000]
     ~~~~~~~~~~~~~~~~~~~~~~~~~~~~~~~~~~~~~~~~~~~~~~~~~~~~~~~~~~~




################################################################################
########################### NGWF CG iteration  001 #############################
################################################################################
****** Reciprocal space K.E. preconditioning with k_zero =  3.5000 a0^-1 *******

>>> Checking for convergence of NGWFs:   NOT CONVERGED
  ========================================================================
         NGWF RMS gradient =  1.5628E-03 >  2.0000E-06  | above tolerance
  ========================================================================

>>> Improving NGWFs using line search:
============ Calculation of NGWF S^-1 using Hotelling algorithm ================ 
         Iteration  |  Frobenius norm and Maximum abs value    (of I-S*S_n^-1)   
               1       0.19283431E+00     0.49409595E-02
               2       0.85947321E-03     0.36065912E-04
               3       0.29431047E-07     0.20956595E-08
               4       0.12953381E-12     0.11102230E-13
================================================================================
MG BCs: +ve charge blocks (gridpoints):     31145 (   17557925).
MG BCs: -ve charge blocks (gridpoints):      8334 (    1117234).
MG BCs:     Elided blocks (gridpoints):    184085 (  192028386).
MG BCs: Computational effort saved:  99.9813%.
MG BCs: Charge after coarse-graining:           -9.0010199.
MG DL_MG: Calling solver with defect correction order = 8
MG DL_MG: Solver finished
MG Hartree energy from (\int phi*rho dr):              1405.078412
MG Hartree energy from (\int eps (grad phi)^2 dr):     1404.446544
MG Discrepancy due to finite box and discretization:     -0.631868 (  -0.04497%)
MG Correction to account for finite box:                  0.456941
MG Remaining discrepancy, due to discretization:         -0.174927 (  -0.01245%)
============ Calculation of NGWF S^-1 using Hotelling algorithm ================ 
         Iteration  |  Frobenius norm and Maximum abs value    (of I-S*S_n^-1)   
               1       0.18563696E+01     0.41787511E-01
               2       0.71481332E-01     0.22547521E-02
               3       0.14438700E-03     0.84027265E-05
               4       0.10915653E-08     0.12568813E-09
               5       0.11157779E-12     0.53290705E-14
================================================================================
------------------------------- NGWF line search -------------------------------
RMS gradient                =       0.00156277252331
Trial step length           =               0.122474
Gradient along search dir.  =       -271.39594506799
Functional at step 0        =  -11603.55406464508269
Functional at step 1        =  -11634.30247894511558
Functional predicted        =  -11714.45180044334484
Selected quadratic step     =               0.817239
--------------------------- NGWF line search finished --------------------------
                                               
Writing NGWFs to file "complex_4661.vacuum_tightbox_ngwfs"....  done

>>> Optimising kernel for current NGWFs:
   Initial electron number for spin 1:    7268.37803061
     Final electron number for spin 1:    7234.00000000

=================== Penalty functional idempotency correction ==================
 RMS occupancy error at iteration   1:  0.004223 (step -0.4864 Ne1=   7234.0000)
 RMS occupancy error at iteration   2:  0.000068 (step -0.5003 Ne1=   7234.0000)
            Final RMS occupancy error   :  0.000000 (Ne1=   7234.0000)
               Final occupancy bounds   : [  0.0000,  1.0000]
================================================================================

................................................................................
<<<<<<<<<<<<<< LNV (Original version) density kernel optimisation >>>>>>>>>>>>>>
~~~~~~~~~~~~~~~~~~~~~~~~~~~~~~~~~~~~~~~~~~~~~~~~~~~~~~~~~~~~~~~~~~~~~~~~~~~~~~~~
   iter  |      energy (Eh)       | rms gradient |  commutator  |   dE (Eh)
MG BCs: +ve charge blocks (gridpoints):     25150 (   17289633).
MG BCs: -ve charge blocks (gridpoints):      8517 (    1101240).
MG BCs:     Elided blocks (gridpoints):    190082 (  192312672).
MG BCs: Computational effort saved:  99.9840%.
MG BCs: Charge after coarse-graining:           -9.0006796.
MG DL_MG: Calling solver with defect correction order = 8
MG DL_MG: Solver finished
MG Hartree energy from (\int phi*rho dr):              1249.071853
MG Hartree energy from (\int eps (grad phi)^2 dr):     1248.439599
MG Discrepancy due to finite box and discretization:     -0.632254 (  -0.05062%)
MG Correction to account for finite box:                  0.456734
MG Remaining discrepancy, due to discretization:         -0.175520 (  -0.01405%)
      ideal mu1:      -0.717750495103
             Q0:  -11713.633164549596
             G0:      -9.893499620092
   RMS gradient:       0.000480726486
MG BCs: +ve charge blocks (gridpoints):     25237 (   17308576).
MG BCs: -ve charge blocks (gridpoints):      8495 (    1096533).
MG BCs:     Elided blocks (gridpoints):    189995 (  192298436).
MG BCs: Computational effort saved:  99.9840%.
MG BCs: Charge after coarse-graining:           -9.0006749.
MG DL_MG: Calling solver with defect correction order = 8
MG DL_MG: Solver finished
MG Hartree energy from (\int phi*rho dr):              1268.627802
MG Hartree energy from (\int eps (grad phi)^2 dr):     1267.988973
MG Discrepancy due to finite box and discretization:     -0.638829 (  -0.05036%)
MG Correction to account for finite box:                  0.456477
MG Remaining discrepancy, due to discretization:         -0.182352 (  -0.01437%)
     Trial step:       0.850412765873
             Q1:  -11711.183820620063
 Quadratic coef:      10.862902305620
 Linear coef   :      -8.413558376087
           Qmin:  -11715.262286366129
Quadratic minimum step length (  0.329331759052) accepted
    Initial Ne1:    7233.99962616
      Final Ne1:    7234.00000000

=================== Penalty functional idempotency correction ==================
 RMS occupancy error at iteration   1:  0.000355 (step -0.4986 Ne1=   7234.0000)
 RMS occupancy error at iteration   2:  0.000000 (step -0.5000 Ne1=   7234.0000)
            Final RMS occupancy error   :  0.000000 (Ne1=   7234.0000)
               Final occupancy bounds   : [  0.0000,  1.0000]
================================================================================

    1        -1.171363316455E+04     4.8073E-04     4.3481E-04
MG BCs: +ve charge blocks (gridpoints):     25180 (   17297263).
MG BCs: -ve charge blocks (gridpoints):      8508 (    1099366).
MG BCs:     Elided blocks (gridpoints):    190052 (  192306916).
MG BCs: Computational effort saved:  99.9840%.
MG BCs: Charge after coarse-graining:           -9.0006777.
MG DL_MG: Calling solver with defect correction order = 8
MG DL_MG: Solver finished
MG Hartree energy from (\int phi*rho dr):              1255.370566
MG Hartree energy from (\int eps (grad phi)^2 dr):     1254.735888
MG Discrepancy due to finite box and discretization:     -0.634677 (  -0.05056%)
MG Correction to account for finite box:                  0.456612
MG Remaining discrepancy, due to discretization:         -0.178066 (  -0.01418%)
      ideal mu1:      -0.725265234281
             Q0:  -11715.227934819297
             G0:      -0.988956297085
   RMS gradient:       0.000153094056
MG BCs: +ve charge blocks (gridpoints):     25184 (   17297251).
MG BCs: -ve charge blocks (gridpoints):      8506 (    1100067).
MG BCs:     Elided blocks (gridpoints):    190048 (  192306227).
MG BCs: Computational effort saved:  99.9840%.
MG BCs: Charge after coarse-graining:           -9.0006776.
MG DL_MG: Calling solver with defect correction order = 8
MG DL_MG: Solver finished
MG Hartree energy from (\int phi*rho dr):              1256.677458
MG Hartree energy from (\int eps (grad phi)^2 dr):     1256.042372
MG Discrepancy due to finite box and discretization:     -0.635086 (  -0.05054%)
MG Correction to account for finite box:                  0.456640
MG Remaining discrepancy, due to discretization:         -0.178446 (  -0.01420%)
     Trial step:       0.529214448126
             Q1:  -11715.423509809189
 Quadratic coef:       0.327794971092
 Linear coef   :      -0.523369960983
           Qmin:  -11715.436842932764
Quadratic minimum step length (  0.422481992547) accepted
    Initial Ne1:    7233.99995135
      Final Ne1:    7234.00000000

=================== Penalty functional idempotency correction ==================
 RMS occupancy error at iteration   1:  0.000141 (step -0.4994 Ne1=   7234.0000)
            Final RMS occupancy error   :  0.000000 (Ne1=   7234.0000)
               Final occupancy bounds   : [ -0.0000,  1.0000]
================================================================================

    2        -1.171522793482E+04     1.5309E-04     1.3847E-04    -1.5948E+00
MG BCs: +ve charge blocks (gridpoints):     25183 (   17297265).
MG BCs: -ve charge blocks (gridpoints):      8507 (    1099889).
MG BCs:     Elided blocks (gridpoints):    190049 (  192306391).
MG BCs: Computational effort saved:  99.9840%.
MG BCs: Charge after coarse-graining:           -9.0006776.
MG DL_MG: Calling solver with defect correction order = 8
MG DL_MG: Solver finished
MG Hartree energy from (\int phi*rho dr):              1256.413479
MG Hartree energy from (\int eps (grad phi)^2 dr):     1255.778477
MG Discrepancy due to finite box and discretization:     -0.635001 (  -0.05054%)
MG Correction to account for finite box:                  0.456634
MG Remaining discrepancy, due to discretization:         -0.178367 (  -0.01420%)
      ideal mu1:      -0.726391906347
             Q0:  -11715.437316024443
             G0:      -0.145051099812
   RMS gradient:       0.000058142431
MG BCs: +ve charge blocks (gridpoints):     25184 (   17296458).
MG BCs: -ve charge blocks (gridpoints):      8507 (    1100368).
MG BCs:     Elided blocks (gridpoints):    190048 (  192306719).
MG BCs: Computational effort saved:  99.9840%.
MG BCs: Charge after coarse-graining:           -9.0006777.
MG DL_MG: Calling solver with defect correction order = 8
MG DL_MG: Solver finished
MG Hartree energy from (\int phi*rho dr):              1255.934949
MG Hartree energy from (\int eps (grad phi)^2 dr):     1255.299979
MG Discrepancy due to finite box and discretization:     -0.634970 (  -0.05056%)
MG Correction to account for finite box:                  0.456628
MG Remaining discrepancy, due to discretization:         -0.178342 (  -0.01420%)
     Trial step:       0.472846248297
             Q1:  -11715.481220823247
 Quadratic coef:       0.024682069554
 Linear coef   :      -0.068586868357
           Qmin:  -11715.484963553561
Quadratic minimum step length (  0.656975771715) accepted
    Initial Ne1:    7234.00059852
      Final Ne1:    7234.00000000

=================== Penalty functional idempotency correction ==================
 RMS occupancy error at iteration   1:  0.000061 (step -0.4998 Ne1=   7234.0000)
            Final RMS occupancy error   :  0.000000 (Ne1=   7234.0000)
               Final occupancy bounds   : [ -0.0000,  1.0000]
================================================================================

    3        -1.171543731602E+04     5.8142E-05     5.2589E-05    -2.0938E-01
MG BCs: +ve charge blocks (gridpoints):     25183 (   17296126).
MG BCs: -ve charge blocks (gridpoints):      8507 (    1100562).
MG BCs:     Elided blocks (gridpoints):    190049 (  192306857).
MG BCs: Computational effort saved:  99.9840%.
MG BCs: Charge after coarse-graining:           -9.0006777.
MG DL_MG: Calling solver with defect correction order = 8
MG DL_MG: Solver finished
MG Hartree energy from (\int phi*rho dr):              1255.748695
MG Hartree energy from (\int eps (grad phi)^2 dr):     1255.113737
MG Discrepancy due to finite box and discretization:     -0.634958 (  -0.05056%)
MG Correction to account for finite box:                  0.456625
MG Remaining discrepancy, due to discretization:         -0.178333 (  -0.01420%)
      ideal mu1:      -0.725443460626
             Q0:  -11715.485048625269
             G0:      -0.035337475977
   RMS gradient:       0.000028689648
MG BCs: +ve charge blocks (gridpoints):     25182 (   17296009).
MG BCs: -ve charge blocks (gridpoints):      8504 (    1100572).
MG BCs:     Elided blocks (gridpoints):    190050 (  192306964).
MG BCs: Computational effort saved:  99.9840%.
MG BCs: Charge after coarse-graining:           -9.0006777.
MG DL_MG: Calling solver with defect correction order = 8
MG DL_MG: Solver finished
MG Hartree energy from (\int phi*rho dr):              1255.736750
MG Hartree energy from (\int eps (grad phi)^2 dr):     1255.101886
MG Discrepancy due to finite box and discretization:     -0.634864 (  -0.05056%)
MG Correction to account for finite box:                  0.456632
MG Remaining discrepancy, due to discretization:         -0.178232 (  -0.01419%)
     Trial step:       0.557358528128
             Q1:  -11715.493642608402
 Quadratic coef:       0.011101660464
 Linear coef   :      -0.019695643598
           Qmin:  -11715.493784218877
Quadratic minimum step length (  0.494409595842) accepted
    Initial Ne1:    7234.00021630
      Final Ne1:    7234.00000000

=================== Penalty functional idempotency correction ==================
 RMS occupancy error at iteration   1:  0.000017 (step -0.4999 Ne1=   7234.0000)
            Final RMS occupancy error   :  0.000000 (Ne1=   7234.0000)
               Final occupancy bounds   : [ -0.0000,  1.0000]
================================================================================

    4        -1.171548504863E+04     2.8690E-05     2.5949E-05    -4.7733E-02
MG BCs: +ve charge blocks (gridpoints):     25182 (   17296026).
MG BCs: -ve charge blocks (gridpoints):      8504 (    1100567).
MG BCs:     Elided blocks (gridpoints):    190050 (  192306952).
MG BCs: Computational effort saved:  99.9840%.
MG BCs: Charge after coarse-graining:           -9.0006777.
MG DL_MG: Calling solver with defect correction order = 8
MG DL_MG: Solver finished
MG Hartree energy from (\int phi*rho dr):              1255.737902
MG Hartree energy from (\int eps (grad phi)^2 dr):     1255.103028
MG Discrepancy due to finite box and discretization:     -0.634875 (  -0.05056%)
MG Correction to account for finite box:                  0.456631
MG Remaining discrepancy, due to discretization:         -0.178244 (  -0.01419%)
      ideal mu1:      -0.725385720465
             Q0:  -11715.493789004162
             G0:      -0.011362940190
   RMS gradient:       0.000016288577
MG BCs: +ve charge blocks (gridpoints):     25181 (   17296528).
MG BCs: -ve charge blocks (gridpoints):      8505 (    1100378).
MG BCs:     Elided blocks (gridpoints):    190051 (  192306639).
MG BCs: Computational effort saved:  99.9840%.
MG BCs: Charge after coarse-graining:           -9.0006776.
MG DL_MG: Calling solver with defect correction order = 8
MG DL_MG: Solver finished
MG Hartree energy from (\int phi*rho dr):              1256.132393
MG Hartree energy from (\int eps (grad phi)^2 dr):     1255.497561
MG Discrepancy due to finite box and discretization:     -0.634831 (  -0.05054%)
MG Correction to account for finite box:                  0.456620
MG Remaining discrepancy, due to discretization:         -0.178211 (  -0.01419%)
     Trial step:       0.524941334466
             Q1:  -11715.496931299451
 Quadratic coef:       0.002822581699
 Linear coef   :      -0.005964876987
           Qmin:  -11715.496940352932
Quadratic minimum step length (  0.554671364671) accepted
    Initial Ne1:    7234.00009067
      Final Ne1:    7234.00000000

=================== Penalty functional idempotency correction ==================
 RMS occupancy error at iteration   1:  0.000009 (step -0.5000 Ne1=   7234.0000)
            Final RMS occupancy error   :  0.000000 (Ne1=   7234.0000)
               Final occupancy bounds   : [ -0.0000,  1.0000]
================================================================================

    5        -1.171549378900E+04     1.6289E-05     1.4733E-05    -8.7404E-03
MG BCs: +ve charge blocks (gridpoints):     25181 (   17296555).
MG BCs: -ve charge blocks (gridpoints):      8505 (    1100365).
MG BCs:     Elided blocks (gridpoints):    190051 (  192306625).
MG BCs: Computational effort saved:  99.9840%.
MG BCs: Charge after coarse-graining:           -9.0006776.
MG DL_MG: Calling solver with defect correction order = 8
MG DL_MG: Solver finished
MG Hartree energy from (\int phi*rho dr):              1256.154760
MG Hartree energy from (\int eps (grad phi)^2 dr):     1255.519931
MG Discrepancy due to finite box and discretization:     -0.634829 (  -0.05054%)
MG Correction to account for finite box:                  0.456620
MG Remaining discrepancy, due to discretization:         -0.178209 (  -0.01419%)
      ideal mu1:      -0.725759047667
             Q0:  -11715.496941307443
             G0:      -0.003349046655
   RMS gradient:       0.000008843115
MG BCs: +ve charge blocks (gridpoints):     25181 (   17296589).
MG BCs: -ve charge blocks (gridpoints):      8506 (    1100379).
MG BCs:     Elided blocks (gridpoints):    190051 (  192306577).
MG BCs: Computational effort saved:  99.9840%.
MG BCs: Charge after coarse-graining:           -9.0006776.
MG DL_MG: Calling solver with defect correction order = 8
MG DL_MG: Solver finished
MG Hartree energy from (\int phi*rho dr):              1256.131583
MG Hartree energy from (\int eps (grad phi)^2 dr):     1255.496763
MG Discrepancy due to finite box and discretization:     -0.634819 (  -0.05054%)
MG Correction to account for finite box:                  0.456614
MG Remaining discrepancy, due to discretization:         -0.178205 (  -0.01419%)
     Trial step:       0.539601636729
             Q1:  -11715.498051260598
 Quadratic coef:       0.000697197902
 Linear coef   :      -0.001807151056
           Qmin:  -11715.498112350460
Quadratic minimum step length (  0.699329175543) accepted
    Initial Ne1:    7234.00004096
      Final Ne1:    7234.00000000

=================== Penalty functional idempotency correction ==================
 RMS occupancy error at iteration   1:  0.000005 (step -0.4999 Ne1=   7234.0000)
            Final RMS occupancy error   :  0.000000 (Ne1=   7234.0000)
               Final occupancy bounds   : [ -0.0000,  1.0000]
================================================================================

    6        -1.171549694131E+04     8.8431E-06     7.9984E-06    -3.1523E-03
MG BCs: +ve charge blocks (gridpoints):     25181 (   17296576).
MG BCs: -ve charge blocks (gridpoints):      8506 (    1100410).
MG BCs:     Elided blocks (gridpoints):    190051 (  192306559).
MG BCs: Computational effort saved:  99.9840%.
MG BCs: Charge after coarse-graining:           -9.0006776.
MG DL_MG: Calling solver with defect correction order = 8
MG DL_MG: Solver finished
MG Hartree energy from (\int phi*rho dr):              1256.124706
MG Hartree energy from (\int eps (grad phi)^2 dr):     1255.489890
MG Discrepancy due to finite box and discretization:     -0.634816 (  -0.05054%)
MG Correction to account for finite box:                  0.456612
MG Remaining discrepancy, due to discretization:         -0.178204 (  -0.01419%)
      ideal mu1:      -0.725721933723
             Q0:  -11715.498112434754
             G0:      -0.001749223208
   RMS gradient:       0.000006392131
MG BCs: +ve charge blocks (gridpoints):     25181 (   17296344).
MG BCs: -ve charge blocks (gridpoints):      8506 (    1100467).
MG BCs:     Elided blocks (gridpoints):    190051 (  192306734).
MG BCs: Computational effort saved:  99.9840%.
MG BCs: Charge after coarse-graining:           -9.0006776.
MG DL_MG: Calling solver with defect correction order = 8
MG DL_MG: Solver finished
MG Hartree energy from (\int phi*rho dr):              1256.014490
MG Hartree energy from (\int eps (grad phi)^2 dr):     1255.379663
MG Discrepancy due to finite box and discretization:     -0.634827 (  -0.05054%)
MG Correction to account for finite box:                  0.456615
MG Remaining discrepancy, due to discretization:         -0.178212 (  -0.01419%)
     Trial step:       0.614295668009
             Q1:  -11715.498473935644
 Quadratic coef:       0.000713039350
 Linear coef   :      -0.001074540239
           Qmin:  -11715.498517263999
Quadratic minimum step length (  0.462867452098) accepted
    Initial Ne1:    7234.00000556
      Final Ne1:    7234.00000000

=================== Penalty functional idempotency correction ==================
 RMS occupancy error at iteration   1:  0.000000 (step -0.5000 Ne1=   7234.0000)
            Final RMS occupancy error   :  0.000000 (Ne1=   7234.0000)
               Final occupancy bounds   : [  0.0000,  1.0000]
================================================================================

    7        -1.171549811243E+04     6.3921E-06     5.7815E-06    -1.1711E-03
MG BCs: +ve charge blocks (gridpoints):     25181 (   17296385).
MG BCs: -ve charge blocks (gridpoints):      8506 (    1100450).
MG BCs:     Elided blocks (gridpoints):    190051 (  192306710).
MG BCs: Computational effort saved:  99.9840%.
MG BCs: Charge after coarse-graining:           -9.0006776.
MG DL_MG: Calling solver with defect correction order = 8
MG DL_MG: Solver finished
MG Hartree energy from (\int phi*rho dr):              1256.041617
MG Hartree energy from (\int eps (grad phi)^2 dr):     1255.406793
MG Discrepancy due to finite box and discretization:     -0.634825 (  -0.05054%)
MG Correction to account for finite box:                  0.456615
MG Remaining discrepancy, due to discretization:         -0.178210 (  -0.01419%)
      ideal mu1:      -0.725634138416
             Q0:  -11715.498517255299
             G0:      -0.001001482560
   RMS gradient:       0.000004836617
MG BCs: +ve charge blocks (gridpoints):     25181 (   17296323).
MG BCs: -ve charge blocks (gridpoints):      8506 (    1100486).
MG BCs:     Elided blocks (gridpoints):    190051 (  192306736).
MG BCs: Computational effort saved:  99.9840%.
MG BCs: Charge after coarse-graining:           -9.0006776.
MG DL_MG: Calling solver with defect correction order = 8
MG DL_MG: Solver finished
MG Hartree energy from (\int phi*rho dr):              1255.998751
MG Hartree energy from (\int eps (grad phi)^2 dr):     1255.363921
MG Discrepancy due to finite box and discretization:     -0.634830 (  -0.05054%)
MG Correction to account for finite box:                  0.456614
MG Remaining discrepancy, due to discretization:         -0.178216 (  -0.01419%)
     Trial step:       0.533233036004
             Q1:  -11715.498931177310
 Quadratic coef:       0.000120101575
 Linear coef   :      -0.000534023586
           Qmin:  -11715.499110880301
Quadratic minimum step length (  1.185492440428) accepted
    Initial Ne1:    7234.00000813
      Final Ne1:    7234.00000000

=================== Penalty functional idempotency correction ==================
 RMS occupancy error at iteration   1:  0.000005 (step -0.4997 Ne1=   7234.0000)
            Final RMS occupancy error   :  0.000000 (Ne1=   7234.0000)
               Final occupancy bounds   : [ -0.0000,  1.0000]
================================================================================

    8        -1.171549851726E+04     4.8366E-06     4.3746E-06    -4.0482E-04
MG BCs: +ve charge blocks (gridpoints):     25181 (   17296259).
MG BCs: -ve charge blocks (gridpoints):      8505 (    1100512).
MG BCs:     Elided blocks (gridpoints):    190051 (  192306774).
MG BCs: Computational effort saved:  99.9840%.
MG BCs: Charge after coarse-graining:           -9.0006776.
MG DL_MG: Calling solver with defect correction order = 8
MG DL_MG: Solver finished
MG Hartree energy from (\int phi*rho dr):              1255.946089
MG Hartree energy from (\int eps (grad phi)^2 dr):     1255.311252
[...]
MG Hartree energy from (\int phi*rho dr):              1214.348383
MG Hartree energy from (\int eps (grad phi)^2 dr):     1214.164891
MG Discrepancy due to finite box and discretization:     -0.183493 (  -0.01511%)
MG Correction to account for finite box:                  0.006262
MG Remaining discrepancy, due to discretization:         -0.177231 (  -0.01459%)
             Q2:  -11749.586267858162
  Cubic LS coeff:       0.960802373251
Predicted energy:  -11749.586267858185
Cubic minimum step length accepted
    Initial Ne1:    7234.00000000
      Final Ne1:    7234.00000000

=================== Penalty functional idempotency correction ==================
 RMS occupancy error at iteration   1:  0.000000 (step -0.5000 Ne1=   7234.0000)
            Final RMS occupancy error   :  0.000000 (Ne1=   7234.0000)
               Final occupancy bounds   : [  0.0000,  1.0000]
================================================================================

    7        -1.174958626786E+04     7.8361E-09     7.0876E-09    -1.7462E-09

Reusing previously generated solute cavity.
MG BCs: +ve charge blocks (gridpoints):     29237 (   19553018).
MG BCs: -ve charge blocks (gridpoints):      8495 (    1069101).
MG BCs:     Elided blocks (gridpoints):    185995 (  190081426).
MG BCs: Computational effort saved:  99.9821%.
MG BCs: Charge after coarse-graining:           -9.0009738.
MG DL_MG: Calling solver with defect correction order = 8
MG DL_MG: Solver finished
MG Hartree energy from (\int phi*rho dr):              1214.348383
MG Hartree energy from (\int eps (grad phi)^2 dr):     1214.164890
MG Discrepancy due to finite box and discretization:     -0.183493 (  -0.01511%)
MG Correction to account for finite box:                  0.006262
MG Remaining discrepancy, due to discretization:         -0.177231 (  -0.01459%)
      ideal mu1:      -0.482185825279
             Q0:  -11749.586267858162
             G0:      -0.000000003076
   RMS gradient:       0.000000008105

Reusing previously generated solute cavity.
MG BCs: +ve charge blocks (gridpoints):     29237 (   19553018).
MG BCs: -ve charge blocks (gridpoints):      8495 (    1069101).
MG BCs:     Elided blocks (gridpoints):    185995 (  190081426).
MG BCs: Computational effort saved:  99.9821%.
MG BCs: Charge after coarse-graining:           -9.0009738.
MG DL_MG: Calling solver with defect correction order = 8
MG DL_MG: Solver finished
MG Hartree energy from (\int phi*rho dr):              1214.348351
MG Hartree energy from (\int eps (grad phi)^2 dr):     1214.164858
MG Discrepancy due to finite box and discretization:     -0.183493 (  -0.01511%)
MG Correction to account for finite box:                  0.006262
MG Remaining discrepancy, due to discretization:         -0.177231 (  -0.01459%)
     Trial step:       0.661882542381
             Q1:  -11749.586267858860
 Quadratic coef:       0.000000001337
 Linear coef   :      -0.000000002036
           Qmin:  -11749.586267858936
Quadratic minimum step length (  0.504027613343) accepted
    Initial Ne1:    7234.00000000
      Final Ne1:    7234.00000000

=================== Penalty functional idempotency correction ==================
 RMS occupancy error at iteration   1:  0.000000 (step -0.5000 Ne1=   7234.0000)
            Final RMS occupancy error   :  0.000000 (Ne1=   7234.0000)
               Final occupancy bounds   : [ -0.0000,  1.0000]
================================================================================

    8        -1.174958626786E+04     8.1051E-09     7.3309E-09    -2.7940E-09

Reusing previously generated solute cavity.
MG BCs: +ve charge blocks (gridpoints):     29237 (   19553018).
MG BCs: -ve charge blocks (gridpoints):      8495 (    1069101).
MG BCs:     Elided blocks (gridpoints):    185995 (  190081426).
MG BCs: Computational effort saved:  99.9821%.
MG BCs: Charge after coarse-graining:           -9.0009738.
MG DL_MG: Calling solver with defect correction order = 8
MG DL_MG: Solver finished
MG Hartree energy from (\int phi*rho dr):              1214.348359
MG Hartree energy from (\int eps (grad phi)^2 dr):     1214.164866
MG Discrepancy due to finite box and discretization:     -0.183493 (  -0.01511%)
MG Correction to account for finite box:                  0.006262
MG Remaining discrepancy, due to discretization:         -0.177231 (  -0.01459%)
      ideal mu1:      -0.482185796380
             Q0:  -11749.586267858744
             G0:      -0.000000001403
   RMS gradient:       0.000000004624

Reusing previously generated solute cavity.
MG BCs: +ve charge blocks (gridpoints):     29237 (   19553018).
MG BCs: -ve charge blocks (gridpoints):      8495 (    1069101).
MG BCs:     Elided blocks (gridpoints):    185995 (  190081426).
MG BCs: Computational effort saved:  99.9821%.
MG BCs: Charge after coarse-graining:           -9.0009738.
MG DL_MG: Calling solver with defect correction order = 8
MG DL_MG: Solver finished
MG Hartree energy from (\int phi*rho dr):              1214.348358
MG Hartree energy from (\int eps (grad phi)^2 dr):     1214.164865
MG Discrepancy due to finite box and discretization:     -0.183493 (  -0.01511%)
MG Correction to account for finite box:                  0.006262
MG Remaining discrepancy, due to discretization:         -0.177231 (  -0.01459%)
     Trial step:       0.577587290502
             Q1:  -11749.586267858744
 Quadratic coef:       0.000000000809
 Linear coef   :      -0.000000000810
           Qmin:  -11749.586267858946
Quadratic minimum step length (  0.289043692137) accepted
    Initial Ne1:    7234.00000000
      Final Ne1:    7234.00000000

=================== Penalty functional idempotency correction ==================
 RMS occupancy error at iteration   1:  0.000000 (step -0.5000 Ne1=   7234.0000)
            Final RMS occupancy error   :  0.000000 (Ne1=   7234.0000)
               Final occupancy bounds   : [  0.0000,  1.0000]
================================================================================

    9        -1.174958626786E+04     4.6236E-09     4.1819E-09    -5.8208E-10

Reusing previously generated solute cavity.
MG BCs: +ve charge blocks (gridpoints):     29237 (   19553018).
MG BCs: -ve charge blocks (gridpoints):      8495 (    1069101).
MG BCs:     Elided blocks (gridpoints):    185995 (  190081426).
MG BCs: Computational effort saved:  99.9821%.
MG BCs: Charge after coarse-graining:           -9.0009738.
MG DL_MG: Calling solver with defect correction order = 8
MG DL_MG: Solver finished
MG Hartree energy from (\int phi*rho dr):              1214.348358
MG Hartree energy from (\int eps (grad phi)^2 dr):     1214.164865
MG Discrepancy due to finite box and discretization:     -0.183493 (  -0.01511%)
MG Correction to account for finite box:                  0.006262
MG Remaining discrepancy, due to discretization:         -0.177231 (  -0.01459%)
      ideal mu1:      -0.482185793581
   10        -1.174958626786E+04     3.3862E-09     3.0628E-09     0.0000E+00
Finished density kernel iterations (  10)

Writing density kernel to file "complex_4661.dkn" ... done


>>> Density kernel optimised for the current NGWF basis:
     ~~~~~~~~~~~~~~~~~~~~~~~~~~~~~~~~~~~~~~~~~~~~~~~~~~~~~~~~~~~
     Total energy                =  -1.17495862678587E+04  Eh
     Estimated bandgap           =   1.0201E-01  Eh
     RMS occupancy error         =   4.5936E-16
     [H,K] commutator            =   3.0628E-09
     Occupancy bounds            = [  0.000:  1.000]
     ~~~~~~~~~~~~~~~~~~~~~~~~~~~~~~~~~~~~~~~~~~~~~~~~~~~~~~~~~~~




################################################################################
########################### NGWF CG iteration  004 #############################
################################################################################
****** Reciprocal space K.E. preconditioning with k_zero =  3.5000 a0^-1 *******

>>> Checking for convergence of NGWFs: 
           ........................................................
           |         *** NGWF optimisation converged ***          |
           | RMS NGWF gradient =    0.00000191950841              |
           | Criteria satisfied:                                  |
           | -> RMS NGWF gradient lower than set threshold.       |
           ========================================================

Reusing previously generated solute cavity.
MG BCs: +ve charge blocks (gridpoints):     29237 (   19553018).
MG BCs: -ve charge blocks (gridpoints):      8495 (    1069101).
MG BCs:     Elided blocks (gridpoints):    185995 (  190081426).
MG BCs: Computational effort saved:  99.9821%.
MG BCs: Charge after coarse-graining:           -9.0009738.
MG DL_MG: Calling solver with defect correction order = 8
MG DL_MG: Solver finished
MG Hartree energy from (\int phi*rho dr):              1214.348358
MG Hartree energy from (\int eps (grad phi)^2 dr):     1214.164865
MG Discrepancy due to finite box and discretization:     -0.183493 (  -0.01511%)
MG Correction to account for finite box:                  0.006262
MG Remaining discrepancy, due to discretization:         -0.177231 (  -0.01459%)

================================================================================
           ---------------- ENERGY COMPONENTS (Eh) ----------------
           | Kinetic                    :     8588.00770731988086 |
           | Pseudo. (local,OBC,corr'd) :    -5086.72573844770614 |
           | Pseudopotential (non-local):     1411.49592595604099 |
           | Hartree (molecular)        :     1214.34835825044911 |
           | Exchange-correlation       :    -3378.65323376835522 |
           | Ion-ion (open BC)          :   835959.53481384890620 |
           | Dispersion Correction      :       -3.29233214764278 |
           | Smeared ion non-self corr. :  -835911.01542462781072 |
           | Smeared ion self corr.     :   -14543.93950988473262 |
           | Solvent cavitation energy  :        2.32381265528006 |
           | Solute-solvent dis-rep en. :       -1.67064701319722 |
           | Total                      :   -11749.58626785887827 |
           --------------------------------------------------------
           ------ LOCAL ENERGY COMPONENTS FROM MATRIX TRACES ------
           | Pseudopotential (local)    :    -5086.72573844769977 |
           | Hartree                    :    -2006.10800735281373 |
           --------------------------------------------------------
           Integrated density           :     7233.99999999882220
           Integrated density tr(KS)    :     7234.00000000000091
================================================================================


                        <<<<< CALCULATION SUMMARY >>>>>                         
|ITER|    RMS GRADIENT   |     TOTAL ENERGY    |   step   |     Epredicted              
   0     0.00003942289435 -11749.52319918340072   0.631197 -11749.57770510115370        
   1     0.00000982652158 -11749.58569043723401   0.089768 -11749.58617205505470        
   2     0.00000431551074 -11749.58624863729347   0.016267 -11749.58626546989763        
   3     0.00000191950841 -11749.58626785874367  <-- CG                                 

=================== Finished the calculation in solvent ========================
= Adjusting the following parameters: 
= read_denskern: F
= read_tightbox_ngwfs: F
= maxit_pen: 0 (restored to user-specified value)
= restart read filename prefix: ""
= restart write filename prefix: ""
================================================================================

================================================================================
IS: Calculation in solvent completed (NGWFs converged).      

Individual components of total energy in solvent:     hartree           kcal/mol
- Usual non-electrostatic DFT terms:    -12964.58779175127529    -8135401.490148
- Electrostatic fixed charge energy:      1214.34835825044911      762015.083083
- Apolar cavitation energy:                  2.32381265528006        1458.214425
- Apolar dispersion-repulsion energy:       -1.67064701319722       -1048.346806
 -------------------------------------------------------------------------------
- Total energy in solvent:              -11749.58626785874367    -7372976.539446

Components of total energy in solvent:                hartree           kcal/mol
- Usual non-electrostatic DFT terms:    -12964.58779175127529    -8135401.490148
- Electrostatic energy:                   1214.34835825044911      762015.083083
- Apolar energy terms:                       0.65316564208284         409.867620
 -------------------------------------------------------------------------------
- Total energy in solvent:              -11749.58626785874367    -7372976.539446

Calculation of free energy of solvation:              hartree           kcal/mol
- Total energy in solvent:         (+)  -11749.58626785874367    -7372976.539446
- Total energy in vacuum:          (-)  -11745.67127745819744    -7370519.845932
 -------------------------------------------------------------------------------
- Total free energy of solvation:           -3.91499040054623       -2456.693514

Components of polar term in f.e. of solvation:        hartree           kcal/mol
- Electrostatic:                            -4.70741521351647       -2953.947581
- Change in nonelectrostatic DFT terms:      0.13925917088818          87.386447
 -------------------------------------------------------------------------------
- Polar term in f.e. of solvation:          -4.56815604262829       -2866.561134

Components of free energy of solvation:               hartree           kcal/mol
- Polar term in f.e. of solvation: (+)      -4.56815604262829       -2866.561134
- Apolar (cavitation, dis., rep.): (+)       0.65316564208284         409.867620
 -------------------------------------------------------------------------------
- Total free energy of solvation:           -3.91499040054545       -2456.693514
================================================================================


------------------------------ TIMING INFORMATION ------------------------------
AVERAGE TIME:   32629.405s on     60 node(s)                                    
TOTAL TIME:     32629.406s on     60 node(s)                                    
================= AVERAGE TIMINGS FROM ALL NODES (CUMULATIVE) ==================
|| TAG                                    #calls    cpu time   %total  Gflops ||
|| work_imbalance                       :     1        0.00s   0.000%  ------ ||
|| sparse_set_to_garbage                :   164        0.03s   0.000%  ------ ||
|| parallel_prepare_fd_halos_request    :  1827        0.03s   0.000%  ------ ||
|| parallel_prepare_fd_halos_alloc      :  1827        0.10s   0.000%  ------ ||
|| ngwfs_initialise_from_radial         :     1        0.11s   0.000%  ------ ||
|| basis_extract_function_from_box      :  3380        0.15s   0.000%  ------ ||
|| parallel_prepare_fd_halos_satisfy    :  1827        0.56s   0.002%  ------ ||
|| pseudopotentials_nonlocal_mat        :    28        1.12s   0.003%  ------ ||
|| density_init_guess_real              :     1        3.65s   0.011%  ------ ||
|| openbc_locps_radial                  :     1        4.74s   0.015%  ------ ||
|| parallel_prepare_fd_halos_comms_imbal:  1827       10.56s   0.032%  ------ ||
|| restart_kernel_read                  :     1       13.34s   0.041%  ------ ||
|| restart_ngwfs_tightbox_input         :     1       13.93s   0.043%  ------ ||
|| parallel_prepare_fd_halos_clear      :  1827       19.42s   0.060%  ------ ||
|| sparse_init                          :     2       22.21s   0.068%  ------ ||
|| projectors_func_ovlp_box             :    28       27.22s   0.083%  ------ ||
|| parallel_prepare_fd_halos_comms_wait :  1827       27.40s   0.084%  ------ ||
|| projectors_init_fftbox_recip         :   133       27.60s   0.085%  ------ ||
|| function_ops_brappd_ketppd           :    28       28.77s   0.088%  ------ ||
|| palser_mano_kernel_optimise          :     1       29.58s   0.091%  ------ ||
|| basis_copy_function_to_box           : 54852       42.15s   0.129%  ------ ||
|| ngwf_gradient_coeffs                 :    15       47.48s   0.146%  ------ ||
|| fourier_apply_box_pair               :  4811       52.86s   0.162% 597.771 ||
|| parallel_prepare_fd_halos            :  1827       58.08s   0.178%  ------ ||
|| pseudo_make_structure_factor         :     2       64.79s   0.199%  ------ ||
|| sparse_embed_hotelling_invert_embed  :    28       75.70s   0.232%  ------ ||
|| restart_kernel_write                 :    16      110.86s   0.340%  ------ ||
|| finite_difference_derivative         :  1827      146.03s   0.448%  ------ ||
|| integrals_kinetic                    :    28      146.74s   0.450%  ------ ||
|| projectors_gradient_batch            :   105      151.97s   0.466%  ------ ||
|| basis_dot_function_with_box          : 8.424M     158.80s   0.487%  ------ ||
|| sparse_trace                         :  4880      167.98s   0.515%  ------ ||
|| fourier_apply_cell_backward          :  1219      172.55s   0.529% 105.483 ||
|| fourier_apply_cell_forward           :  1217      208.75s   0.640%  87.047 ||
|| kernel_purify                        :   464      287.08s   0.880%  ------ ||
|| openbc_locps_on_grid                 :     2      290.94s   0.892%  ------ ||
|| basis_add_function_to_box            : 17.52M     385.83s   1.182%  ------ ||
|| lnv_gradient_norm                    :   150      436.13s   1.337%  ------ ||
|| xc_energy_potential                  :   304      445.09s   1.364%  ------ ||
|| kernel_fix                           :   150      493.99s   1.514%  ------ ||
|| hamiltonian_energy_components        :     4      534.86s   1.639%  ------ ||
|| integrals_locpot_mat_els_batch       :  1113      730.13s   2.238%  ------ ||
|| ngwf_gradient_build_batch            :   105      806.64s   2.472%  ------ ||
|| ngwf_gradient_batch                  :   105     1124.77s   3.447%  ------ ||
|| density_batch_row_sums               :  2121     1177.25s   3.608%  ------ ||
|| ngwf_gradient_lnv                    :    15     1281.17s   3.926%  ------ ||
|| cell_grid_deposit_box_real           : 35200     1305.89s   4.002%  ------ ||
|| restart_ngwfs_tightbox_output        :    13     1443.28s   4.423%  ------ ||
|| sparse_product                       :  6173     1775.89s   5.443%  ------ ||
|| cell_grid_extract_box_real           : 38596     1896.76s   5.813%  ------ ||
|| density_fftbox_deposit_to_cell       : 33330     2016.96s   6.181%  ------ ||
|| density_fftbox_interpolate_multiply  : 33330     3842.61s  11.777%  ------ ||
|| potential_apply_to_ngwf_batch        :  1113     3870.23s  11.861%  ------ ||
|| fourier_apply_box                    : 114.7k    4607.59s  14.121% 792.100 ||
|| integrals_locpot_dbl_grid            :   159     4620.70s  14.161%  ------ ||
|| multigrid_prepare_bound_cond         :   304     4745.83s  14.545%  ------ ||
|| density_batch_interp_deposit         :  2121     6873.69s  21.066%  ------ ||
|| dl_mg_solver_calls                   :   304     7810.74s  23.938%  ------ ||
|| density_on_dbl_grid                  :   303     8475.14s  25.974%  ------ ||
|| multigrid_calculate_hartree          :   304    12752.55s  39.083%  ------ ||
|| hamiltonian_lhxc_calculate           :   299    21592.86s  66.176%  ------ ||
|| lnv_denskernel_optimise_cg           :    15    27003.05s  82.757%  ------ ||
|| ngwf_cg_optimise                     :     2    31587.12s  96.806%  ------ ||
|| total_time                           :     1    32629.41s 100.000%  ------ ||
================================================================================
Overhead of generating timer report: 
- 0 ms averaging over threads,
- 15 ms ensuring consistency across MPI ranks,
- 0 ms printing in order.

Job completed: 16-06-2020 04:22 (+0100)

Application 40859330 resources: utime ~6611153s, stime ~312675s, Rss ~4194976, inblocks ~299998399, outblocks ~64583547
