 +---------------------------------------------------------------+
 |                                                               |
 |        ####### #     # ####### ####### ####### ######         |
 |        #     # ##    # #          #    #       #     #        |
 |        #     # # #   # #          #    #       #     #        |
 |        #     # #  #  # #####      #    #####   ######         |
 |        #     # #   # # #          #    #       #              |
 |        #     # #    ## #          #    #       #              |
 |        ####### #     # #######    #    ####### #              |
 |                                                               |
 |        Linear-Scaling Ab Initio Total Energy Program          |
 |                                                               |
 |          Release for academic collaborators of ODG            |
 |                                             Version 5.3.2.6.  |
 |                                                               |
 +---------------------------------------------------------------+
 |                                                               |
 |  Authors:                                                     |
 |  Jacek Dziedzic, Peter D. Haynes, Nicholas D. M. Hine,        |
 |  Arash. A. Mostofi, Mike C. Payne and Chris-Kriton Skylaris   |
 |                                                               |
 |  Contributors:                                                |
 |  J. Aarons, L. Andrinopoulos, P. W. Avraam, R. A. Bell,       |
 |  A. Bhandari, G. A. Bramley, R. J. Charlton, S. J. Clark,     |
 |  R. J. Clements, G. C. Constantinescu, F. Corsetti,           |
 |  N. Corsini, O. Dieguez, S. M. M. Dubois, K. K. B. Duff,      |
 |  J. M. Escartin, A. Greco, H. Helal, Q. O. Hill, L. P. Lee,   |
 |  J.-H. Li, E. B. Linscott, G. Moynihan, D. D. O`Regan,        |
 |  O. K. Okan, M. J. S. Phipps, C. J. Pickard,                  |
 |  J. C. A. Prentice, M. I. J. Probert, L. E. Ratcliff,         |
 |  M. Robinson, A. Ruiz Serrano, J. S. Spencer, E. W. Tait,     |
 |  G. Teobaldi, D. Turban, V. Vitale, K. A. Wilkinson,          |
 |  C. Weber, J. C. Womack, N. Yeung and T. J. Zuehlsdorff       |
 |                                                               |
 |                                   Copyright (c) 2004-2019     |
 |                                                               |
 |  Please cite:                                                 |
 |  "Introducing ONETEP: Linear-scaling density functional       |
 |   simulations on parallel computers".                         |
 |   C.-K. Skylaris, P. D. Haynes, A. A. Mostofi, M. C. Payne.   |
 |   J. Chem. Phys. 122 084119 (2005).                           |
 |                                                               |
 |          in all publications arising from your use of ONETEP. |
 |                                                               |
 +---------------------------------------------------------------+
 |                                                               |
 |   ONETEP is based on developments described in the following  |
 |   publications:                                               |
 |                                                               |
 |  "Nonorthogonal generalized Wannier function pseudopotential  |
 |   plane-wave method".                                         |
 |   C.-K. Skylaris, A. A. Mostofi, P. D. Haynes, O. Dieguez,    |
 |   M. C. Payne.                                                |
 |   Phys. Rev. B 66 035119 (2002).                              |
 |                                                               |
 |  "Preconditioned iterative minimization for linear-scaling    |
 |   electronic structure calculations".                         |
 |   A. A. Mostofi, P. D. Haynes, C.-K. Skylaris, M. C. Payne.   |
 |   J. Chem. Phys. 119(17), pp.8842-8848 (2003).                |
 |                                                               |
 |  "Total-energy calculations on a real space grid with         |
 |   localized functions and a plane-wave basis".                |
 |   A. A. Mostofi, C.-K. Skylaris, P. D. Haynes, M. C. Payne.   |
 |   Comput. Phys. Commun. 147, pp.788-802 (2002).               |
 |                                                               |
 |  "Accurate kinetic energy evaluation in electronic structure  |
 |   calculations with localized functions on real space grids"  |
 |   C.-K. Skylaris, A. A. Mostofi, P. D. Haynes, C. J. Pickard, |
 |   M. C. Payne.                                                |
 |   Comput. Phys. Commun. 140, pp.315-322 (2001).               |
 |                                                               |
 |  "Accurate ionic forces and geometry optimization in linear-  |
 |   scaling density-functional theory with local orbitals"      |
 |   N. D. M. Hine, M. Robinson, P. D. Haynes, C.-K. Skylaris,   |
 |   M. C. Payne, and A. A. Mostofi.                             |
 |   Phys. Rev. B 83 195102 (2011).                              |
 |                                                               |
 +---------------------------------------------------------------+

Job started: 07-05-2020 05:58 (+0100)
 
Reading parameters from file "host_25941.dat" ...... done

If your calculation crashes here, before "Checking processes and threads..."
is displayed, then your stack size is insufficient.
If so, use "ulimit -s unlimited" at runtime.
You can disable this check with "check_stack_size F".

Checking processes and threads...
   Determining the default number of threads...
      No default threads set at compilation time: defaulting to 1.
      OpenMP library call suggests 4 threads.
      Hybrid MPI-OpenMP compilation detected.
      Number of MPI processes > 1.
      OMP_NUM_THREADS environment variable present and
      its value matches the one obtained from the OpenMP library call.
      Using this value as default.
      Default threads: 4
      Default applies to threads_max and threads_num_fftboxes.
      Settings in the input file override this default.
   ... done

   Running with 40 MPI processes.
   There are 10 MPI processes running on the same node as the root process.
   Each MPI process is using: 
               1 threads for simulation cell FFTs.
               1 threads for parallel FFT box operations.
               4 threads for loops over batched FFT box operations.
               4 threads in other parallel regions.
... done

Basic input checks...... done

Reading geometry and species blocks from file "host_25941.dat" ...
  <species_atomic_set> block not found: NGWF initialisation set to SOLVE
IS: Dielectric excluded regions:
    - NONE.
    
  Number of PPD points along a3 set to 1.  This is 
  the default value, it may have been provided also in the input file.
... done
 Writing xyz coordinates to file "host_25941.xyz" ... done


--------------------------------------------------------------------------------
---------------------------------- INPUT FILE ----------------------------------
--------------------------------------------------------------------------------

cutoff_energy       : 800 eV                                                    
xc_functional PBE                                                               
task SINGLEPOINT                                                                
write_xyz true                                                                  
output_detail VERBOSE                                                           
ngwf_threshold_orig : 0.000002                                                  
kernel_cutoff       : 1000                                                      
k_zero              : 3.5                                                       
elec_cg_max 0                                                                   
occ_mix 1.0                                                                     
dispersion 1                                                                    
maxit_ngwf_cg 40                                                                
minit_lnv 10                                                                    
maxit_lnv 10                                                                    
write_denskern T                                                                
write_tightbox_ngwfs T                                                          
charge 9                                                                        
is_implicit_solvent T                                                           
is_auto_solvation T                                                             
is_include_apolar T                                                             
is_smeared_ion_rep T                                                            
is_solvent_surf_tension 4.7624E-5 Ha/bohr**2                                    
is_apolar_scaling_factor 0.281075                                               
is_solvation_beta 1.3                                                           
is_density_threshold 0.00035                                                    
is_bulk_permittivity 78.54                                                      
is_dielectric_model fix_initial                                                 
is_smeared_ion_width 0.8                                                        
mg_defco_fd_order 8                                                             
is_bc_coarseness 10                                                             
is_bc_surface_coarseness 1                                                      
fine_grid_scale 2.0                                                             
%block species                                                                  
N   N   7 4 8.0                                                                 
H   H   1 1 8.0                                                                 
C   C   6 4 8.0                                                                 
S   S  16 9 8.0                                                                 
O   O   8 4 8.0                                                                 
%endblock species                                                               
%block species_pot                                                              
N   N_00.recpot                                                                 
H   H_04.recpot                                                                 
C   C_01.recpot                                                                 
S   S_00.recpot                                                                 
O   O_02.recpot                                                                 
%endblock species_pot                                                           
%block lattice_cart                                                             
142.669   0.000   0.000                                                         
0.000 146.65   0.000                                                            
0.000   0.000   162.396                                                         
%endblock lattice_cart                                                          
%block positions_abs                                                            
     Hash =  -000009089026351671944335
%endblock positions_abs                                                         

--------------------------------------------------------------------------------
-------------------------------- END INPUT FILE --------------------------------
--------------------------------------------------------------------------------


 
 ESDF WARNING(1): "kernelcutoff" (esdf_physical) has no units. Assume "bohr".
 ESDF WARNING(2): "kzero" (esdf_physical) has no units. Assume "1/bohr".
 ESDF WARNING(3
 ): "issmearedionwidth" (esdf_physical) has no units. Assume "bohr".
<<<<<<<<<<<<<<<<<<<<<<<<<<<<<<<<< Full system >>>>>>>>>>>>>>>>>>>>>>>>>>>>>>>>>>
<<<<<<<<<<<<<<<<<<<<<<<<< Pseudopotential information >>>>>>>>>>>>>>>>>>>>>>>>>>
File: N_00.recpot [ 2001 points up to Gmax=  52.9 (1/bohr)]
  Atomic number:  7;  ionic charge:  5.000000
    Shell 1: l = 0; rc = 1.48 bohr
File: H_04.recpot [ 2001 points up to Gmax=  52.9 (1/bohr)]
  Atomic number:  1;  ionic charge:  1.000000
    Local potential
File: C_01.recpot [ 2001 points up to Gmax=  52.9 (1/bohr)]
  Atomic number:  6;  ionic charge:  4.000000
    Shell 1: l = 0; rc = 1.48 bohr
File: S_00.recpot [ 2001 points up to Gmax=  52.9 (1/bohr)]
  Atomic number: 16;  ionic charge:  6.000000
    Shell 1: l = 0; rc = 1.90 bohr
    Shell 2: l = 2; rc = 1.84 bohr
File: O_02.recpot [ 2001 points up to Gmax=  52.9 (1/bohr)]
  Atomic number:  8;  ionic charge:  6.000000
    Shell 1: l = 0; rc = 1.31 bohr
<<<<<<<<<<<<<<<<<<<<<<<<<<<<<<<<<<<<<<<<>>>>>>>>>>>>>>>>>>>>>>>>>>>>>>>>>>>>>>>>

-------------------------- Atom counting information ---------------------------
Symbol    Natoms    Nngwfs    Nprojs
  N        236       944       236
  H       1311      1311         0
  C        810      3240       810
  S          6        54        36
  O        239       956       239
.......   ......    ......    ......
Totals:   2602      6505      1321
--------------------------------------------------------------------------------

=============================== PSINC grid sizes ===============================
                      Simulation cell:  286 x 294 x 320
                              FFT-box:  105 x 105 x  99
                                  PPD:   11 x   6 x   1
Grid space d1=  0.498842657343a0 (KE cutoff=  30.52649Eh = 830.66799eV)
Grid space d2=  0.498809523810a0 (KE cutoff=  30.53054Eh = 830.77835eV)
Grid space d3=  0.507487500000a0 (KE cutoff=  29.49533Eh = 802.60885eV)
================================================================================

********************* Fourier parallelisation information **********************
       Coarse grid (whole simulation cell) dimensions:    286   294   320
          Real-space ('12') slabs/node (min max mean):      8     8     8
         Recip-space ('23') slabs/node (min max mean):      3     4     3
********************************************************************************

********************* Fourier parallelisation information **********************
       Double grid (whole simulation cell) dimensions:    572   588   640
          Real-space ('12') slabs/node (min max mean):     16    16    16
         Recip-space ('23') slabs/node (min max mean):      7     8     7
********************************************************************************
ONETEP fine grid is 572 x 588 x 640 gridpoints, 142.6690 x 146.6500 x 162.3960 bohr.
FD multigrid is     569 x 585 x 633 gridpoints, 141.9207 x 145.9018 x 160.6198 bohr.


Calculating local pseudopotential in open BC on a radial grid ...
Discrepancy between calculated realspace psloc and -Z/x on [5a0,261.215a0]:
max |rel. diff| # avg |rel. diff| #  avg rel. diff #  f # pseudopotential file
 0.000261901569    0.000004963664   0.000000071970   55  'N_00.recpot'
 0.000422260137    0.000017549664  -0.000000063361   55  'H_04.recpot'
 0.000361991046    0.000016543264   0.000000134927   55  'C_01.recpot'
 0.000447743184    0.000019132268   0.000000438157   55  'S_00.recpot'
 0.000711628927    0.000028437426   0.000000135877   55  'O_02.recpot'
... done

Atom SCF Calculation for N  : Z (AE atom) =   7 : Z (PS atom) =   5
Config String:
Orbitals (num,occ):  2     2.00 3.00
Orbitals   (num,l):  2        0    1
Real-space Grid (nr,dr,rmax): 1203    0.0066555740    8.0000000000
Spherical Bessel Basis (nsws,lmax,cutoff):   47    1  176.3951722778
Confining potential (l,width,scale):  0    3.0000000000  100.0000000000
Confining potential (l,width,scale):  1    3.0000000000  100.0000000000
  1         -4.7312375307   -3.4155304497    7.0523828109   -1.9351020946
  2         -9.7309464766   -2.0532547791    8.2966052865   -2.2494486027
  3         -9.6627394379   -2.1124926340    8.2327997121   -2.2369778124
  4         -9.6814993499   -2.1215521045    8.2229805960   -2.2365178421
  5         -9.6843326483   -2.1250939529    8.2191374534   -2.2362718126
  6         -9.6859628709   -2.1267894855    8.2172963573   -2.2362066344
  7         -9.6867347035   -2.1276425665    8.2163697352   -2.2361903369
  8         -9.6870802100   -2.1280764625    8.2158983890   -2.2361891460
  9         -9.6872290423   -2.1282977424    8.2156580222   -2.2361920435
 10         -9.6872901988   -2.1284107021    8.2155353368   -2.2361953393
 11         -9.6873135296   -2.1284684031    8.2154726809   -2.2361979819
 12         -9.6873212476   -2.1284978948    8.2154406648   -2.2361998431
 13         -9.6873229586   -2.1285129774    8.2154242957   -2.2362010676
 14         -9.6873226456   -2.1285206957    8.2154159216   -2.2362018403
 15         -9.6873218534   -2.1285246479    8.2154116349   -2.2362023142
 16         -9.6873212599   -2.1285262679    8.2154098784   -2.2362025420
 17         -9.6873207834   -2.1285272564    8.2154088068   -2.2362026955
 18         -9.6873204210   -2.1285278597    8.2154081529   -2.2362027982
 19         -9.6873201550   -2.1285282280    8.2154077538   -2.2362028667
 20         -9.6873199645   -2.1285284529    8.2154075102   -2.2362029121
 21         -9.6873198305   -2.1285285903    8.2154073614   -2.2362029421
 22         -9.6873197377   -2.1285286742    8.2154072705   -2.2362029618
Atom SCF converged after  22 iterations to a total energy of     -9.68731974

Atom SCF Calculation for H  : Z (AE atom) =   1 : Z (PS atom) =   1
Config String:
Orbitals (num,occ):  1     1.00
Orbitals   (num,l):  1        0
Real-space Grid (nr,dr,rmax): 1203    0.0066555740    8.0000000000
Spherical Bessel Basis (nsws,lmax,cutoff):   47    0  176.3951722778
Confining potential (l,width,scale):  0    3.0000000000  100.0000000000
  1         -0.3194257691   -0.2393854593    0.2820953124   -0.2424203209
  2         -0.3951823392   -0.2377116493    0.2886404059   -0.2475147891
  3         -0.4317044583   -0.2352244387    0.2921333887   -0.2514046172
  4         -0.4470703708   -0.2341892222    0.2934391879   -0.2531009782
  5         -0.4532132900   -0.2338556667    0.2938388426   -0.2537313520
  6         -0.4556579251   -0.2337612552    0.2939448584   -0.2539550462
  7         -0.4566418315   -0.2337377355    0.2939680120   -0.2540342273
  8         -0.4570437922   -0.2337331116    0.2939708287   -0.2540627372
  9         -0.4572102946   -0.2337328328    0.2939698291   -0.2540732650
 10         -0.4572800424   -0.2337332404    0.2939687193   -0.2540772588
 11         -0.4573095100   -0.2337335791    0.2939680317   -0.2540788122
 12         -0.4573220379   -0.2337337762    0.2939676699   -0.2540794294
 13         -0.4573273880   -0.2337338775    0.2939674931   -0.2540796787
 14         -0.4573296803   -0.2337339266    0.2939674099   -0.2540797808
 15         -0.4573306647   -0.2337339495    0.2939673718   -0.2540798230
 16         -0.4573310882   -0.2337339601    0.2939673545   -0.2540798406
 17         -0.4573312706   -0.2337339649    0.2939673467   -0.2540798479
 18         -0.4573313493   -0.2337339670    0.2939673433   -0.2540798510
Atom SCF converged after  18 iterations to a total energy of     -0.45733135

Atom SCF Calculation for C  : Z (AE atom) =   6 : Z (PS atom) =   4
Config String:
Orbitals (num,occ):  2     2.00 2.00
Orbitals   (num,l):  2        0    1
Real-space Grid (nr,dr,rmax): 1203    0.0066555740    8.0000000000
Spherical Bessel Basis (nsws,lmax,cutoff):   47    1  176.3951722778
Confining potential (l,width,scale):  0    3.0000000000  100.0000000000
Confining potential (l,width,scale):  1    3.0000000000  100.0000000000
  1         -5.2976922011   -1.3069684169    4.5135249990   -1.4493313817
  2         -5.3721716256   -1.3429755895    4.4750154450   -1.4361613026
  3         -5.3809959565   -1.3617365618    4.4541655428   -1.4305930207
  4         -5.3918938866   -1.3667928461    4.4484735100   -1.4294652294
  5         -5.3956096428   -1.3688539142    4.4461376126   -1.4290734646
  6         -5.3968271862   -1.3696852393    4.4451910874   -1.4289366866
  7         -5.3972028401   -1.3700178062    4.4448112275   -1.4288900460
  8         -5.3973067903   -1.3701500158    4.4446598370   -1.4288749220
  9         -5.3973286940   -1.3702023868    4.4445997329   -1.4288704293
 10         -5.3973289850   -1.3702230869    4.4445759233   -1.4288693188
 11         -5.3973254264   -1.3702312560    4.4445665049   -1.4288691775
 12         -5.3973224003   -1.3702344755    4.4445627836   -1.4288692549
 13         -5.3973208708   -1.3702354890    4.4445616088   -1.4288693270
 14         -5.3973198783   -1.3702360102    4.4445610034   -1.4288693814
 15         -5.3973192535   -1.3702362780    4.4445606917   -1.4288694190
 16         -5.3973188684   -1.3702364155    4.4445605313   -1.4288694437
 17         -5.3973186349   -1.3702364860    4.4445604489   -1.4288694595
 18         -5.3973184951   -1.3702365221    4.4445604065   -1.4288694693
 19         -5.3973184122   -1.3702365405    4.4445603848   -1.4288694753
Atom SCF converged after  19 iterations to a total energy of     -5.39731841

Atom SCF Calculation for S  : Z (AE atom) =  16 : Z (PS atom) =   6
Config String:
Orbitals (num,occ):  3     2.00 4.00 0.00
Orbitals   (num,l):  3        0    1    2
Real-space Grid (nr,dr,rmax): 1203    0.0066555740    8.0000000000
Spherical Bessel Basis (nsws,lmax,cutoff):   47    2  176.3951722778
Confining potential (l,width,scale):  0    3.0000000000  100.0000000000
Confining potential (l,width,scale):  1    3.0000000000  100.0000000000
Confining potential (l,width,scale):  2    3.0000000000  100.0000000000
  1        -12.4735062396   -1.0328741412   10.1554312477   -2.4512393157
  2         -9.9458301913   -2.4607392455    8.3041325857   -2.0306994528
  3        -10.1450417646   -2.2931184565    8.4831893826   -2.0812538287
  4        -10.1528335592   -2.2733105793    8.5050388867   -2.0896035179
  5        -10.1571940363   -2.2633716629    8.5160794258   -2.0939370707
  6        -10.1594380571   -2.2584938667    8.5215163935   -2.0961289008
  7        -10.1605856507   -2.2561081821    8.5241804044   -2.0972291378
  8        -10.1611799191   -2.2549395235    8.5254868240   -2.0977806248
  9        -10.1614918752   -2.2543658586    8.5261285885   -2.0980571586
 10        -10.1616572884   -2.2540839121    8.5264441898   -2.0981959233
 11        -10.1617455602   -2.2539453058    8.5265994231   -2.0982656006
 12        -10.1617928447   -2.2538772062    8.5266757320   -2.0983006047
 13        -10.1618182292   -2.2538437891    8.5267131983   -2.0983181961
 14        -10.1618318741   -2.2538274201    8.5267315620   -2.0983270391
 15        -10.1618392144   -2.2538194197    8.5267405433   -2.0983314852
 16        -10.1618431651   -2.2538155200    8.5267449245   -2.0983337210
 17        -10.1618452923   -2.2538136252    8.5267470551   -2.0983348455
 18        -10.1618464380   -2.2538127080    8.5267480875   -2.0983354110
 19        -10.1618470552   -2.2538122659    8.5267485856   -2.0983356955
 20        -10.1618473878   -2.2538120540    8.5267488248   -2.0983358386
 21        -10.1618475670   -2.2538119530    8.5267489389   -2.0983359106
 22        -10.1618476637   -2.2538119053    8.5267489929   -2.0983359468
Atom SCF converged after  22 iterations to a total energy of    -10.16184766

Atom SCF Calculation for O  : Z (AE atom) =   8 : Z (PS atom) =   6
Config String:
Orbitals (num,occ):  2     2.00 4.00
Orbitals   (num,l):  2        0    1
Real-space Grid (nr,dr,rmax): 1203    0.0066555740    8.0000000000
Spherical Bessel Basis (nsws,lmax,cutoff):   47    1  176.3951722778
Confining potential (l,width,scale):  0    3.0000000000  100.0000000000
Confining potential (l,width,scale):  1    3.0000000000  100.0000000000
  1         -1.8735052164   -7.5539365035   10.1554312477   -2.4512393157
  2        -16.0318313751   -3.1285771268   13.6395848164   -3.2358799643
  3        -15.9524020423   -3.0762819706   13.6967272503   -3.2536856837
  4        -15.8521515939   -3.0781493909   13.6951909330   -3.2561700440
  5        -15.8357139793   -3.0748501933   13.6988803334   -3.2580493133
  6        -15.8246052853   -3.0740779781   13.6997881576   -3.2588327446
  7        -15.8189019501   -3.0737449687   13.7001869911   -3.2592378801
  8        -15.8159785510   -3.0736026016   13.7003615168   -3.2594475790
  9        -15.8144776168   -3.0735437994   13.7004360379   -3.2595560735
 10        -15.8137058024   -3.0735207882   13.7004667348   -3.2596122456
 11        -15.8133083127   -3.0735125946   13.7004786868   -3.2596413656
 12        -15.8131032938   -3.0735102195   13.7004828997   -3.2596564858
 13        -15.8129973902   -3.0735099286   13.7004840891   -3.2596643505
 14        -15.8129426040   -3.0735102506   13.7004842061   -3.2596684489
 15        -15.8129142203   -3.0735106556   13.7004840157   -3.2596705887
 16        -15.8128994940   -3.0735109855   13.7004837906   -3.2596717080
 17        -15.8128918425   -3.0735112169   13.7004836103   -3.2596722946
 18        -15.8128878614   -3.0735113674   13.7004834848   -3.2596726026
 19        -15.8128857871   -3.0735114608   13.7004834035   -3.2596727646
 20        -15.8128847048   -3.0735115170   13.7004833533   -3.2596728500
 21        -15.8128841394   -3.0735115501   13.7004833231   -3.2596728951
 22        -15.8128838436   -3.0735115693   13.7004833054   -3.2596729190
 23        -15.8128836887   -3.0735115802   13.7004832951   -3.2596729316
 24        -15.8128836074   -3.0735115864   13.7004832893   -3.2596729383
Atom SCF converged after  24 iterations to a total energy of    -15.81288361

========================== Calculation in vacuum ==============================
= Adjusting the following parameters: 
= is_implicit_solvent: F
= is_include_apolar: F
= write_denskern: T
= write_tightbox_ngwfs: T
= restart read filename prefix: ""
= restart write filename prefix: "vacuum_"
===============================================================================

Determining parallel strategy ...
... using space-filling curve
... NGWF load balancing: max    163;  min    162;  average    163
... Projector load balancing: max     36;  min     32;  average     33
... done
Calculating direct Ion-Ion energy ...
Ion-Ion Energy        :    822856.76035354216583
======================= Empirical dispersion information =======================
Model : Elstner
Dispersion Correction Energy: -0.32306171E+01 Hartree
================================================================================
Basis initialisation ...... NGWF spheres initialised
... Projector spheres initialised
... NGWF tight boxes initialised
... Tight-boxes gathered
... NGWF basis size (local,global):    1186321  47299443
... Nonlocal pseudopotential projector initialisation
... done

========================== Sparse matrix information ===========================
                        Overlap matrix filling:   6.69%
                        Density kernel filling: 100.00%
              NGWF-Proj overlap matrix filling:   1.77%
                    Hamiltonian matrix filling:   7.53%
                  NGWF diagonal matrix filling:   0.05%
                             KS matrix filling: 100.00% 
                           KSKS matrix filling: 100.00% 
================================================================================

Sparse matrix initialisation ... done

Generating smeared ion density ... done
Smeared ion self correction:     -14457.169564
Smeared ion non-self correction: -822808.725733
NGWF initialisation ...... done
============ Calculation of NGWF S^-1 using Hotelling algorithm ================ 
         Iteration  |  Frobenius norm and Maximum abs value    (of I-S*S_n^-1)   
               1       0.78518246E+02     0.98283590E+00
               2       0.76693829E+02     0.96615189E+00
               3       0.73729022E+02     0.93411765E+00
               4       0.69496949E+02     0.87477319E+00
               5       0.64208097E+02     0.77198234E+00
               6       0.58249343E+02     0.70249209E+00
               7       0.52237599E+02     0.66860696E+00
               8       0.46680646E+02     0.64427203E+00
               9       0.40650672E+02     0.60477462E+00
              10       0.32451807E+02     0.53607676E+00
              11       0.21919641E+02     0.42788960E+00
              12       0.11283309E+02     0.28835587E+00
              13       0.37676446E+01     0.13699312E+00
              14       0.61727456E+00     0.40721146E-01
              15       0.34480620E-01     0.47082825E-02
              16       0.31357592E-03     0.66030694E-04
              17       0.51993953E-07     0.13128940E-07
              18       0.97533225E-13     0.57731597E-14
================================================================================
Calculating local pseudopotential in open BC on the fine real space grid ...
... done

MG BCs: +ve charge blocks (gridpoints):     20728 (   16307736).
MG BCs: -ve charge blocks (gridpoints):      8124 (    1096633).
MG BCs:     Elided blocks (gridpoints):    194504 (  193299176).
MG BCs: Computational effort saved:  99.9863%.
MG BCs: Charge after coarse-graining:           -9.0002284.
MG DL_MG: Calling solver with defect correction order = 8
MG DL_MG: Solver finished
MG Hartree energy from (\int phi*rho dr):              1462.614284
MG Hartree energy from (\int eps (grad phi)^2 dr):     1462.014192
MG Discrepancy due to finite box and discretization:     -0.600092 (  -0.04103%)
MG Correction to account for finite box:                  0.453433
MG Remaining discrepancy, due to discretization:         -0.146659 (  -0.01003%)
Up spin density kernel initialisation ... 
======= Optimisation of K by Palser-Manolopoulos canonical purification ======== 
         Iteration  |  Band structure energy |    c_n   
               1       -2573.62003612191847    0.5272527
               2       -2749.06294371219974    0.5172739
               3       -2929.43125498667268    0.5153387
               4       -3080.75296755596764    0.5286028
               5       -3174.32109931291961    0.5643651
               6       -3213.59990377388067    0.6091483
               7       -3226.93511839435087    0.6192904
               8       -3232.74482630767034    0.6148317
               9       -3235.57225178119597    0.6267618
              10       -3236.72514754641770    0.6553345
              11       -3237.15012532740457    0.6867067
              12       -3237.31737783798235    0.6903565
              13       -3237.40088398534590    0.6467283
              14       -3237.45594732271638    0.5788154
              15       -3237.49006429901510    0.5003137
              16       -3237.50417936468421    0.4224237
              17       -3237.50529504041970    0.3741471
              18       -3237.50569987661493    0.3486368
              19       -3237.50582183659299    0.3603647
              20       -3237.50590806749551    0.3843553
              21       -3237.50599440951646    0.4178413
              22       -3237.50607636720815    0.4575770
              23       -3237.50614525094170    0.4887075
              24       -3237.50620034264466    0.4992202
              25       -3237.50624857433377    0.4999963
              26       -3237.50628103129930    0.5000000
              27       -3237.50629063390988    0.5000000
              28       -3237.50629124367333    0.5000005
              29       -3237.50629124589614    0.5000005
Termination criterion satisfied: band energy change below threshold.
Final occupancy bounds: [    0.00000000000000:    1.00000000000000]
Closest occupancy to 0.5:     1.00000000000000
================================================================================
... done

Writing density kernel to file "host_25941.vacuum_dkn" ... done

>>> Optimising kernel for current NGWFs:
   Initial electron number for spin 1:    7192.00000000
     Final electron number for spin 1:    7192.00000000

=================== Penalty functional idempotency correction ==================
 RMS occupancy error at iteration   1:  0.000000 (step -0.5000 Ne1=   7192.0000)
            Final RMS occupancy error   :  0.000000 (Ne1=   7192.0000)
               Final occupancy bounds   : [  0.0000,  1.0000]
================================================================================

................................................................................
<<<<<<<<<<<<<< LNV (Original version) density kernel optimisation >>>>>>>>>>>>>>
~~~~~~~~~~~~~~~~~~~~~~~~~~~~~~~~~~~~~~~~~~~~~~~~~~~~~~~~~~~~~~~~~~~~~~~~~~~~~~~~
   iter  |      energy (Eh)       | rms gradient |  commutator  |   dE (Eh)
MG BCs: +ve charge blocks (gridpoints):     31614 (   17462206).
MG BCs: -ve charge blocks (gridpoints):      8468 (    1130387).
MG BCs:     Elided blocks (gridpoints):    183609 (  192110952).
MG BCs: Computational effort saved:  99.9810%.
MG BCs: Charge after coarse-graining:           -9.0010098.
MG DL_MG: Calling solver with defect correction order = 8
MG DL_MG: Solver finished
MG Hartree energy from (\int phi*rho dr):              1417.947566
MG Hartree energy from (\int eps (grad phi)^2 dr):     1417.293454
MG Discrepancy due to finite box and discretization:     -0.654112 (  -0.04613%)
MG Correction to account for finite box:                  0.465773
MG Remaining discrepancy, due to discretization:         -0.188339 (  -0.01328%)
      ideal mu1:      -0.700479778236
             Q0:  -11507.676275566220
             G0:    -146.210548573063
   RMS gradient:       0.001858840184
MG BCs: +ve charge blocks (gridpoints):     31621 (   17544100).
MG BCs: -ve charge blocks (gridpoints):      8353 (    1109390).
MG BCs:     Elided blocks (gridpoints):    183602 (  192050055).
MG BCs: Computational effort saved:  99.9810%.
MG BCs: Charge after coarse-graining:           -9.0010315.
MG DL_MG: Calling solver with defect correction order = 8
MG DL_MG: Solver finished
MG Hartree energy from (\int phi*rho dr):              1442.955417
MG Hartree energy from (\int eps (grad phi)^2 dr):     1442.317224
MG Discrepancy due to finite box and discretization:     -0.638193 (  -0.04423%)
MG Correction to account for finite box:                  0.465349
MG Remaining discrepancy, due to discretization:         -0.172844 (  -0.01198%)
     Trial step:       0.500000000000
             Q1:  -11519.277614853228
 Quadratic coef:      61.503934999524
 Linear coef   :     -73.105274286531
           Qmin:  -11529.400012139133
Quadratic minimum step length (  0.297156898526) accepted
    Initial Ne1:    7192.00000000
      Final Ne1:    7192.00000000

=================== Penalty functional idempotency correction ==================
 RMS occupancy error at iteration   1:  0.003438 (step -0.4884 Ne1=   7192.0000)
 RMS occupancy error at iteration   2:  0.000027 (step -0.5001 Ne1=   7192.0000)
            Final RMS occupancy error   :  0.000000 (Ne1=   7192.0000)
               Final occupancy bounds   : [  0.0000,  1.0000]
================================================================================

    1        -1.150767627557E+04     1.8588E-03     1.6813E-03
MG BCs: +ve charge blocks (gridpoints):     31622 (   17512425).
MG BCs: -ve charge blocks (gridpoints):      8395 (    1118219).
MG BCs:     Elided blocks (gridpoints):    183600 (  192072901).
MG BCs: Computational effort saved:  99.9810%.
MG BCs: Charge after coarse-graining:           -9.0010227.
MG DL_MG: Calling solver with defect correction order = 8
MG DL_MG: Solver finished
MG Hartree energy from (\int phi*rho dr):              1424.801200
MG Hartree energy from (\int eps (grad phi)^2 dr):     1424.157467
MG Discrepancy due to finite box and discretization:     -0.643732 (  -0.04518%)
MG Correction to account for finite box:                  0.465426
MG Remaining discrepancy, due to discretization:         -0.178306 (  -0.01251%)
      ideal mu1:      -0.746529514077
             Q0:  -11529.805823343457
             G0:     -12.199919500659
   RMS gradient:       0.000533311346
MG BCs: +ve charge blocks (gridpoints):     31620 (   17529407).
MG BCs: -ve charge blocks (gridpoints):      8369 (    1112847).
MG BCs:     Elided blocks (gridpoints):    183603 (  192061291).
MG BCs: Computational effort saved:  99.9810%.
MG BCs: Charge after coarse-graining:           -9.0010264.
MG DL_MG: Calling solver with defect correction order = 8
MG DL_MG: Solver finished
MG Hartree energy from (\int phi*rho dr):              1429.895818
MG Hartree energy from (\int eps (grad phi)^2 dr):     1429.255798
MG Discrepancy due to finite box and discretization:     -0.640021 (  -0.04476%)
MG Correction to account for finite box:                  0.464840
MG Remaining discrepancy, due to discretization:         -0.175181 (  -0.01225%)
     Trial step:       0.385458751701
             Q1:  -11532.660974470433
 Quadratic coef:       1.847414614605
 Linear coef   :      -4.702565741582
           Qmin:  -11532.798400697109
Quadratic minimum step length (  0.490589688480) accepted
    Initial Ne1:    7191.99989631
      Final Ne1:    7192.00000000

=================== Penalty functional idempotency correction ==================
 RMS occupancy error at iteration   1:  0.001817 (step -0.4930 Ne1=   7192.0000)
 RMS occupancy error at iteration   2:  0.000012 (step -0.5002 Ne1=   7192.0000)
            Final RMS occupancy error   :  0.000000 (Ne1=   7192.0000)
               Final occupancy bounds   : [  0.0000,  1.0000]
================================================================================

    2        -1.152980582334E+04     5.3331E-04     4.8237E-04    -2.2130E+01
MG BCs: +ve charge blocks (gridpoints):     31618 (   17534126).
MG BCs: -ve charge blocks (gridpoints):      8355 (    1111445).
MG BCs:     Elided blocks (gridpoints):    183605 (  192057974).
MG BCs: Computational effort saved:  99.9810%.
MG BCs: Charge after coarse-graining:           -9.0010273.
MG DL_MG: Calling solver with defect correction order = 8
MG DL_MG: Solver finished
MG Hartree energy from (\int phi*rho dr):              1431.335026
MG Hartree energy from (\int eps (grad phi)^2 dr):     1430.695945
MG Discrepancy due to finite box and discretization:     -0.639081 (  -0.04465%)
MG Correction to account for finite box:                  0.464692
MG Remaining discrepancy, due to discretization:         -0.174389 (  -0.01218%)
      ideal mu1:      -0.771414424647
             Q0:  -11532.835605625529
             G0:      -1.961544536149
   RMS gradient:       0.000213933644
MG BCs: +ve charge blocks (gridpoints):     31624 (   17533610).
MG BCs: -ve charge blocks (gridpoints):      8361 (    1112544).
MG BCs:     Elided blocks (gridpoints):    183600 (  192057391).
MG BCs: Computational effort saved:  99.9810%.
MG BCs: Charge after coarse-graining:           -9.0010270.
MG DL_MG: Calling solver with defect correction order = 8
MG DL_MG: Solver finished
MG Hartree energy from (\int phi*rho dr):              1429.151074
MG Hartree energy from (\int eps (grad phi)^2 dr):     1428.512481
MG Discrepancy due to finite box and discretization:     -0.638593 (  -0.04468%)
MG Correction to account for finite box:                  0.464416
MG Remaining discrepancy, due to discretization:         -0.174177 (  -0.01219%)
     Trial step:       0.434858699946
             Q1:  -11533.332699821447
 Quadratic coef:       0.355900510958
 Linear coef   :      -0.852994706877
           Qmin:  -11533.346703493864
Quadratic minimum step length (  0.521117781336) accepted
    Initial Ne1:    7191.99992827
      Final Ne1:    7192.00000000

=================== Penalty functional idempotency correction ==================
 RMS occupancy error at iteration   1:  0.000644 (step -0.4969 Ne1=   7192.0000)
 RMS occupancy error at iteration   2:  0.000003 (step -0.5000 Ne1=   7192.0000)
            Final RMS occupancy error   :  0.000000 (Ne1=   7192.0000)
               Final occupancy bounds   : [  0.0000,  1.0000]
================================================================================

    3        -1.153283560563E+04     2.1393E-04     1.9350E-04    -3.0298E+00
MG BCs: +ve charge blocks (gridpoints):     31625 (   17533506).
MG BCs: -ve charge blocks (gridpoints):      8363 (    1112737).
MG BCs:     Elided blocks (gridpoints):    183599 (  192057302).
MG BCs: Computational effort saved:  99.9810%.
MG BCs: Charge after coarse-graining:           -9.0010270.
MG DL_MG: Calling solver with defect correction order = 8
MG DL_MG: Solver finished
MG Hartree energy from (\int phi*rho dr):              1428.727401
MG Hartree energy from (\int eps (grad phi)^2 dr):     1428.088895
MG Discrepancy due to finite box and discretization:     -0.638506 (  -0.04469%)
MG Correction to account for finite box:                  0.464362
MG Remaining discrepancy, due to discretization:         -0.174144 (  -0.01219%)
      ideal mu1:      -0.772310051277
             Q0:  -11533.351521036238
             G0:      -0.524141912924
   RMS gradient:       0.000110721382
MG BCs: +ve charge blocks (gridpoints):     31619 (   17534347).
MG BCs: -ve charge blocks (gridpoints):      8361 (    1112508).
MG BCs:     Elided blocks (gridpoints):    183605 (  192056690).
MG BCs: Computational effort saved:  99.9810%.
MG BCs: Charge after coarse-graining:           -9.0010272.
MG DL_MG: Calling solver with defect correction order = 8
MG DL_MG: Solver finished
MG Hartree energy from (\int phi*rho dr):              1429.907830
MG Hartree energy from (\int eps (grad phi)^2 dr):     1429.269354
MG Discrepancy due to finite box and discretization:     -0.638477 (  -0.04465%)
MG Correction to account for finite box:                  0.464229
MG Remaining discrepancy, due to discretization:         -0.174248 (  -0.01219%)
     Trial step:       0.476038444782
             Q1:  -11533.481341742561
 Quadratic coef:       0.119690994750
 Linear coef   :      -0.249511701073
           Qmin:  -11533.481556067492
Quadratic minimum step length (  0.496182533957) accepted
    Initial Ne1:    7191.99998173
      Final Ne1:    7192.00000000

=================== Penalty functional idempotency correction ==================
 RMS occupancy error at iteration   1:  0.000304 (step -0.4944 Ne1=   7192.0000)
 RMS occupancy error at iteration   2:  0.000004 (step -0.5000 Ne1=   7192.0000)
            Final RMS occupancy error   :  0.000000 (Ne1=   7192.0000)
               Final occupancy bounds   : [  0.0000,  1.0000]
================================================================================

    4        -1.153335152104E+04     1.1072E-04     1.0014E-04    -5.1592E-01
MG BCs: +ve charge blocks (gridpoints):     31619 (   17534372).
MG BCs: -ve charge blocks (gridpoints):      8361 (    1112515).
MG BCs:     Elided blocks (gridpoints):    183605 (  192056658).
MG BCs: Computational effort saved:  99.9810%.
MG BCs: Charge after coarse-graining:           -9.0010273.
MG DL_MG: Calling solver with defect correction order = 8
MG DL_MG: Solver finished
MG Hartree energy from (\int phi*rho dr):              1429.958448
MG Hartree energy from (\int eps (grad phi)^2 dr):     1429.319972
MG Discrepancy due to finite box and discretization:     -0.638476 (  -0.04465%)
MG Correction to account for finite box:                  0.464223
MG Remaining discrepancy, due to discretization:         -0.174253 (  -0.01219%)
      ideal mu1:      -0.772599190987
             Q0:  -11533.482176424586
             G0:      -0.200883840558
   RMS gradient:       0.000068749682
MG BCs: +ve charge blocks (gridpoints):     31618 (   17534696).
MG BCs: -ve charge blocks (gridpoints):      8360 (    1112286).
MG BCs:     Elided blocks (gridpoints):    183606 (  192056563).
MG BCs: Computational effort saved:  99.9810%.
MG BCs: Charge after coarse-graining:           -9.0010272.
MG DL_MG: Calling solver with defect correction order = 8
MG DL_MG: Solver finished
MG Hartree energy from (\int phi*rho dr):              1430.445622
MG Hartree energy from (\int eps (grad phi)^2 dr):     1429.807044
MG Discrepancy due to finite box and discretization:     -0.638578 (  -0.04464%)
MG Correction to account for finite box:                  0.464175
MG Remaining discrepancy, due to discretization:         -0.174403 (  -0.01219%)
     Trial step:       0.486006133493
             Q1:  -11533.548013697495
 Quadratic coef:       0.031793505723
 Linear coef   :      -0.097630778631
           Qmin:  -11533.557127021566
Quadratic minimum step length (  0.746208323893) accepted
    Initial Ne1:    7191.99998906
      Final Ne1:    7192.00000000

=================== Penalty functional idempotency correction ==================
 RMS occupancy error at iteration   1:  0.000646 (step -0.4578 Ne1=   7192.0000)
 RMS occupancy error at iteration   2:  0.000018 (step -0.4999 Ne1=   7192.0000)
            Final RMS occupancy error   :  0.000000 (Ne1=   7192.0000)
               Final occupancy bounds   : [ -0.0000,  1.0000]
================================================================================

    5        -1.153348217642E+04     6.8750E-05     6.2183E-05    -1.3066E-01
MG BCs: +ve charge blocks (gridpoints):     31616 (   17534985).
MG BCs: -ve charge blocks (gridpoints):      8358 (    1112125).
MG BCs:     Elided blocks (gridpoints):    183608 (  192056435).
MG BCs: Computational effort saved:  99.9810%.
MG BCs: Charge after coarse-graining:           -9.0010271.
MG DL_MG: Calling solver with defect correction order = 8
MG DL_MG: Solver finished
MG Hartree energy from (\int phi*rho dr):              1430.705159
MG Hartree energy from (\int eps (grad phi)^2 dr):     1430.066524
MG Discrepancy due to finite box and discretization:     -0.638635 (  -0.04464%)
MG Correction to account for finite box:                  0.464151
MG Remaining discrepancy, due to discretization:         -0.174484 (  -0.01220%)
      ideal mu1:      -0.772478855098
             Q0:  -11533.555316843325
             G0:      -0.212889280359
   RMS gradient:       0.000072038842
MG BCs: +ve charge blocks (gridpoints):     31619 (   17534278).
MG BCs: -ve charge blocks (gridpoints):      8361 (    1112571).
MG BCs:     Elided blocks (gridpoints):    183605 (  192056696).
MG BCs: Computational effort saved:  99.9810%.
MG BCs: Charge after coarse-graining:           -9.0010269.
MG DL_MG: Calling solver with defect correction order = 8
MG DL_MG: Solver finished
MG Hartree energy from (\int phi*rho dr):              1429.351050
MG Hartree energy from (\int eps (grad phi)^2 dr):     1428.712375
MG Discrepancy due to finite box and discretization:     -0.638675 (  -0.04468%)
MG Correction to account for finite box:                  0.464188
MG Remaining discrepancy, due to discretization:         -0.174487 (  -0.01221%)
     Trial step:       0.602214100030
             Q1:  -11533.644683498656
 Quadratic coef:       0.038838271046
 Linear coef   :      -0.128204926378
           Qmin:  -11533.661117788532
Quadratic minimum step length (  0.993952772334) accepted
    Initial Ne1:    7191.99999272
      Final Ne1:    7192.00000000

=================== Penalty functional idempotency correction ==================
 RMS occupancy error at iteration   1:  0.004479 (step -0.2937 Ne1=   7192.0000)
 RMS occupancy error at iteration   2:  0.000248 (step -0.4927 Ne1=   7192.0000)
 RMS occupancy error at iteration   3:  0.000003 (step -0.5000 Ne1=   7192.0000)
            Final RMS occupancy error   :  0.000000 (Ne1=   7192.0000)
               Final occupancy bounds   : [  0.0000,  1.0000]
================================================================================

    6        -1.153355531684E+04     7.2039E-05     6.5157E-05    -7.3140E-02
MG BCs: +ve charge blocks (gridpoints):     31617 (   17533872).
MG BCs: -ve charge blocks (gridpoints):      8363 (    1112841).
MG BCs:     Elided blocks (gridpoints):    183607 (  192056832).
MG BCs: Computational effort saved:  99.9810%.
MG BCs: Charge after coarse-graining:           -9.0010267.
MG DL_MG: Calling solver with defect correction order = 8
MG DL_MG: Solver finished
MG Hartree energy from (\int phi*rho dr):              1428.501529
MG Hartree energy from (\int eps (grad phi)^2 dr):     1427.862825
MG Discrepancy due to finite box and discretization:     -0.638704 (  -0.04471%)
MG Correction to account for finite box:                  0.464210
MG Remaining discrepancy, due to discretization:         -0.174494 (  -0.01222%)
      ideal mu1:      -0.771926555322
             Q0:  -11533.645131888217
             G0:      -0.316741251041
   RMS gradient:       0.000086517709
MG BCs: +ve charge blocks (gridpoints):     31614 (   17535163).
MG BCs: -ve charge blocks (gridpoints):      8359 (    1112066).
MG BCs:     Elided blocks (gridpoints):    183610 (  192056316).
MG BCs: Computational effort saved:  99.9810%.
MG BCs: Charge after coarse-graining:           -9.0010275.
MG DL_MG: Calling solver with defect correction order = 8
MG DL_MG: Solver finished
MG Hartree energy from (\int phi*rho dr):              1430.387446
MG Hartree energy from (\int eps (grad phi)^2 dr):     1429.748990
MG Discrepancy due to finite box and discretization:     -0.638456 (  -0.04464%)
MG Correction to account for finite box:                  0.464235
MG Remaining discrepancy, due to discretization:         -0.174221 (  -0.01218%)
     Trial step:       0.773674591973
             Q1:  -11533.744946778170
 Quadratic coef:       0.145239768208
 Linear coef   :      -0.245054658160
           Qmin:  -11533.748498525032
Quadratic minimum step length (  0.652688189338) accepted
    Initial Ne1:    7191.99999857
      Final Ne1:    7192.00000000

=================== Penalty functional idempotency correction ==================
 RMS occupancy error at iteration   1:  0.000217 (step -0.4837 Ne1=   7192.0000)
 RMS occupancy error at iteration   2:  0.000002 (step -0.5000 Ne1=   7192.0000)
            Final RMS occupancy error   :  0.000000 (Ne1=   7192.0000)
               Final occupancy bounds   : [  0.0000,  1.0000]
================================================================================

    7        -1.153364513189E+04     8.6518E-05     7.8253E-05    -8.9815E-02
MG BCs: +ve charge blocks (gridpoints):     31616 (   17534983).
MG BCs: -ve charge blocks (gridpoints):      8360 (    1112192).
MG BCs:     Elided blocks (gridpoints):    183608 (  192056370).
MG BCs: Computational effort saved:  99.9810%.
MG BCs: Charge after coarse-graining:           -9.0010273.
MG DL_MG: Calling solver with defect correction order = 8
MG DL_MG: Solver finished
MG Hartree energy from (\int phi*rho dr):              1430.091220
MG Hartree energy from (\int eps (grad phi)^2 dr):     1429.452726
MG Discrepancy due to finite box and discretization:     -0.638493 (  -0.04465%)
MG Correction to account for finite box:                  0.464231
MG Remaining discrepancy, due to discretization:         -0.174263 (  -0.01219%)
      ideal mu1:      -0.772788404543
             Q0:  -11533.748705490259
             G0:      -0.213175134471
   RMS gradient:       0.000070940453
MG BCs: +ve charge blocks (gridpoints):     31618 (   17535069).
MG BCs: -ve charge blocks (gridpoints):      8359 (    1112070).
MG BCs:     Elided blocks (gridpoints):    183606 (  192056406).
MG BCs: Computational effort saved:  99.9810%.
MG BCs: Charge after coarse-graining:           -9.0010274.
MG DL_MG: Calling solver with defect correction order = 8
MG DL_MG: Solver finished
MG Hartree energy from (\int phi*rho dr):              1430.150274
MG Hartree energy from (\int eps (grad phi)^2 dr):     1429.511798
MG Discrepancy due to finite box and discretization:     -0.638477 (  -0.04464%)
MG Correction to account for finite box:                  0.464341
MG Remaining discrepancy, due to discretization:         -0.174136 (  -0.01218%)
     Trial step:       0.710611193672
             Q1:  -11533.824176087859
 Quadratic coef:       0.076014039169
 Linear coef   :      -0.151484636768
           Qmin:  -11533.824177059156
Quadratic minimum step length (  0.708071033549) accepted
    Initial Ne1:    7191.99999861
      Final Ne1:    7192.00000000

=================== Penalty functional idempotency correction ==================
 RMS occupancy error at iteration   1:  0.000931 (step -0.4377 Ne1=   7192.0000)
 RMS occupancy error at iteration   2:  0.000025 (step -0.4987 Ne1=   7192.0000)
            Final RMS occupancy error   :  0.000000 (Ne1=   7192.0000)
               Final occupancy bounds   : [ -0.0000,  1.0000]
================================================================================

    8        -1.153374870549E+04     7.0940E-05     6.4164E-05    -1.0357E-01
MG BCs: +ve charge blocks (gridpoints):     31618 (   17535067).
MG BCs: -ve charge blocks (gridpoints):      8359 (    1112072).
MG BCs:     Elided blocks (gridpoints):    183606 (  192056406).
MG BCs: Computational effort saved:  99.9810%.
MG BCs: Charge after coarse-graining:           -9.0010274.
MG DL_MG: Calling solver with defect correction order = 8
MG DL_MG: Solver finished
MG Hartree energy from (\int phi*rho dr):              1430.150982
MG Hartree energy from (\int eps (grad phi)^2 dr):     1429.512506
MG Discrepancy due to finite box and discretization:     -0.638476 (  -0.04464%)
MG Correction to account for finite box:                  0.464340
MG Remaining discrepancy, due to discretization:         -0.174136 (  -0.01218%)
      ideal mu1:      -0.772334659991
             Q0:  -11533.824846742908
             G0:      -0.149728891430
   RMS gradient:       0.000058896505
MG BCs: +ve charge blocks (gridpoints):     31621 (   17534525).
MG BCs: -ve charge blocks (gridpoints):      8362 (    1112443).
MG BCs:     Elided blocks (gridpoints):    183603 (  192056577).
MG BCs: Computational effort saved:  99.9810%.
MG BCs: Charge after coarse-graining:           -9.0010272.
MG DL_MG: Calling solver with defect correction order = 8
MG DL_MG: Solver finished
MG Hartree energy from (\int phi*rho dr):              1429.384743
MG Hartree energy from (\int eps (grad phi)^2 dr):     1428.746323
MG Discrepancy due to finite box and discretization:     -0.638420 (  -0.04466%)
MG Correction to account for finite box:                  0.464321
MG Remaining discrepancy, due to discretization:         -0.174099 (  -0.01218%)
     Trial step:       0.709339976566
             Q1:  -11533.883266752702
 Quadratic coef:       0.047788678543
 Linear coef   :      -0.106208688338
           Qmin:  -11533.883858028752
Quadratic minimum step length (  0.788241805319) accepted
    Initial Ne1:    7192.00050601
      Final Ne1:    7192.00000000

=================== Penalty functional idempotency correction ==================
 RMS occupancy error at iteration   1:  0.001959 (step -0.3923 Ne1=   7192.0000)
 RMS occupancy error at iteration   2:  0.000097 (step -0.4949 Ne1=   7192.0000)
 RMS occupancy error at iteration   3:  0.000001 (step -0.5000 Ne1=   7192.0000)
            Final RMS occupancy error   :  0.000000 (Ne1=   7192.0000)
               Final occupancy bounds   : [  0.0000,  1.0000]
================================================================================

    9        -1.153382484674E+04     5.8897E-05     5.3270E-05    -7.6141E-02
MG BCs: +ve charge blocks (gridpoints):     31621 (   17534477).
MG BCs: -ve charge blocks (gridpoints):      8362 (    1112449).
MG BCs:     Elided blocks (gridpoints):    183603 (  192056619).
MG BCs: Computational effort saved:  99.9810%.
MG BCs: Charge after coarse-graining:           -9.0010272.
MG DL_MG: Calling solver with defect correction order = 8
MG DL_MG: Solver finished
MG Hartree energy from (\int phi*rho dr):              1429.303181
MG Hartree energy from (\int eps (grad phi)^2 dr):     1428.664757
MG Discrepancy due to finite box and discretization:     -0.638424 (  -0.04467%)
MG Correction to account for finite box:                  0.464329
MG Remaining discrepancy, due to discretization:         -0.174095 (  -0.01218%)
      ideal mu1:      -0.771579677360
   10        -1.153388619906E+04     5.3467E-05     4.8359E-05    -6.1352E-02
Finished density kernel iterations (  10)

Writing density kernel to file "host_25941.vacuum_dkn" ... done


>>> Density kernel optimised for the current NGWF basis:
     ~~~~~~~~~~~~~~~~~~~~~~~~~~~~~~~~~~~~~~~~~~~~~~~~~~~~~~~~~~~
     Total energy                =  -1.15338861990550E+04  Eh
     Estimated bandgap           =  -4.5476E-01  Eh
     RMS occupancy error         =   5.4773E-11
     [H,K] commutator            =   4.8359E-05
     Occupancy bounds            = [  0.000:  1.000]
     ~~~~~~~~~~~~~~~~~~~~~~~~~~~~~~~~~~~~~~~~~~~~~~~~~~~~~~~~~~~




################################################################################
########################### NGWF CG iteration  001 #############################
################################################################################
****** Reciprocal space K.E. preconditioning with k_zero =  3.5000 a0^-1 *******

>>> Checking for convergence of NGWFs:   NOT CONVERGED
  ========================================================================
         NGWF RMS gradient =  1.5612E-03 >  2.0000E-06  | above tolerance
  ========================================================================

>>> Improving NGWFs using line search:
============ Calculation of NGWF S^-1 using Hotelling algorithm ================ 
         Iteration  |  Frobenius norm and Maximum abs value    (of I-S*S_n^-1)   
               1       0.19191492E+00     0.52796085E-02
               2       0.85848692E-03     0.37669029E-04
               3       0.29438811E-07     0.23628315E-08
               4       0.12978608E-12     0.61062266E-14
================================================================================
MG BCs: +ve charge blocks (gridpoints):     31116 (   17467714).
MG BCs: -ve charge blocks (gridpoints):      8384 (    1112338).
MG BCs:     Elided blocks (gridpoints):    184107 (  192123493).
MG BCs: Computational effort saved:  99.9813%.
MG BCs: Charge after coarse-graining:           -9.0010305.
MG DL_MG: Calling solver with defect correction order = 8
MG DL_MG: Solver finished
MG Hartree energy from (\int phi*rho dr):              1398.103764
MG Hartree energy from (\int eps (grad phi)^2 dr):     1397.466075
MG Discrepancy due to finite box and discretization:     -0.637688 (  -0.04561%)
MG Correction to account for finite box:                  0.464250
MG Remaining discrepancy, due to discretization:         -0.173438 (  -0.01241%)
============ Calculation of NGWF S^-1 using Hotelling algorithm ================ 
         Iteration  |  Frobenius norm and Maximum abs value    (of I-S*S_n^-1)   
               1       0.18514867E+01     0.43570525E-01
               2       0.71491107E-01     0.23864372E-02
               3       0.14556008E-03     0.95363509E-05
               4       0.11422871E-08     0.16676160E-09
               5       0.10994804E-12     0.44408921E-14
================================================================================
------------------------------- NGWF line search -------------------------------
RMS gradient                =       0.00156122633100
Trial step length           =               0.122474
Gradient along search dir.  =       -269.28609834117
Functional at step 0        =  -11533.88619905500673
Functional at step 1        =  -11564.39827133074868
Functional predicted        =  -11644.04206201100351
Selected quadratic step     =               0.818133
--------------------------- NGWF line search finished --------------------------
                                               
Writing NGWFs to file "host_25941.vacuum_tightbox_ngwfs"....  done

>>> Optimising kernel for current NGWFs:
   Initial electron number for spin 1:    7226.25181320
     Final electron number for spin 1:    7192.00000000

=================== Penalty functional idempotency correction ==================
 RMS occupancy error at iteration   1:  0.004217 (step -0.4865 Ne1=   7192.0000)
 RMS occupancy error at iteration   2:  0.000068 (step -0.5003 Ne1=   7192.0000)
            Final RMS occupancy error   :  0.000000 (Ne1=   7192.0000)
               Final occupancy bounds   : [  0.0000,  1.0000]
================================================================================

................................................................................
<<<<<<<<<<<<<< LNV (Original version) density kernel optimisation >>>>>>>>>>>>>>
~~~~~~~~~~~~~~~~~~~~~~~~~~~~~~~~~~~~~~~~~~~~~~~~~~~~~~~~~~~~~~~~~~~~~~~~~~~~~~~~
   iter  |      energy (Eh)       | rms gradient |  commutator  |   dE (Eh)
MG BCs: +ve charge blocks (gridpoints):     24993 (   17187929).
MG BCs: -ve charge blocks (gridpoints):      8530 (    1096128).
MG BCs:     Elided blocks (gridpoints):    190239 (  192419488).
MG BCs: Computational effort saved:  99.9841%.
MG BCs: Charge after coarse-graining:           -9.0006700.
MG DL_MG: Calling solver with defect correction order = 8
MG DL_MG: Solver finished
MG Hartree energy from (\int phi*rho dr):              1243.230091
MG Hartree energy from (\int eps (grad phi)^2 dr):     1242.592181
MG Discrepancy due to finite box and discretization:     -0.637910 (  -0.05131%)
MG Correction to account for finite box:                  0.463870
MG Remaining discrepancy, due to discretization:         -0.174040 (  -0.01400%)
      ideal mu1:      -0.712345426653
             Q0:  -11643.227660709992
             G0:     -10.116862277158
   RMS gradient:       0.000488962573
MG BCs: +ve charge blocks (gridpoints):     25051 (   17203556).
MG BCs: -ve charge blocks (gridpoints):      8514 (    1092782).
MG BCs:     Elided blocks (gridpoints):    190181 (  192407207).
MG BCs: Computational effort saved:  99.9841%.
MG BCs: Charge after coarse-graining:           -9.0006660.
MG DL_MG: Calling solver with defect correction order = 8
MG DL_MG: Solver finished
MG Hartree energy from (\int phi*rho dr):              1259.464197
MG Hartree energy from (\int eps (grad phi)^2 dr):     1258.821290
MG Discrepancy due to finite box and discretization:     -0.642907 (  -0.05105%)
MG Correction to account for finite box:                  0.462849
MG Remaining discrepancy, due to discretization:         -0.180058 (  -0.01430%)
     Trial step:       0.747750910206
             Q1:  -11642.226964105619
 Quadratic coef:       8.565589580543
 Linear coef   :      -7.564892976170
           Qmin:  -11644.897937029060
Quadratic minimum step length (  0.330196512181) accepted
    Initial Ne1:    7191.99961388
      Final Ne1:    7192.00000000

=================== Penalty functional idempotency correction ==================
 RMS occupancy error at iteration   1:  0.000362 (step -0.4986 Ne1=   7192.0000)
 RMS occupancy error at iteration   2:  0.000000 (step -0.5000 Ne1=   7192.0000)
            Final RMS occupancy error   :  0.000000 (Ne1=   7192.0000)
               Final occupancy bounds   : [  0.0000,  1.0000]
================================================================================

    1        -1.164322766071E+04     4.8896E-04     4.4226E-04
MG BCs: +ve charge blocks (gridpoints):     25022 (   17194931).
MG BCs: -ve charge blocks (gridpoints):      8525 (    1094668).
MG BCs:     Elided blocks (gridpoints):    190210 (  192413946).
MG BCs: Computational effort saved:  99.9841%.
MG BCs: Charge after coarse-graining:           -9.0006682.
MG DL_MG: Calling solver with defect correction order = 8
MG DL_MG: Solver finished
MG Hartree energy from (\int phi*rho dr):              1249.362947
MG Hartree energy from (\int eps (grad phi)^2 dr):     1248.722935
MG Discrepancy due to finite box and discretization:     -0.640012 (  -0.05123%)
MG Correction to account for finite box:                  0.463396
MG Remaining discrepancy, due to discretization:         -0.176617 (  -0.01414%)
      ideal mu1:      -0.718311423054
             Q0:  -11644.870175625430
             G0:      -1.008552740442
   RMS gradient:       0.000155134572
MG BCs: +ve charge blocks (gridpoints):     25025 (   17194637).
MG BCs: -ve charge blocks (gridpoints):      8528 (    1095459).
MG BCs:     Elided blocks (gridpoints):    190207 (  192413449).
MG BCs: Computational effort saved:  99.9841%.
MG BCs: Charge after coarse-graining:           -9.0006681.
MG DL_MG: Calling solver with defect correction order = 8
MG DL_MG: Solver finished
MG Hartree energy from (\int phi*rho dr):              1250.501214
MG Hartree energy from (\int eps (grad phi)^2 dr):     1249.861062
MG Discrepancy due to finite box and discretization:     -0.640151 (  -0.05119%)
MG Correction to account for finite box:                  0.463168
MG Remaining discrepancy, due to discretization:         -0.176983 (  -0.01415%)
     Trial step:       0.496895102139
             Q1:  -11645.082939682994
 Quadratic coef:       0.288380859411
 Linear coef   :      -0.501144916975
           Qmin:  -11645.087896583336
Quadratic minimum step length (  0.431749276314) accepted
    Initial Ne1:    7191.99994917
      Final Ne1:    7192.00000000

=================== Penalty functional idempotency correction ==================
 RMS occupancy error at iteration   1:  0.000160 (step -0.4986 Ne1=   7192.0000)
 RMS occupancy error at iteration   2:  0.000001 (step -0.5000 Ne1=   7192.0000)
            Final RMS occupancy error   :  0.000000 (Ne1=   7192.0000)
               Final occupancy bounds   : [  0.0000,  1.0000]
================================================================================

    2        -1.164487017563E+04     1.5513E-04     1.4032E-04    -1.6425E+00
MG BCs: +ve charge blocks (gridpoints):     25025 (   17194678).
MG BCs: -ve charge blocks (gridpoints):      8526 (    1095362).
MG BCs:     Elided blocks (gridpoints):    190207 (  192413505).
MG BCs: Computational effort saved:  99.9841%.
MG BCs: Charge after coarse-graining:           -9.0006681.
MG DL_MG: Calling solver with defect correction order = 8
MG DL_MG: Solver finished
MG Hartree energy from (\int phi*rho dr):              1250.351791
MG Hartree energy from (\int eps (grad phi)^2 dr):     1249.711659
MG Discrepancy due to finite box and discretization:     -0.640133 (  -0.05120%)
MG Correction to account for finite box:                  0.463199
MG Remaining discrepancy, due to discretization:         -0.176934 (  -0.01415%)
      ideal mu1:      -0.719561628371
             Q0:  -11645.088372083381
             G0:      -0.189095030123
   RMS gradient:       0.000066777286
MG BCs: +ve charge blocks (gridpoints):     25027 (   17194130).
MG BCs: -ve charge blocks (gridpoints):      8528 (    1095731).
MG BCs:     Elided blocks (gridpoints):    190205 (  192413684).
MG BCs: Computational effort saved:  99.9841%.
MG BCs: Charge after coarse-graining:           -9.0006681.
MG DL_MG: Calling solver with defect correction order = 8
MG DL_MG: Solver finished
MG Hartree energy from (\int phi*rho dr):              1249.911231
MG Hartree energy from (\int eps (grad phi)^2 dr):     1249.271335
MG Discrepancy due to finite box and discretization:     -0.639896 (  -0.05120%)
MG Correction to account for finite box:                  0.462972
MG Remaining discrepancy, due to discretization:         -0.176924 (  -0.01415%)
     Trial step:       0.463178260233
             Q1:  -11645.152071275981
 Quadratic coef:       0.023885514471
 Linear coef   :      -0.087584707071
           Qmin:  -11645.168662178474
Quadratic minimum step length (  0.849203652155) accepted
    Initial Ne1:    7191.99998142
      Final Ne1:    7192.00000000

=================== Penalty functional idempotency correction ==================
 RMS occupancy error at iteration   1:  0.000375 (step -0.4736 Ne1=   7192.0000)
 RMS occupancy error at iteration   2:  0.000006 (step -0.5000 Ne1=   7192.0000)
            Final RMS occupancy error   :  0.000000 (Ne1=   7192.0000)
               Final occupancy bounds   : [ -0.0000,  1.0000]
================================================================================

    3        -1.164508837208E+04     6.6777E-05     6.0399E-05    -2.1820E-01
MG BCs: +ve charge blocks (gridpoints):     25026 (   17193728).
MG BCs: -ve charge blocks (gridpoints):      8529 (    1096036).
MG BCs:     Elided blocks (gridpoints):    190206 (  192413781).
MG BCs: Computational effort saved:  99.9841%.
MG BCs: Charge after coarse-graining:           -9.0006681.
MG DL_MG: Calling solver with defect correction order = 8
MG DL_MG: Solver finished
MG Hartree energy from (\int phi*rho dr):              1249.544533
MG Hartree energy from (\int eps (grad phi)^2 dr):     1248.904847
MG Discrepancy due to finite box and discretization:     -0.639686 (  -0.05119%)
MG Correction to account for finite box:                  0.462768
MG Remaining discrepancy, due to discretization:         -0.176918 (  -0.01416%)
      ideal mu1:      -0.719120685488
             Q0:  -11645.167874851730
             G0:      -0.132961271431
   RMS gradient:       0.000056365156
MG BCs: +ve charge blocks (gridpoints):     25023 (   17193351).
MG BCs: -ve charge blocks (gridpoints):      8528 (    1096213).
MG BCs:     Elided blocks (gridpoints):    190209 (  192413981).
MG BCs: Computational effort saved:  99.9841%.
MG BCs: Charge after coarse-graining:           -9.0006682.
MG DL_MG: Calling solver with defect correction order = 8
MG DL_MG: Solver finished
MG Hartree energy from (\int phi*rho dr):              1249.422019
MG Hartree energy from (\int eps (grad phi)^2 dr):     1248.783041
MG Discrepancy due to finite box and discretization:     -0.638977 (  -0.05114%)
MG Correction to account for finite box:                  0.462209
MG Remaining discrepancy, due to discretization:         -0.176768 (  -0.01415%)
     Trial step:       0.627162395388
             Q1:  -11645.228419130086
 Quadratic coef:       0.022844031128
 Linear coef   :      -0.083388309484
           Qmin:  -11645.243973615996
Quadratic minimum step length (  1.144675640469) accepted
    Initial Ne1:    7191.99998543
      Final Ne1:    7192.00000000

=================== Penalty functional idempotency correction ==================
 RMS occupancy error at iteration   1:  0.002288 (step -0.3643 Ne1=   7192.0000)
 RMS occupancy error at iteration   2:  0.000061 (step -0.4981 Ne1=   7192.0000)
 RMS occupancy error at iteration   3:  0.000000 (step -0.5000 Ne1=   7192.0000)
            Final RMS occupancy error   :  0.000000 (Ne1=   7192.0000)
               Final occupancy bounds   : [  0.0000,  1.0000]
================================================================================

    4        -1.164516787485E+04     5.6365E-05     5.0981E-05    -7.9503E-02
MG BCs: +ve charge blocks (gridpoints):     25021 (   17193046).
MG BCs: -ve charge blocks (gridpoints):      8528 (    1096309).
MG BCs:     Elided blocks (gridpoints):    190211 (  192414190).
MG BCs: Computational effort saved:  99.9841%.
MG BCs: Charge after coarse-graining:           -9.0006683.
MG DL_MG: Calling solver with defect correction order = 8
MG DL_MG: Solver finished
MG Hartree energy from (\int phi*rho dr):              1249.334694
MG Hartree energy from (\int eps (grad phi)^2 dr):     1248.696246
MG Discrepancy due to finite box and discretization:     -0.638448 (  -0.05110%)
MG Correction to account for finite box:                  0.461803
MG Remaining discrepancy, due to discretization:         -0.176646 (  -0.01414%)
      ideal mu1:      -0.721140272452
             Q0:  -11645.231199474656
             G0:      -0.278116532453
   RMS gradient:       0.000087753032
========================= Kernel Line Step Protection ==========================
|  Iter |  Trial Step |   RMS Occupancy Error |   Occupancy Bounds | Accepted? |
    0        0.000000                0.000000    [ 1.0000:  0.0000]
    1        0.847288                0.014120    [ 1.5281: -0.5249]        No
    2        0.423644                0.004966    [ 1.2304: -0.2290]       Yes
================================================================================
MG BCs: +ve charge blocks (gridpoints):     25023 (   17194287).
MG BCs: -ve charge blocks (gridpoints):      8529 (    1095875).
MG BCs:     Elided blocks (gridpoints):    190209 (  192413383).
MG BCs: Computational effort saved:  99.9841%.
MG BCs: Charge after coarse-graining:           -9.0006680.
MG DL_MG: Calling solver with defect correction order = 8
MG DL_MG: Solver finished
MG Hartree energy from (\int phi*rho dr):              1250.178670
MG Hartree energy from (\int eps (grad phi)^2 dr):     1249.541262
MG Discrepancy due to finite box and discretization:     -0.637408 (  -0.05099%)
MG Correction to account for finite box:                  0.460880
MG Remaining discrepancy, due to discretization:         -0.176528 (  -0.01412%)
     Trial step:       0.423644165727
             Q1:  -11645.289949823404
 Quadratic coef:       0.059072097618
 Linear coef   :      -0.117822446366
           Qmin:  -11645.289950261524
Quadratic minimum step length (  0.422490431249) accepted
    Initial Ne1:    7191.99998696
      Final Ne1:    7192.00000000

=================== Penalty functional idempotency correction ==================
 RMS occupancy error at iteration   1:  0.004947 (step -0.2796 Ne1=   7192.0000)
 RMS occupancy error at iteration   2:  0.000152 (step -0.4926 Ne1=   7192.0000)
 RMS occupancy error at iteration   3:  0.000001 (step -0.5000 Ne1=   7192.0000)
            Final RMS occupancy error   :  0.000000 (Ne1=   7192.0000)
               Final occupancy bounds   : [  0.0000,  1.0000]
================================================================================

    5        -1.164523119947E+04     8.7753E-05     7.9371E-05    -6.3325E-02
MG BCs: +ve charge blocks (gridpoints):     25023 (   17194272).
MG BCs: -ve charge blocks (gridpoints):      8529 (    1095883).
MG BCs:     Elided blocks (gridpoints):    190209 (  192413390).
MG BCs: Computational effort saved:  99.9841%.
MG BCs: Charge after coarse-graining:           -9.0006680.
MG DL_MG: Calling solver with defect correction order = 8
MG DL_MG: Solver finished
MG Hartree energy from (\int phi*rho dr):              1250.169818
MG Hartree energy from (\int eps (grad phi)^2 dr):     1249.532427
MG Discrepancy due to finite box and discretization:     -0.637392 (  -0.05098%)
MG Correction to account for finite box:                  0.460867
MG Remaining discrepancy, due to discretization:         -0.176525 (  -0.01412%)
      ideal mu1:      -0.723710295551
             Q0:  -11645.289630777086
             G0:      -0.392667857812
   RMS gradient:       0.000087828461
MG BCs: +ve charge blocks (gridpoints):     25024 (   17196023).
MG BCs: -ve charge blocks (gridpoints):      8527 (    1095287).
MG BCs:     Elided blocks (gridpoints):    190208 (  192412235).
MG BCs: Computational effort saved:  99.9841%.
MG BCs: Charge after coarse-graining:           -9.0006677.
MG DL_MG: Calling solver with defect correction order = 8
MG DL_MG: Solver finished
MG Hartree energy from (\int phi*rho dr):              1251.323846
MG Hartree energy from (\int eps (grad phi)^2 dr):     1250.686543
MG Discrepancy due to finite box and discretization:     -0.637303 (  -0.05093%)
MG Correction to account for finite box:                  0.460730
MG Remaining discrepancy, due to discretization:         -0.176573 (  -0.01411%)
     Trial step:       0.423066905198
             Q1:  -11645.309419551166
 Quadratic coef:       0.146336001297
 Linear coef   :      -0.166124775376
           Qmin:  -11645.336778165201
Quadratic minimum step length (  0.240138769586) accepted
    Initial Ne1:    7191.99999249
      Final Ne1:    7192.00000000

=================== Penalty functional idempotency correction ==================
 RMS occupancy error at iteration   1:  0.003649 (step -0.3147 Ne1=   7192.0000)
 RMS occupancy error at iteration   2:  0.000093 (step -0.4949 Ne1=   7192.0000)
 RMS occupancy error at iteration   3:  0.000001 (step -0.5000 Ne1=   7192.0000)
            Final RMS occupancy error   :  0.000000 (Ne1=   7192.0000)
               Final occupancy bounds   : [  0.0000,  1.0000]
================================================================================

    6        -1.164528963078E+04     8.7828E-05     7.9439E-05    -5.8431E-02
MG BCs: +ve charge blocks (gridpoints):     25025 (   17195238).
MG BCs: -ve charge blocks (gridpoints):      8529 (    1095595).
MG BCs:     Elided blocks (gridpoints):    190207 (  192412712).
MG BCs: Computational effort saved:  99.9841%.
MG BCs: Charge after coarse-graining:           -9.0006678.
MG DL_MG: Calling solver with defect correction order = 8
MG DL_MG: Solver finished
MG Hartree energy from (\int phi*rho dr):              1250.796244
MG Hartree energy from (\int eps (grad phi)^2 dr):     1250.159360
MG Discrepancy due to finite box and discretization:     -0.636884 (  -0.05092%)
MG Correction to account for finite box:                  0.460328
MG Remaining discrepancy, due to discretization:         -0.176556 (  -0.01412%)
      ideal mu1:      -0.725095315953
             Q0:  -11645.349366639741
             G0:      -0.241505245218
   RMS gradient:       0.000075546784
MG BCs: +ve charge blocks (gridpoints):     25025 (   17194763).
MG BCs: -ve charge blocks (gridpoints):      8529 (    1095780).
MG BCs:     Elided blocks (gridpoints):    190207 (  192413002).
MG BCs: Computational effort saved:  99.9841%.
MG BCs: Charge after coarse-graining:           -9.0006679.
MG DL_MG: Calling solver with defect correction order = 8
MG DL_MG: Solver finished
MG Hartree energy from (\int phi*rho dr):              1250.351688
MG Hartree energy from (\int eps (grad phi)^2 dr):     1249.714994
MG Discrepancy due to finite box and discretization:     -0.636694 (  -0.05092%)
MG Correction to account for finite box:                  0.460045
MG Remaining discrepancy, due to discretization:         -0.176649 (  -0.01413%)
     Trial step:       0.318739338750
             Q1:  -11645.415481466684
 Quadratic coef:       0.010862395222
 Linear coef   :      -0.076977222165
           Qmin:  -11645.485742931784
Quadratic minimum step length (  1.129385756572) accepted
    Initial Ne1:    7191.99999995
      Final Ne1:    7192.00000000

=================== Penalty functional idempotency correction ==================
 RMS occupancy error at iteration   1:  0.000988 (step -0.4291 Ne1=   7192.0000)
 RMS occupancy error at iteration   2:  0.000009 (step -0.5000 Ne1=   7192.0000)
            Final RMS occupancy error   :  0.000000 (Ne1=   7192.0000)
               Final occupancy bounds   : [ -0.0000,  1.0000]
================================================================================

    7        -1.164534936664E+04     7.5547E-05     6.8330E-05    -5.9736E-02
MG BCs: +ve charge blocks (gridpoints):     25022 (   17193562).
MG BCs: -ve charge blocks (gridpoints):      8528 (    1096204).
MG BCs:     Elided blocks (gridpoints):    190210 (  192413779).
MG BCs: Computational effort saved:  99.9841%.
MG BCs: Charge after coarse-graining:           -9.0006682.
MG DL_MG: Calling solver with defect correction order = 8
MG DL_MG: Solver finished
MG Hartree energy from (\int phi*rho dr):              1249.241457
MG Hartree energy from (\int eps (grad phi)^2 dr):     1248.605153
MG Discrepancy due to finite box and discretization:     -0.636304 (  -0.05094%)
MG Correction to account for finite box:                  0.459417
MG Remaining discrepancy, due to discretization:         -0.176887 (  -0.01416%)
      ideal mu1:      -0.725748455461
[...]
MG DL_MG: Calling solver with defect correction order = 8
MG DL_MG: Solver finished
MG Hartree energy from (\int phi*rho dr):              1208.407515
MG Hartree energy from (\int eps (grad phi)^2 dr):     1208.225229
MG Discrepancy due to finite box and discretization:     -0.182287 (  -0.01508%)
MG Correction to account for finite box:                  0.006222
MG Remaining discrepancy, due to discretization:         -0.176065 (  -0.01457%)
             Q2:  -11679.542186069884
  Cubic LS coeff:       0.786453181413
Predicted energy:  -11679.542186069895
Cubic minimum step length accepted
    Initial Ne1:    7192.00000000
      Final Ne1:    7192.00000000

=================== Penalty functional idempotency correction ==================
 RMS occupancy error at iteration   1:  0.000000 (step -0.5000 Ne1=   7192.0000)
            Final RMS occupancy error   :  0.000000 (Ne1=   7192.0000)
               Final occupancy bounds   : [  0.0000,  1.0000]
================================================================================

    7        -1.167954218607E+04     8.0818E-09     7.3098E-09    -9.3132E-10

Reusing previously generated solute cavity.
MG BCs: +ve charge blocks (gridpoints):     29174 (   19400956).
MG BCs: -ve charge blocks (gridpoints):      8502 (    1064256).
MG BCs:     Elided blocks (gridpoints):    186058 (  190238333).
MG BCs: Computational effort saved:  99.9821%.
MG BCs: Charge after coarse-graining:           -9.0009746.
MG DL_MG: Calling solver with defect correction order = 8
MG DL_MG: Solver finished
MG Hartree energy from (\int phi*rho dr):              1208.407511
MG Hartree energy from (\int eps (grad phi)^2 dr):     1208.225224
MG Discrepancy due to finite box and discretization:     -0.182287 (  -0.01508%)
MG Correction to account for finite box:                  0.006222
MG Remaining discrepancy, due to discretization:         -0.176065 (  -0.01457%)
      ideal mu1:      -0.480901843187
             Q0:  -11679.542186070001
             G0:      -0.000000002162
   RMS gradient:       0.000000005949

Reusing previously generated solute cavity.
MG BCs: +ve charge blocks (gridpoints):     29174 (   19400956).
MG BCs: -ve charge blocks (gridpoints):      8502 (    1064256).
MG BCs:     Elided blocks (gridpoints):    186058 (  190238333).
MG BCs: Computational effort saved:  99.9821%.
MG BCs: Charge after coarse-graining:           -9.0009746.
MG DL_MG: Calling solver with defect correction order = 8
MG DL_MG: Solver finished
MG Hartree energy from (\int phi*rho dr):              1208.407496
MG Hartree energy from (\int eps (grad phi)^2 dr):     1208.225209
MG Discrepancy due to finite box and discretization:     -0.182287 (  -0.01508%)
MG Correction to account for finite box:                  0.006222
MG Remaining discrepancy, due to discretization:         -0.176065 (  -0.01457%)
     Trial step:       0.531870456618
             Q1:  -11679.542186070583
 Quadratic coef:       0.000000000568
 Linear coef   :      -0.000000001150
           Qmin:  -11679.542186070583
Quadratic minimum step length (  0.538817976637) accepted
    Initial Ne1:    7192.00000000
      Final Ne1:    7192.00000000

=================== Penalty functional idempotency correction ==================
 RMS occupancy error at iteration   1:  0.000000 (step -0.5000 Ne1=   7192.0000)
            Final RMS occupancy error   :  0.000000 (Ne1=   7192.0000)
               Final occupancy bounds   : [ -0.0000,  1.0000]
================================================================================

    8        -1.167954218607E+04     5.9493E-09     5.3810E-09    -2.0955E-09

Reusing previously generated solute cavity.
MG BCs: +ve charge blocks (gridpoints):     29174 (   19400956).
MG BCs: -ve charge blocks (gridpoints):      8502 (    1064256).
MG BCs:     Elided blocks (gridpoints):    186058 (  190238333).
MG BCs: Computational effort saved:  99.9821%.
MG BCs: Charge after coarse-graining:           -9.0009746.
MG DL_MG: Calling solver with defect correction order = 8
MG DL_MG: Solver finished
MG Hartree energy from (\int phi*rho dr):              1208.407496
MG Hartree energy from (\int eps (grad phi)^2 dr):     1208.225209
MG Discrepancy due to finite box and discretization:     -0.182287 (  -0.01508%)
MG Correction to account for finite box:                  0.006222
MG Remaining discrepancy, due to discretization:         -0.176065 (  -0.01457%)
      ideal mu1:      -0.480901831701
             Q0:  -11679.542186070583
             G0:      -0.000000001123
   RMS gradient:       0.000000003834

Reusing previously generated solute cavity.
MG BCs: +ve charge blocks (gridpoints):     29174 (   19400957).
MG BCs: -ve charge blocks (gridpoints):      8502 (    1064256).
MG BCs:     Elided blocks (gridpoints):    186058 (  190238332).
MG BCs: Computational effort saved:  99.9821%.
MG BCs: Charge after coarse-graining:           -9.0009746.
MG DL_MG: Calling solver with defect correction order = 8
MG DL_MG: Solver finished
MG Hartree energy from (\int phi*rho dr):              1208.407503
MG Hartree energy from (\int eps (grad phi)^2 dr):     1208.225216
MG Discrepancy due to finite box and discretization:     -0.182287 (  -0.01508%)
MG Correction to account for finite box:                  0.006222
MG Remaining discrepancy, due to discretization:         -0.176065 (  -0.01457%)
     Trial step:       0.535332946182
             Q1:  -11679.542186070699
 Quadratic coef:       0.000000000486
 Linear coef   :      -0.000000000601
           Qmin:  -11679.542186070768
Quadratic minimum step length (  0.331327584160) accepted
    Initial Ne1:    7192.00000000
      Final Ne1:    7192.00000000

=================== Penalty functional idempotency correction ==================
 RMS occupancy error at iteration   1:  0.000000 (step -0.5000 Ne1=   7192.0000)
            Final RMS occupancy error   :  0.000000 (Ne1=   7192.0000)
               Final occupancy bounds   : [ -0.0000,  1.0000]
================================================================================

    9        -1.167954218607E+04     3.8342E-09     3.4679E-09    -5.8208E-10

Reusing previously generated solute cavity.
MG BCs: +ve charge blocks (gridpoints):     29174 (   19400957).
MG BCs: -ve charge blocks (gridpoints):      8502 (    1064256).
MG BCs:     Elided blocks (gridpoints):    186058 (  190238332).
MG BCs: Computational effort saved:  99.9821%.
MG BCs: Charge after coarse-graining:           -9.0009746.
MG DL_MG: Calling solver with defect correction order = 8
MG DL_MG: Solver finished
MG Hartree energy from (\int phi*rho dr):              1208.407500
MG Hartree energy from (\int eps (grad phi)^2 dr):     1208.225213
MG Discrepancy due to finite box and discretization:     -0.182287 (  -0.01508%)
MG Correction to account for finite box:                  0.006222
MG Remaining discrepancy, due to discretization:         -0.176065 (  -0.01457%)
      ideal mu1:      -0.480901834622
   10        -1.167954218607E+04     3.0862E-09     2.7914E-09    -1.1642E-10
Finished density kernel iterations (  10)

Writing density kernel to file "host_25941.dkn" ... done


>>> Density kernel optimised for the current NGWF basis:
     ~~~~~~~~~~~~~~~~~~~~~~~~~~~~~~~~~~~~~~~~~~~~~~~~~~~~~~~~~~~
     Total energy                =  -1.16795421860707E+04  Eh
     Estimated bandgap           =   9.7746E-02  Eh
     RMS occupancy error         =   6.5560E-16
     [H,K] commutator            =   2.7914E-09
     Occupancy bounds            = [ -0.000:  1.000]
     ~~~~~~~~~~~~~~~~~~~~~~~~~~~~~~~~~~~~~~~~~~~~~~~~~~~~~~~~~~~




################################################################################
########################### NGWF CG iteration  004 #############################
################################################################################
****** Reciprocal space K.E. preconditioning with k_zero =  3.5000 a0^-1 *******

>>> Checking for convergence of NGWFs: 
           ........................................................
           |         *** NGWF optimisation converged ***          |
           | RMS NGWF gradient =    0.00000194921909              |
           | Criteria satisfied:                                  |
           | -> RMS NGWF gradient lower than set threshold.       |
           ========================================================

Reusing previously generated solute cavity.
MG BCs: +ve charge blocks (gridpoints):     29174 (   19400957).
MG BCs: -ve charge blocks (gridpoints):      8502 (    1064256).
MG BCs:     Elided blocks (gridpoints):    186058 (  190238332).
MG BCs: Computational effort saved:  99.9821%.
MG BCs: Charge after coarse-graining:           -9.0009746.
MG DL_MG: Calling solver with defect correction order = 8
MG DL_MG: Solver finished
MG Hartree energy from (\int phi*rho dr):              1208.407500
MG Hartree energy from (\int eps (grad phi)^2 dr):     1208.225213
MG Discrepancy due to finite box and discretization:     -0.182287 (  -0.01508%)
MG Correction to account for finite box:                  0.006222
MG Remaining discrepancy, due to discretization:         -0.176065 (  -0.01457%)

================================================================================
           ---------------- ENERGY COMPONENTS (Eh) ----------------
           | Kinetic                    :     8531.31235329759875 |
           | Pseudo. (local,OBC,corr'd) :    -5053.16802767240824 |
           | Pseudopotential (non-local):     1403.17170474682052 |
           | Hartree (molecular)        :     1208.40749987293657 |
           | Exchange-correlation       :    -3357.55960798169872 |
           | Ion-ion (open BC)          :   822856.76035354216583 |
           | Dispersion Correction      :       -3.23061710804902 |
           | Smeared ion non-self corr. :  -822808.72573341475800 |
           | Smeared ion self corr.     :   -14457.16956389741972 |
           | Solvent cavitation energy  :        2.34618000215227 |
           | Solute-solvent dis-rep en. :       -1.68672745804732 |
           | Total                      :   -11679.54218607064649 |
           --------------------------------------------------------
           ------ LOCAL ENERGY COMPONENTS FROM MATRIX TRACES ------
           | Pseudopotential (local)    :    -5053.16802767242189 |
           | Hartree                    :    -1989.36619805944019 |
           --------------------------------------------------------
           Integrated density           :     7191.99999999779084
           Integrated density tr(KS)    :     7192.00000000000000
================================================================================


                        <<<<< CALCULATION SUMMARY >>>>>                         
|ITER|    RMS GRADIENT   |     TOTAL ENERGY    |   step   |     Epredicted              
   0     0.00003880732291 -11679.48160384583753   0.628918 -11679.53392457853988        
   1     0.00001000964644 -11679.54156218445860   0.094146 -11679.54208325009677        
   2     0.00000438900635 -11679.54216542316135   0.016972 -11679.54218348279755        
   3     0.00000194921909 -11679.54218607069924  <-- CG                                 

=================== Finished the calculation in solvent ========================
= Adjusting the following parameters: 
= read_denskern: F
= read_tightbox_ngwfs: F
= maxit_pen: 0 (restored to user-specified value)
= restart read filename prefix: ""
= restart write filename prefix: ""
================================================================================

================================================================================
IS: Calculation in solvent completed (NGWFs converged).      

Individual components of total energy in solvent:     hartree           kcal/mol
- Usual non-electrostatic DFT terms:    -12888.60913848774180    -8087724.166433
- Electrostatic fixed charge energy:      1208.40749987293657      758287.138248
- Apolar cavitation energy:                  2.34618000215227        1472.250147
- Apolar dispersion-repulsion energy:       -1.68672745804732       -1058.437437
 -------------------------------------------------------------------------------
- Total energy in solvent:              -11679.54218607069924    -7329023.215475

Components of total energy in solvent:                hartree           kcal/mol
- Usual non-electrostatic DFT terms:    -12888.60913848774180    -8087724.166433
- Electrostatic energy:                   1208.40749987293657      758287.138248
- Apolar energy terms:                       0.65945254410495         413.812710
 -------------------------------------------------------------------------------
- Total energy in solvent:              -11679.54218607069924    -7329023.215475

Calculation of free energy of solvation:              hartree           kcal/mol
- Total energy in solvent:         (+)  -11679.54218607069924    -7329023.215475
- Total energy in vacuum:          (-)  -11675.68791020778008    -7326604.620908
 -------------------------------------------------------------------------------
- Total free energy of solvation:           -3.85427586291917       -2418.594567

Components of polar term in f.e. of solvation:        hartree           kcal/mol
- Electrostatic:                            -4.76467097430213       -2989.876112
- Change in nonelectrostatic DFT terms:      0.25094256727789         157.468835
 -------------------------------------------------------------------------------
- Polar term in f.e. of solvation:          -4.51372840702425       -2832.407277

Components of free energy of solvation:               hartree           kcal/mol
- Polar term in f.e. of solvation: (+)      -4.51372840702425       -2832.407277
- Apolar (cavitation, dis., rep.): (+)       0.65945254410495         413.812710
 -------------------------------------------------------------------------------
- Total free energy of solvation:           -3.85427586291930       -2418.594567
================================================================================


------------------------------ TIMING INFORMATION ------------------------------
AVERAGE TIME:   27271.614s on     40 node(s)                                    
TOTAL TIME:     27271.615s on     40 node(s)                                    
================= AVERAGE TIMINGS FROM ALL NODES (CUMULATIVE) ==================
|| TAG                                    #calls    cpu time   %total  Gflops ||
|| work_imbalance                       :     1        0.00s   0.000%  ------ ||
|| parallel_prepare_fd_halos_request    :  1827        0.01s   0.000%  ------ ||
|| sparse_set_to_garbage                :   164        0.04s   0.000%  ------ ||
|| parallel_prepare_fd_halos_satisfy    :  1827        0.06s   0.000%  ------ ||
|| parallel_prepare_fd_halos_alloc      :  1827        0.07s   0.000%  ------ ||
|| ngwfs_initialise_from_radial         :     1        0.17s   0.001%  ------ ||
|| basis_extract_function_from_box      :  5041        0.17s   0.001%  ------ ||
|| pseudopotentials_nonlocal_mat        :    28        2.01s   0.007%  ------ ||
|| restart_ngwfs_tightbox_input         :     1        2.54s   0.009%  ------ ||
|| parallel_prepare_fd_halos_comms_imbal:  1827        3.10s   0.011%  ------ ||
|| density_init_guess_real              :     1        3.31s   0.012%  ------ ||
|| openbc_locps_radial                  :     1        4.55s   0.017%  ------ ||
|| restart_kernel_read                  :     1        4.85s   0.018%  ------ ||
|| parallel_prepare_fd_halos_clear      :  1827       14.13s   0.052%  ------ ||
|| projectors_func_ovlp_box             :    28       22.41s   0.082%  ------ ||
|| sparse_init                          :     2       22.45s   0.082%  ------ ||
|| function_ops_brappd_ketppd           :    28       24.10s   0.088%  ------ ||
|| parallel_prepare_fd_halos_comms_wait :  1827       25.04s   0.092%  ------ ||
|| projectors_init_fftbox_recip         :   193       27.57s   0.101%  ------ ||
|| parallel_prepare_fd_halos            :  1827       42.43s   0.156%  ------ ||
|| palser_mano_kernel_optimise          :     1       49.81s   0.183%  ------ ||
|| fourier_apply_box_pair               :  7164       55.49s   0.203% 565.347 ||
|| basis_copy_function_to_box           : 81800       56.50s   0.207%  ------ ||
|| ngwf_gradient_coeffs                 :    15       59.50s   0.218%  ------ ||
|| pseudo_make_structure_factor         :     2       63.43s   0.233%  ------ ||
|| sparse_embed_hotelling_invert_embed  :    28       91.53s   0.336%  ------ ||
|| restart_kernel_write                 :    16      106.60s   0.391%  ------ ||
|| finite_difference_derivative         :  1827      118.21s   0.433%  ------ ||
|| integrals_kinetic                    :    28      153.35s   0.562%  ------ ||
|| restart_ngwfs_tightbox_output        :    13      161.09s   0.591%  ------ ||
|| openbc_locps_on_grid                 :     2      211.17s   0.774%  ------ ||
|| fourier_apply_cell_forward           :  1217      221.93s   0.814%  81.879 ||
|| projectors_gradient_batch            :   165      224.41s   0.823%  ------ ||
|| fourier_apply_cell_backward          :  1219      231.80s   0.850%  78.521 ||
|| sparse_trace                         :  5090      235.80s   0.865%  ------ ||
|| basis_dot_function_with_box          : 12.34M     236.79s   0.868%  ------ ||
|| kernel_purify                        :   464      327.14s   1.200%  ------ ||
|| hamiltonian_energy_components        :     4      459.04s   1.683%  ------ ||
|| basis_add_function_to_box            : 25.67M     480.37s   1.761%  ------ ||
|| xc_energy_potential                  :   304      529.65s   1.942%  ------ ||
|| lnv_gradient_norm                    :   150      540.27s   1.981%  ------ ||
|| kernel_fix                           :   150      631.69s   2.316%  ------ ||
|| ngwf_gradient_build_batch            :   165      810.72s   2.973%  ------ ||
|| integrals_locpot_mat_els_batch       :  1749      856.93s   3.142%  ------ ||
|| cell_grid_deposit_box_real           : 51280      892.59s   3.273%  ------ ||
|| cell_grid_extract_box_real           : 47977      979.16s   3.590%  ------ ||
|| ngwf_gradient_batch                  :   165     1086.67s   3.985%  ------ ||
|| density_batch_row_sums               :  3333     1095.89s   4.018%  ------ ||
|| ngwf_gradient_lnv                    :    15     1243.04s   4.558%  ------ ||
|| density_fftbox_deposit_to_cell       : 49389     1554.10s   5.699%  ------ ||
|| sparse_product                       :  6326     2074.30s   7.606%  ------ ||
|| multigrid_prepare_bound_cond         :   304     2440.66s   8.949%  ------ ||
|| potential_apply_to_ngwf_batch        :  1749     3433.40s  12.590%  ------ ||
|| fourier_apply_box                    : 170.8k    3856.27s  14.140% 939.446 ||
|| density_fftbox_interpolate_multiply  : 49389     3930.61s  14.413%  ------ ||
|| integrals_locpot_dbl_grid            :   159     4303.75s  15.781%  ------ ||
|| density_batch_interp_deposit         :  3333     6283.22s  23.039%  ------ ||
|| dl_mg_solver_calls                   :   304     6813.22s  24.983%  ------ ||
|| density_on_dbl_grid                  :   303     7810.04s  28.638%  ------ ||
|| multigrid_calculate_hartree          :   304     9412.06s  34.512%  ------ ||
|| hamiltonian_lhxc_calculate           :   299    17738.64s  65.044%  ------ ||
|| lnv_denskernel_optimise_cg           :    15    23318.90s  85.506%  ------ ||
|| ngwf_cg_optimise                     :     2    26369.72s  96.693%  ------ ||
|| total_time                           :     1    27271.61s 100.000%  ------ ||
================================================================================
Overhead of generating timer report: 
- 0 ms averaging over threads,
- 5 ms ensuring consistency across MPI ranks,
- 2 ms printing in order.

Job completed: 07-05-2020 13:32 (+0100)

