 +---------------------------------------------------------------+
 |                                                               |
 |        ####### #     # ####### ####### ####### ######         |
 |        #     # ##    # #          #    #       #     #        |
 |        #     # # #   # #          #    #       #     #        |
 |        #     # #  #  # #####      #    #####   ######         |
 |        #     # #   # # #          #    #       #              |
 |        #     # #    ## #          #    #       #              |
 |        ####### #     # #######    #    ####### #              |
 |                                                               |
 |        Linear-Scaling Ab Initio Total Energy Program          |
 |                                                               |
 |          Release for academic collaborators of ODG            |
 |                                             Version 5.3.2.6.  |
 |                                                               |
 +---------------------------------------------------------------+
 |                                                               |
 |  Authors:                                                     |
 |  Jacek Dziedzic, Peter D. Haynes, Nicholas D. M. Hine,        |
 |  Arash. A. Mostofi, Mike C. Payne and Chris-Kriton Skylaris   |
 |                                                               |
 |  Contributors:                                                |
 |  J. Aarons, L. Andrinopoulos, P. W. Avraam, R. A. Bell,       |
 |  A. Bhandari, G. A. Bramley, R. J. Charlton, S. J. Clark,     |
 |  R. J. Clements, G. C. Constantinescu, F. Corsetti,           |
 |  N. Corsini, O. Dieguez, S. M. M. Dubois, K. K. B. Duff,      |
 |  J. M. Escartin, A. Greco, H. Helal, Q. O. Hill, L. P. Lee,   |
 |  J.-H. Li, E. B. Linscott, G. Moynihan, D. D. O`Regan,        |
 |  O. K. Okan, M. J. S. Phipps, C. J. Pickard,                  |
 |  J. C. A. Prentice, M. I. J. Probert, L. E. Ratcliff,         |
 |  M. Robinson, A. Ruiz Serrano, J. S. Spencer, E. W. Tait,     |
 |  G. Teobaldi, D. Turban, V. Vitale, K. A. Wilkinson,          |
 |  C. Weber, J. C. Womack, N. Yeung and T. J. Zuehlsdorff       |
 |                                                               |
 |                                   Copyright (c) 2004-2019     |
 |                                                               |
 |  Please cite:                                                 |
 |  "Introducing ONETEP: Linear-scaling density functional       |
 |   simulations on parallel computers".                         |
 |   C.-K. Skylaris, P. D. Haynes, A. A. Mostofi, M. C. Payne.   |
 |   J. Chem. Phys. 122 084119 (2005).                           |
 |                                                               |
 |          in all publications arising from your use of ONETEP. |
 |                                                               |
 +---------------------------------------------------------------+
 |                                                               |
 |   ONETEP is based on developments described in the following  |
 |   publications:                                               |
 |                                                               |
 |  "Nonorthogonal generalized Wannier function pseudopotential  |
 |   plane-wave method".                                         |
 |   C.-K. Skylaris, A. A. Mostofi, P. D. Haynes, O. Dieguez,    |
 |   M. C. Payne.                                                |
 |   Phys. Rev. B 66 035119 (2002).                              |
 |                                                               |
 |  "Preconditioned iterative minimization for linear-scaling    |
 |   electronic structure calculations".                         |
 |   A. A. Mostofi, P. D. Haynes, C.-K. Skylaris, M. C. Payne.   |
 |   J. Chem. Phys. 119(17), pp.8842-8848 (2003).                |
 |                                                               |
 |  "Total-energy calculations on a real space grid with         |
 |   localized functions and a plane-wave basis".                |
 |   A. A. Mostofi, C.-K. Skylaris, P. D. Haynes, M. C. Payne.   |
 |   Comput. Phys. Commun. 147, pp.788-802 (2002).               |
 |                                                               |
 |  "Accurate kinetic energy evaluation in electronic structure  |
 |   calculations with localized functions on real space grids"  |
 |   C.-K. Skylaris, A. A. Mostofi, P. D. Haynes, C. J. Pickard, |
 |   M. C. Payne.                                                |
 |   Comput. Phys. Commun. 140, pp.315-322 (2001).               |
 |                                                               |
 |  "Accurate ionic forces and geometry optimization in linear-  |
 |   scaling density-functional theory with local orbitals"      |
 |   N. D. M. Hine, M. Robinson, P. D. Haynes, C.-K. Skylaris,   |
 |   M. C. Payne, and A. A. Mostofi.                             |
 |   Phys. Rev. B 83 195102 (2011).                              |
 |                                                               |
 +---------------------------------------------------------------+

Job started: 07-05-2020 06:58 (+0100)
 
Reading parameters from file "host_31261.dat" ...... done

If your calculation crashes here, before "Checking processes and threads..."
is displayed, then your stack size is insufficient.
If so, use "ulimit -s unlimited" at runtime.
You can disable this check with "check_stack_size F".

Checking processes and threads...
   Determining the default number of threads...
      No default threads set at compilation time: defaulting to 1.
      OpenMP library call suggests 4 threads.
      Hybrid MPI-OpenMP compilation detected.
      Number of MPI processes > 1.
      OMP_NUM_THREADS environment variable present and
      its value matches the one obtained from the OpenMP library call.
      Using this value as default.
      Default threads: 4
      Default applies to threads_max and threads_num_fftboxes.
      Settings in the input file override this default.
   ... done

   Running with 60 MPI processes.
   There are 6 MPI processes running on the same node as the root process.
   Each MPI process is using: 
               1 threads for simulation cell FFTs.
               1 threads for parallel FFT box operations.
               4 threads for loops over batched FFT box operations.
               4 threads in other parallel regions.
... done

Basic input checks...... done

Reading geometry and species blocks from file "host_31261.dat" ...
  <species_atomic_set> block not found: NGWF initialisation set to SOLVE
IS: Dielectric excluded regions:
    - NONE.
    
  Number of PPD points along a3 set to 1.  This is 
  the default value, it may have been provided also in the input file.
... done
 Writing xyz coordinates to file "host_31261.xyz" ... done


--------------------------------------------------------------------------------
---------------------------------- INPUT FILE ----------------------------------
--------------------------------------------------------------------------------

cutoff_energy       : 800 eV                                                    
xc_functional PBE                                                               
task SINGLEPOINT                                                                
write_xyz true                                                                  
output_detail VERBOSE                                                           
ngwf_threshold_orig : 0.000002                                                  
kernel_cutoff       : 1000                                                      
k_zero              : 3.5                                                       
elec_cg_max 0                                                                   
occ_mix 1.0                                                                     
dispersion 1                                                                    
maxit_ngwf_cg 40                                                                
minit_lnv 10                                                                    
maxit_lnv 10                                                                    
write_denskern T                                                                
write_tightbox_ngwfs T                                                          
charge 9                                                                        
is_implicit_solvent T                                                           
is_auto_solvation T                                                             
is_include_apolar T                                                             
is_smeared_ion_rep T                                                            
is_solvent_surf_tension 4.7624E-5 Ha/bohr**2                                    
is_apolar_scaling_factor 0.281075                                               
is_solvation_beta 1.3                                                           
is_density_threshold 0.00035                                                    
is_bulk_permittivity 78.54                                                      
is_dielectric_model fix_initial                                                 
is_smeared_ion_width 0.8                                                        
mg_defco_fd_order 8                                                             
is_bc_coarseness 10                                                             
is_bc_surface_coarseness 1                                                      
fine_grid_scale 2.0                                                             
%block species                                                                  
N   N   7 4 8.0                                                                 
H   H   1 1 8.0                                                                 
C   C   6 4 8.0                                                                 
S   S  16 9 8.0                                                                 
O   O   8 4 8.0                                                                 
%endblock species                                                               
%block species_pot                                                              
N   N_00.recpot                                                                 
H   H_04.recpot                                                                 
C   C_01.recpot                                                                 
S   S_00.recpot                                                                 
O   O_02.recpot                                                                 
%endblock species_pot                                                           
%block lattice_cart                                                             
142.669   0.000   0.000                                                         
0.000 146.65   0.000                                                            
0.000   0.000   162.396                                                         
%endblock lattice_cart                                                          
%block positions_abs                                                            
     Hash =  -000003448711272756871857
%endblock positions_abs                                                         

--------------------------------------------------------------------------------
-------------------------------- END INPUT FILE --------------------------------
--------------------------------------------------------------------------------


 
 ESDF WARNING(1): "kernelcutoff" (esdf_physical) has no units. Assume "bohr".
 ESDF WARNING(2): "kzero" (esdf_physical) has no units. Assume "1/bohr".
 ESDF WARNING(3
 ): "issmearedionwidth" (esdf_physical) has no units. Assume "bohr".
<<<<<<<<<<<<<<<<<<<<<<<<<<<<<<<<< Full system >>>>>>>>>>>>>>>>>>>>>>>>>>>>>>>>>>
<<<<<<<<<<<<<<<<<<<<<<<<< Pseudopotential information >>>>>>>>>>>>>>>>>>>>>>>>>>
File: N_00.recpot [ 2001 points up to Gmax=  52.9 (1/bohr)]
  Atomic number:  7;  ionic charge:  5.000000
    Shell 1: l = 0; rc = 1.48 bohr
File: H_04.recpot [ 2001 points up to Gmax=  52.9 (1/bohr)]
  Atomic number:  1;  ionic charge:  1.000000
    Local potential
File: C_01.recpot [ 2001 points up to Gmax=  52.9 (1/bohr)]
  Atomic number:  6;  ionic charge:  4.000000
    Shell 1: l = 0; rc = 1.48 bohr
File: S_00.recpot [ 2001 points up to Gmax=  52.9 (1/bohr)]
  Atomic number: 16;  ionic charge:  6.000000
    Shell 1: l = 0; rc = 1.90 bohr
    Shell 2: l = 2; rc = 1.84 bohr
File: O_02.recpot [ 2001 points up to Gmax=  52.9 (1/bohr)]
  Atomic number:  8;  ionic charge:  6.000000
    Shell 1: l = 0; rc = 1.31 bohr
<<<<<<<<<<<<<<<<<<<<<<<<<<<<<<<<<<<<<<<<>>>>>>>>>>>>>>>>>>>>>>>>>>>>>>>>>>>>>>>>

-------------------------- Atom counting information ---------------------------
Symbol    Natoms    Nngwfs    Nprojs
  N        236       944       236
  H       1311      1311         0
  C        810      3240       810
  S          6        54        36
  O        239       956       239
.......   ......    ......    ......
Totals:   2602      6505      1321
--------------------------------------------------------------------------------

=============================== PSINC grid sizes ===============================
                      Simulation cell:  286 x 294 x 320
                              FFT-box:  105 x 105 x  99
                                  PPD:   11 x   6 x   1
Grid space d1=  0.498842657343a0 (KE cutoff=  30.52649Eh = 830.66799eV)
Grid space d2=  0.498809523810a0 (KE cutoff=  30.53054Eh = 830.77835eV)
Grid space d3=  0.507487500000a0 (KE cutoff=  29.49533Eh = 802.60885eV)
================================================================================

********************* Fourier parallelisation information **********************
       Coarse grid (whole simulation cell) dimensions:    286   294   320
          Real-space ('12') slabs/node (min max mean):      5     6     5
         Recip-space ('23') slabs/node (min max mean):      2     3     2
********************************************************************************

********************* Fourier parallelisation information **********************
       Double grid (whole simulation cell) dimensions:    572   588   640
          Real-space ('12') slabs/node (min max mean):     10    11    10
         Recip-space ('23') slabs/node (min max mean):      4     5     4
********************************************************************************
ONETEP fine grid is 572 x 588 x 640 gridpoints, 142.6690 x 146.6500 x 162.3960 bohr.
FD multigrid is     569 x 585 x 633 gridpoints, 141.9207 x 145.9018 x 160.6198 bohr.


Calculating local pseudopotential in open BC on a radial grid ...
Discrepancy between calculated realspace psloc and -Z/x on [5a0,261.215a0]:
max |rel. diff| # avg |rel. diff| #  avg rel. diff #  f # pseudopotential file
 0.000261901569    0.000004963664   0.000000071970   55  'N_00.recpot'
 0.000422260137    0.000017549664  -0.000000063361   55  'H_04.recpot'
 0.000361991046    0.000016543264   0.000000134927   55  'C_01.recpot'
 0.000447743184    0.000019132268   0.000000438157   55  'S_00.recpot'
 0.000711628927    0.000028437426   0.000000135877   55  'O_02.recpot'
... done

Atom SCF Calculation for N  : Z (AE atom) =   7 : Z (PS atom) =   5
Config String:
Orbitals (num,occ):  2     2.00 3.00
Orbitals   (num,l):  2        0    1
Real-space Grid (nr,dr,rmax): 1203    0.0066555740    8.0000000000
Spherical Bessel Basis (nsws,lmax,cutoff):   47    1  176.3951722778
Confining potential (l,width,scale):  0    3.0000000000  100.0000000000
Confining potential (l,width,scale):  1    3.0000000000  100.0000000000
  1         -4.7312375307   -3.4155304497    7.0523828109   -1.9351020946
  2         -9.7309464766   -2.0532547791    8.2966052865   -2.2494486027
  3         -9.6627394379   -2.1124926340    8.2327997121   -2.2369778124
  4         -9.6814993499   -2.1215521045    8.2229805960   -2.2365178421
  5         -9.6843326483   -2.1250939529    8.2191374534   -2.2362718126
  6         -9.6859628709   -2.1267894855    8.2172963573   -2.2362066344
  7         -9.6867347035   -2.1276425665    8.2163697352   -2.2361903369
  8         -9.6870802100   -2.1280764625    8.2158983890   -2.2361891460
  9         -9.6872290423   -2.1282977424    8.2156580222   -2.2361920435
 10         -9.6872901988   -2.1284107021    8.2155353368   -2.2361953393
 11         -9.6873135296   -2.1284684031    8.2154726809   -2.2361979819
 12         -9.6873212476   -2.1284978948    8.2154406648   -2.2361998431
 13         -9.6873229586   -2.1285129774    8.2154242957   -2.2362010676
 14         -9.6873226456   -2.1285206957    8.2154159216   -2.2362018403
 15         -9.6873218534   -2.1285246479    8.2154116349   -2.2362023142
 16         -9.6873212599   -2.1285262679    8.2154098784   -2.2362025420
 17         -9.6873207834   -2.1285272564    8.2154088068   -2.2362026955
 18         -9.6873204210   -2.1285278596    8.2154081529   -2.2362027982
 19         -9.6873201550   -2.1285282280    8.2154077538   -2.2362028667
 20         -9.6873199645   -2.1285284529    8.2154075102   -2.2362029121
 21         -9.6873198305   -2.1285285903    8.2154073614   -2.2362029421
 22         -9.6873197377   -2.1285286742    8.2154072705   -2.2362029618
Atom SCF converged after  22 iterations to a total energy of     -9.68731974

Atom SCF Calculation for H  : Z (AE atom) =   1 : Z (PS atom) =   1
Config String:
Orbitals (num,occ):  1     1.00
Orbitals   (num,l):  1        0
Real-space Grid (nr,dr,rmax): 1203    0.0066555740    8.0000000000
Spherical Bessel Basis (nsws,lmax,cutoff):   47    0  176.3951722778
Confining potential (l,width,scale):  0    3.0000000000  100.0000000000
  1         -0.3194257691   -0.2393854593    0.2820953124   -0.2424203209
  2         -0.3951823392   -0.2377116493    0.2886404059   -0.2475147891
  3         -0.4317044583   -0.2352244387    0.2921333887   -0.2514046172
  4         -0.4470703708   -0.2341892222    0.2934391879   -0.2531009782
  5         -0.4532132900   -0.2338556667    0.2938388426   -0.2537313520
  6         -0.4556579251   -0.2337612552    0.2939448584   -0.2539550462
  7         -0.4566418315   -0.2337377355    0.2939680120   -0.2540342273
  8         -0.4570437922   -0.2337331116    0.2939708287   -0.2540627372
  9         -0.4572102946   -0.2337328328    0.2939698291   -0.2540732650
 10         -0.4572800424   -0.2337332404    0.2939687193   -0.2540772588
 11         -0.4573095100   -0.2337335791    0.2939680317   -0.2540788122
 12         -0.4573220379   -0.2337337762    0.2939676699   -0.2540794294
 13         -0.4573273880   -0.2337338775    0.2939674931   -0.2540796787
 14         -0.4573296803   -0.2337339266    0.2939674099   -0.2540797808
 15         -0.4573306647   -0.2337339495    0.2939673718   -0.2540798230
 16         -0.4573310882   -0.2337339601    0.2939673545   -0.2540798406
 17         -0.4573312706   -0.2337339649    0.2939673467   -0.2540798479
 18         -0.4573313493   -0.2337339670    0.2939673433   -0.2540798510
Atom SCF converged after  18 iterations to a total energy of     -0.45733135

Atom SCF Calculation for C  : Z (AE atom) =   6 : Z (PS atom) =   4
Config String:
Orbitals (num,occ):  2     2.00 2.00
Orbitals   (num,l):  2        0    1
Real-space Grid (nr,dr,rmax): 1203    0.0066555740    8.0000000000
Spherical Bessel Basis (nsws,lmax,cutoff):   47    1  176.3951722778
Confining potential (l,width,scale):  0    3.0000000000  100.0000000000
Confining potential (l,width,scale):  1    3.0000000000  100.0000000000
  1         -5.2976922011   -1.3069684169    4.5135249990   -1.4493313817
  2         -5.3721716256   -1.3429755895    4.4750154450   -1.4361613026
  3         -5.3809959565   -1.3617365618    4.4541655428   -1.4305930207
  4         -5.3918938866   -1.3667928461    4.4484735100   -1.4294652294
  5         -5.3956096428   -1.3688539142    4.4461376126   -1.4290734646
  6         -5.3968271862   -1.3696852393    4.4451910874   -1.4289366866
  7         -5.3972028401   -1.3700178062    4.4448112275   -1.4288900460
  8         -5.3973067903   -1.3701500158    4.4446598370   -1.4288749220
  9         -5.3973286940   -1.3702023868    4.4445997329   -1.4288704293
 10         -5.3973289850   -1.3702230869    4.4445759233   -1.4288693188
 11         -5.3973254264   -1.3702312560    4.4445665049   -1.4288691775
 12         -5.3973224003   -1.3702344755    4.4445627836   -1.4288692549
 13         -5.3973208708   -1.3702354890    4.4445616088   -1.4288693270
 14         -5.3973198783   -1.3702360102    4.4445610034   -1.4288693814
 15         -5.3973192535   -1.3702362780    4.4445606917   -1.4288694190
 16         -5.3973188684   -1.3702364155    4.4445605313   -1.4288694437
 17         -5.3973186349   -1.3702364860    4.4445604489   -1.4288694595
 18         -5.3973184951   -1.3702365221    4.4445604065   -1.4288694693
 19         -5.3973184122   -1.3702365405    4.4445603848   -1.4288694753
Atom SCF converged after  19 iterations to a total energy of     -5.39731841

Atom SCF Calculation for S  : Z (AE atom) =  16 : Z (PS atom) =   6
Config String:
Orbitals (num,occ):  3     2.00 4.00 0.00
Orbitals   (num,l):  3        0    1    2
Real-space Grid (nr,dr,rmax): 1203    0.0066555740    8.0000000000
Spherical Bessel Basis (nsws,lmax,cutoff):   47    2  176.3951722778
Confining potential (l,width,scale):  0    3.0000000000  100.0000000000
Confining potential (l,width,scale):  1    3.0000000000  100.0000000000
Confining potential (l,width,scale):  2    3.0000000000  100.0000000000
  1        -12.4735062396   -1.0328741412   10.1554312477   -2.4512393157
  2         -9.9458301913   -2.4607392455    8.3041325857   -2.0306994528
  3        -10.1450417646   -2.2931184565    8.4831893826   -2.0812538287
  4        -10.1528335592   -2.2733105793    8.5050388867   -2.0896035179
  5        -10.1571940363   -2.2633716629    8.5160794258   -2.0939370707
  6        -10.1594380571   -2.2584938667    8.5215163935   -2.0961289008
  7        -10.1605856507   -2.2561081821    8.5241804044   -2.0972291378
  8        -10.1611799191   -2.2549395235    8.5254868240   -2.0977806248
  9        -10.1614918752   -2.2543658586    8.5261285885   -2.0980571586
 10        -10.1616572884   -2.2540839121    8.5264441898   -2.0981959233
 11        -10.1617455602   -2.2539453058    8.5265994231   -2.0982656006
 12        -10.1617928447   -2.2538772062    8.5266757320   -2.0983006047
 13        -10.1618182292   -2.2538437891    8.5267131983   -2.0983181961
 14        -10.1618318741   -2.2538274201    8.5267315620   -2.0983270391
 15        -10.1618392144   -2.2538194197    8.5267405433   -2.0983314852
 16        -10.1618431651   -2.2538155200    8.5267449245   -2.0983337210
 17        -10.1618452923   -2.2538136252    8.5267470551   -2.0983348455
 18        -10.1618464380   -2.2538127080    8.5267480875   -2.0983354110
 19        -10.1618470552   -2.2538122659    8.5267485856   -2.0983356955
 20        -10.1618473878   -2.2538120540    8.5267488248   -2.0983358386
 21        -10.1618475670   -2.2538119530    8.5267489389   -2.0983359106
 22        -10.1618476637   -2.2538119053    8.5267489929   -2.0983359468
Atom SCF converged after  22 iterations to a total energy of    -10.16184766

Atom SCF Calculation for O  : Z (AE atom) =   8 : Z (PS atom) =   6
Config String:
Orbitals (num,occ):  2     2.00 4.00
Orbitals   (num,l):  2        0    1
Real-space Grid (nr,dr,rmax): 1203    0.0066555740    8.0000000000
Spherical Bessel Basis (nsws,lmax,cutoff):   47    1  176.3951722778
Confining potential (l,width,scale):  0    3.0000000000  100.0000000000
Confining potential (l,width,scale):  1    3.0000000000  100.0000000000
  1         -1.8735052164   -7.5539365035   10.1554312477   -2.4512393157
  2        -16.0318313751   -3.1285771268   13.6395848164   -3.2358799643
  3        -15.9524020423   -3.0762819706   13.6967272503   -3.2536856837
  4        -15.8521515939   -3.0781493909   13.6951909330   -3.2561700440
  5        -15.8357139793   -3.0748501933   13.6988803334   -3.2580493133
  6        -15.8246052853   -3.0740779781   13.6997881576   -3.2588327446
  7        -15.8189019501   -3.0737449687   13.7001869911   -3.2592378801
  8        -15.8159785510   -3.0736026016   13.7003615168   -3.2594475790
  9        -15.8144776168   -3.0735437994   13.7004360379   -3.2595560735
 10        -15.8137058024   -3.0735207882   13.7004667348   -3.2596122456
 11        -15.8133083127   -3.0735125946   13.7004786868   -3.2596413656
 12        -15.8131032938   -3.0735102195   13.7004828997   -3.2596564858
 13        -15.8129973902   -3.0735099286   13.7004840891   -3.2596643505
 14        -15.8129426040   -3.0735102506   13.7004842061   -3.2596684489
 15        -15.8129142203   -3.0735106556   13.7004840157   -3.2596705887
 16        -15.8128994940   -3.0735109855   13.7004837906   -3.2596717080
 17        -15.8128918425   -3.0735112169   13.7004836103   -3.2596722946
 18        -15.8128878614   -3.0735113674   13.7004834848   -3.2596726026
 19        -15.8128857871   -3.0735114608   13.7004834035   -3.2596727646
 20        -15.8128847048   -3.0735115170   13.7004833533   -3.2596728500
 21        -15.8128841394   -3.0735115501   13.7004833231   -3.2596728951
 22        -15.8128838436   -3.0735115693   13.7004833054   -3.2596729190
 23        -15.8128836887   -3.0735115802   13.7004832951   -3.2596729316
 24        -15.8128836074   -3.0735115864   13.7004832893   -3.2596729383
Atom SCF converged after  24 iterations to a total energy of    -15.81288361

========================== Calculation in vacuum ==============================
= Adjusting the following parameters: 
= is_implicit_solvent: F
= is_include_apolar: F
= write_denskern: T
= write_tightbox_ngwfs: T
= restart read filename prefix: ""
= restart write filename prefix: "vacuum_"
===============================================================================

Determining parallel strategy ...
... using space-filling curve
... NGWF load balancing: max    109;  min    108;  average    108
... Projector load balancing: max     25;  min     21;  average     22
... done
Calculating direct Ion-Ion energy ...
Ion-Ion Energy        :    826784.88174560153857
======================= Empirical dispersion information =======================
Model : Elstner
Dispersion Correction Energy: -0.31783789E+01 Hartree
================================================================================
Basis initialisation ...... NGWF spheres initialised
... Projector spheres initialised
... NGWF tight boxes initialised
... Tight-boxes gathered
... NGWF basis size (local,global):     976156  58690435
... Nonlocal pseudopotential projector initialisation
... done

========================== Sparse matrix information ===========================
                        Overlap matrix filling:   6.67%
                        Density kernel filling: 100.00%
              NGWF-Proj overlap matrix filling:   1.75%
                    Hamiltonian matrix filling:   7.52%
                  NGWF diagonal matrix filling:   0.05%
                             KS matrix filling: 100.00% 
                           KSKS matrix filling: 100.00% 
================================================================================

Sparse matrix initialisation ... done

Generating smeared ion density ... done
Smeared ion self correction:     -14457.169564
Smeared ion non-self correction: -826736.739373
NGWF initialisation ...... done
============ Calculation of NGWF S^-1 using Hotelling algorithm ================ 
         Iteration  |  Frobenius norm and Maximum abs value    (of I-S*S_n^-1)   
               1       0.78476993E+02     0.98263427E+00
               2       0.76623468E+02     0.96573872E+00
               3       0.73622390E+02     0.93326309E+00
               4       0.69357375E+02     0.87301262E+00
               5       0.64046388E+02     0.76793533E+00
               6       0.58079584E+02     0.70648137E+00
               7       0.52081461E+02     0.67148919E+00
               8       0.46536820E+02     0.64587329E+00
               9       0.40469200E+02     0.60641232E+00
              10       0.32200368E+02     0.53679132E+00
              11       0.21627676E+02     0.42410159E+00
              12       0.11030019E+02     0.27448110E+00
              13       0.36173535E+01     0.12786403E+00
              14       0.56829050E+00     0.32790696E-01
              15       0.27810451E-01     0.30971272E-02
              16       0.17464424E-03     0.30567839E-04
              17       0.12954347E-07     0.30482206E-08
              18       0.93920620E-13     0.53290705E-14
================================================================================
Calculating local pseudopotential in open BC on the fine real space grid ...
... done

MG BCs: +ve charge blocks (gridpoints):     20869 (   16450022).
MG BCs: -ve charge blocks (gridpoints):      8176 (    1096631).
MG BCs:     Elided blocks (gridpoints):    194363 (  193156892).
MG BCs: Computational effort saved:  99.9862%.
MG BCs: Charge after coarse-graining:           -9.0002277.
MG DL_MG: Calling solver with defect correction order = 8
MG DL_MG: Solver finished
MG Hartree energy from (\int phi*rho dr):              1462.559360
MG Hartree energy from (\int eps (grad phi)^2 dr):     1461.958737
MG Discrepancy due to finite box and discretization:     -0.600623 (  -0.04107%)
MG Correction to account for finite box:                  0.453854
MG Remaining discrepancy, due to discretization:         -0.146770 (  -0.01004%)
Up spin density kernel initialisation ... 
======= Optimisation of K by Palser-Manolopoulos canonical purification ======== 
         Iteration  |  Band structure energy |    c_n   
               1       -2588.82760134585624    0.5261240
               2       -2764.58307462380435    0.5165920
               3       -2943.88478003959517    0.5154744
               4       -3092.57442209051260    0.5295487
               5       -3183.09270443293917    0.5662004
               6       -3220.48574180747528    0.6109477
               7       -3233.15670130054605    0.6213142
               8       -3238.71121819825748    0.6190732
               9       -3241.40174792702555    0.6313134
              10       -3242.51507002950166    0.6560780
              11       -3242.94207775720861    0.6821649
              12       -3243.11697186407309    0.6964752
              13       -3243.19954408652757    0.6772017
              14       -3243.24863624722730    0.6340546
              15       -3243.27974908730994    0.5874634
              16       -3243.29602402146929    0.5356145
              17       -3243.30236530941147    0.4798193
              18       -3243.30384891650556    0.4308034
              19       -3243.30425042447951    0.4008829
              20       -3243.30445996925755    0.4188610
              21       -3243.30463115534531    0.4563751
              22       -3243.30479243307491    0.4873867
              23       -3243.30490815680969    0.4989741
              24       -3243.30495463119860    0.4999935
              25       -3243.30496035264014    0.5000000
              26       -3243.30496042726918    0.5000000
Termination criterion satisfied: band energy change below threshold.
Final occupancy bounds: [    0.00000000000423:    0.99999999999991]
Closest occupancy to 0.5:     0.99999999999899
================================================================================
... done

Writing density kernel to file "host_31261.vacuum_dkn" ... done

>>> Optimising kernel for current NGWFs:
   Initial electron number for spin 1:    7192.00000000
     Final electron number for spin 1:    7192.00000000

=================== Penalty functional idempotency correction ==================
 RMS occupancy error at iteration   1:  0.000000 (step -0.5000 Ne1=   7192.0000)
            Final RMS occupancy error   :  0.000000 (Ne1=   7192.0000)
               Final occupancy bounds   : [ -0.0000,  1.0000]
================================================================================

................................................................................
<<<<<<<<<<<<<< LNV (Original version) density kernel optimisation >>>>>>>>>>>>>>
~~~~~~~~~~~~~~~~~~~~~~~~~~~~~~~~~~~~~~~~~~~~~~~~~~~~~~~~~~~~~~~~~~~~~~~~~~~~~~~~
   iter  |      energy (Eh)       | rms gradient |  commutator  |   dE (Eh)
MG BCs: +ve charge blocks (gridpoints):     31629 (   17591553).
MG BCs: -ve charge blocks (gridpoints):      8443 (    1130525).
MG BCs:     Elided blocks (gridpoints):    183599 (  191981467).
MG BCs: Computational effort saved:  99.9810%.
MG BCs: Charge after coarse-graining:           -9.0009854.
MG DL_MG: Calling solver with defect correction order = 8
MG DL_MG: Solver finished
MG Hartree energy from (\int phi*rho dr):              1417.781187
MG Hartree energy from (\int eps (grad phi)^2 dr):     1417.130517
MG Discrepancy due to finite box and discretization:     -0.650671 (  -0.04589%)
MG Correction to account for finite box:                  0.461879
MG Remaining discrepancy, due to discretization:         -0.188791 (  -0.01332%)
      ideal mu1:      -0.701031423142
             Q0:  -11507.384080692544
             G0:    -144.753200224224
   RMS gradient:       0.001849553023
MG BCs: +ve charge blocks (gridpoints):     31594 (   17674263).
MG BCs: -ve charge blocks (gridpoints):      8363 (    1110228).
MG BCs:     Elided blocks (gridpoints):    183628 (  191919054).
MG BCs: Computational effort saved:  99.9810%.
MG BCs: Charge after coarse-graining:           -9.0010059.
MG DL_MG: Calling solver with defect correction order = 8
MG DL_MG: Solver finished
MG Hartree energy from (\int phi*rho dr):              1442.840324
MG Hartree energy from (\int eps (grad phi)^2 dr):     1442.205651
MG Discrepancy due to finite box and discretization:     -0.634673 (  -0.04399%)
MG Correction to account for finite box:                  0.461376
MG Remaining discrepancy, due to discretization:         -0.173297 (  -0.01201%)
     Trial step:       0.500000000000
             Q1:  -11518.953323481837
 Quadratic coef:      60.807357322819
 Linear coef   :     -72.376600112112
           Qmin:  -11528.920834115237
Quadratic minimum step length (  0.297565143836) accepted
    Initial Ne1:    7192.00000000
      Final Ne1:    7192.00000000

=================== Penalty functional idempotency correction ==================
 RMS occupancy error at iteration   1:  0.003416 (step -0.4885 Ne1=   7192.0000)
 RMS occupancy error at iteration   2:  0.000027 (step -0.5001 Ne1=   7192.0000)
            Final RMS occupancy error   :  0.000000 (Ne1=   7192.0000)
               Final occupancy bounds   : [  0.0000,  1.0000]
================================================================================

    1        -1.150738408069E+04     1.8496E-03     1.6729E-03
MG BCs: +ve charge blocks (gridpoints):     31610 (   17642310).
MG BCs: -ve charge blocks (gridpoints):      8385 (    1118662).
MG BCs:     Elided blocks (gridpoints):    183612 (  191942573).
MG BCs: Computational effort saved:  99.9810%.
MG BCs: Charge after coarse-graining:           -9.0009977.
MG DL_MG: Calling solver with defect correction order = 8
MG DL_MG: Solver finished
MG Hartree energy from (\int phi*rho dr):              1424.797226
MG Hartree energy from (\int eps (grad phi)^2 dr):     1424.156968
MG Discrepancy due to finite box and discretization:     -0.640257 (  -0.04494%)
MG Correction to account for finite box:                  0.461503
MG Remaining discrepancy, due to discretization:         -0.178754 (  -0.01255%)
      ideal mu1:      -0.744803300685
             Q0:  -11529.323753263918
             G0:     -12.261886502500
   RMS gradient:       0.000534669770
MG BCs: +ve charge blocks (gridpoints):     31592 (   17659080).
MG BCs: -ve charge blocks (gridpoints):      8360 (    1113519).
MG BCs:     Elided blocks (gridpoints):    183630 (  191930946).
MG BCs: Computational effort saved:  99.9810%.
MG BCs: Charge after coarse-graining:           -9.0010011.
MG DL_MG: Calling solver with defect correction order = 8
MG DL_MG: Solver finished
MG Hartree energy from (\int phi*rho dr):              1430.027574
MG Hartree energy from (\int eps (grad phi)^2 dr):     1429.391021
MG Discrepancy due to finite box and discretization:     -0.636553 (  -0.04451%)
MG Correction to account for finite box:                  0.460931
MG Remaining discrepancy, due to discretization:         -0.175623 (  -0.01228%)
     Trial step:       0.385723439679
             Q1:  -11532.196391462581
 Quadratic coef:       1.857058840034
 Linear coef   :      -4.729697038698
           Qmin:  -11532.335240244784
Quadratic minimum step length (  0.491194724442) accepted
    Initial Ne1:    7191.99990346
      Final Ne1:    7192.00000000

=================== Penalty functional idempotency correction ==================
 RMS occupancy error at iteration   1:  0.001823 (step -0.4931 Ne1=   7192.0000)
 RMS occupancy error at iteration   2:  0.000011 (step -0.5001 Ne1=   7192.0000)
            Final RMS occupancy error   :  0.000000 (Ne1=   7192.0000)
               Final occupancy bounds   : [  0.0000,  1.0000]
================================================================================

    2        -1.152932375326E+04     5.3467E-04     4.8360E-04    -2.1940E+01
MG BCs: +ve charge blocks (gridpoints):     31592 (   17663683).
MG BCs: -ve charge blocks (gridpoints):      8353 (    1112004).
MG BCs:     Elided blocks (gridpoints):    183630 (  191927858).
MG BCs: Computational effort saved:  99.9810%.
MG BCs: Charge after coarse-graining:           -9.0010022.
MG DL_MG: Calling solver with defect correction order = 8
MG DL_MG: Solver finished
MG Hartree energy from (\int phi*rho dr):              1431.506510
MG Hartree energy from (\int eps (grad phi)^2 dr):     1430.870898
MG Discrepancy due to finite box and discretization:     -0.635612 (  -0.04440%)
MG Correction to account for finite box:                  0.460785
MG Remaining discrepancy, due to discretization:         -0.174827 (  -0.01221%)
      ideal mu1:      -0.769012205547
             Q0:  -11532.372999335290
             G0:      -1.945923101521
   RMS gradient:       0.000213065549
MG BCs: +ve charge blocks (gridpoints):     31599 (   17663538).
MG BCs: -ve charge blocks (gridpoints):      8361 (    1113006).
MG BCs:     Elided blocks (gridpoints):    183623 (  191927001).
MG BCs: Computational effort saved:  99.9810%.
MG BCs: Charge after coarse-graining:           -9.0010016.
MG DL_MG: Calling solver with defect correction order = 8
MG DL_MG: Solver finished
MG Hartree energy from (\int phi*rho dr):              1429.284219
MG Hartree energy from (\int eps (grad phi)^2 dr):     1428.649030
MG Discrepancy due to finite box and discretization:     -0.635188 (  -0.04444%)
MG Correction to account for finite box:                  0.460565
MG Remaining discrepancy, due to discretization:         -0.174624 (  -0.01222%)
     Trial step:       0.435276140701
             Q1:  -11532.870925572235
 Quadratic coef:       0.349087660787
 Linear coef   :      -0.847013897732
           Qmin:  -11532.886790442468
Quadratic minimum step length (  0.528069281644) accepted
    Initial Ne1:    7191.99994872
      Final Ne1:    7192.00000000

=================== Penalty functional idempotency correction ==================
 RMS occupancy error at iteration   1:  0.000647 (step -0.4968 Ne1=   7192.0000)
 RMS occupancy error at iteration   2:  0.000004 (step -0.5000 Ne1=   7192.0000)
            Final RMS occupancy error   :  0.000000 (Ne1=   7192.0000)
               Final occupancy bounds   : [  0.0000,  1.0000]
================================================================================

    3        -1.153237299934E+04     2.1307E-04     1.9271E-04    -3.0492E+00
MG BCs: +ve charge blocks (gridpoints):     31601 (   17663312).
MG BCs: -ve charge blocks (gridpoints):      8363 (    1113298).
MG BCs:     Elided blocks (gridpoints):    183621 (  191926935).
MG BCs: Computational effort saved:  99.9810%.
MG BCs: Charge after coarse-graining:           -9.0010016.
MG DL_MG: Calling solver with defect correction order = 8
MG DL_MG: Solver finished
MG Hartree energy from (\int phi*rho dr):              1428.820227
MG Hartree energy from (\int eps (grad phi)^2 dr):     1428.185118
MG Discrepancy due to finite box and discretization:     -0.635109 (  -0.04445%)
MG Correction to account for finite box:                  0.460519
MG Remaining discrepancy, due to discretization:         -0.174590 (  -0.01222%)
      ideal mu1:      -0.769921493790
             Q0:  -11532.891555177514
             G0:      -0.515095722053
   RMS gradient:       0.000109775753
MG BCs: +ve charge blocks (gridpoints):     31597 (   17664348).
MG BCs: -ve charge blocks (gridpoints):      8363 (    1113072).
MG BCs:     Elided blocks (gridpoints):    183625 (  191926125).
MG BCs: Computational effort saved:  99.9810%.
MG BCs: Charge after coarse-graining:           -9.0010018.
MG DL_MG: Calling solver with defect correction order = 8
MG DL_MG: Solver finished
MG Hartree energy from (\int phi*rho dr):              1430.093539
MG Hartree energy from (\int eps (grad phi)^2 dr):     1429.458436
MG Discrepancy due to finite box and discretization:     -0.635103 (  -0.04441%)
MG Correction to account for finite box:                  0.460418
MG Remaining discrepancy, due to discretization:         -0.174685 (  -0.01221%)
     Trial step:       0.479432955623
             Q1:  -11533.022017029580
 Quadratic coef:       0.116492012387
 Linear coef   :      -0.246953864453
           Qmin:  -11533.022435848898
Quadratic minimum step length (  0.508179997544) accepted
    Initial Ne1:    7191.99998698
      Final Ne1:    7192.00000000

=================== Penalty functional idempotency correction ==================
 RMS occupancy error at iteration   1:  0.000319 (step -0.4928 Ne1=   7192.0000)
 RMS occupancy error at iteration   2:  0.000005 (step -0.5000 Ne1=   7192.0000)
            Final RMS occupancy error   :  0.000000 (Ne1=   7192.0000)
               Final occupancy bounds   : [  0.0000,  1.0000]
================================================================================

    4        -1.153289155518E+04     1.0978E-04     9.9290E-05    -5.1856E-01
MG BCs: +ve charge blocks (gridpoints):     31597 (   17664405).
MG BCs: -ve charge blocks (gridpoints):      8363 (    1113055).
MG BCs:     Elided blocks (gridpoints):    183625 (  191926085).
MG BCs: Computational effort saved:  99.9810%.
MG BCs: Charge after coarse-graining:           -9.0010019.
MG DL_MG: Calling solver with defect correction order = 8
MG DL_MG: Solver finished
MG Hartree energy from (\int phi*rho dr):              1430.170605
MG Hartree energy from (\int eps (grad phi)^2 dr):     1429.535502
MG Discrepancy due to finite box and discretization:     -0.635103 (  -0.04441%)
MG Correction to account for finite box:                  0.460412
MG Remaining discrepancy, due to discretization:         -0.174691 (  -0.01221%)
      ideal mu1:      -0.770511976942
             Q0:  -11533.023029369302
             G0:      -0.203742232009
   RMS gradient:       0.000069248237
MG BCs: +ve charge blocks (gridpoints):     31597 (   17664564).
MG BCs: -ve charge blocks (gridpoints):      8360 (    1112904).
MG BCs:     Elided blocks (gridpoints):    183625 (  191926077).
MG BCs: Computational effort saved:  99.9810%.
MG BCs: Charge after coarse-graining:           -9.0010018.
MG DL_MG: Calling solver with defect correction order = 8
MG DL_MG: Solver finished
MG Hartree energy from (\int phi*rho dr):              1430.623705
MG Hartree energy from (\int eps (grad phi)^2 dr):     1429.988525
MG Discrepancy due to finite box and discretization:     -0.635180 (  -0.04440%)
MG Correction to account for finite box:                  0.460333
MG Remaining discrepancy, due to discretization:         -0.174847 (  -0.01222%)
     Trial step:       0.493597242913
             Q1:  -11533.089228212368
 Quadratic coef:       0.034367760920
 Linear coef   :      -0.100566603985
           Qmin:  -11533.096598621170
Quadratic minimum step length (  0.722179698755) accepted
    Initial Ne1:    7191.99999182
      Final Ne1:    7192.00000000

=================== Penalty functional idempotency correction ==================
 RMS occupancy error at iteration   1:  0.000657 (step -0.4564 Ne1=   7192.0000)
 RMS occupancy error at iteration   2:  0.000018 (step -0.4999 Ne1=   7192.0000)
            Final RMS occupancy error   :  0.000000 (Ne1=   7192.0000)
               Final occupancy bounds   : [ -0.0000,  1.0000]
================================================================================

    5        -1.153302302937E+04     6.9248E-05     6.2633E-05    -1.3147E-01
MG BCs: +ve charge blocks (gridpoints):     31595 (   17664653).
MG BCs: -ve charge blocks (gridpoints):      8363 (    1112885).
MG BCs:     Elided blocks (gridpoints):    183627 (  191926007).
MG BCs: Computational effort saved:  99.9810%.
MG BCs: Charge after coarse-graining:           -9.0010018.
MG DL_MG: Calling solver with defect correction order = 8
MG DL_MG: Solver finished
MG Hartree energy from (\int phi*rho dr):              1430.832867
MG Hartree energy from (\int eps (grad phi)^2 dr):     1430.197652
MG Discrepancy due to finite box and discretization:     -0.635215 (  -0.04439%)
MG Correction to account for finite box:                  0.460295
MG Remaining discrepancy, due to discretization:         -0.174920 (  -0.01223%)
      ideal mu1:      -0.770465675844
             Q0:  -11533.095184179023
             G0:      -0.194935595198
   RMS gradient:       0.000068685045
MG BCs: +ve charge blocks (gridpoints):     31597 (   17664010).
MG BCs: -ve charge blocks (gridpoints):      8362 (    1113233).
MG BCs:     Elided blocks (gridpoints):    183625 (  191926302).
MG BCs: Computational effort saved:  99.9810%.
MG BCs: Charge after coarse-graining:           -9.0010016.
MG DL_MG: Calling solver with defect correction order = 8
MG DL_MG: Solver finished
MG Hartree energy from (\int phi*rho dr):              1429.430408
MG Hartree energy from (\int eps (grad phi)^2 dr):     1428.795322
MG Discrepancy due to finite box and discretization:     -0.635086 (  -0.04443%)
MG Correction to account for finite box:                  0.460195
MG Remaining discrepancy, due to discretization:         -0.174891 (  -0.01224%)
     Trial step:       0.597047659901
             Q1:  -11533.174562047119
 Quadratic coef:       0.037007972847
 Linear coef   :      -0.116385840944
           Qmin:  -11533.186689217871
Quadratic minimum step length (  0.938823294484) accepted
    Initial Ne1:    7191.99999478
      Final Ne1:    7192.00000000

=================== Penalty functional idempotency correction ==================
 RMS occupancy error at iteration   1:  0.003568 (step -0.3190 Ne1=   7192.0000)
 RMS occupancy error at iteration   2:  0.000162 (step -0.4973 Ne1=   7192.0000)
 RMS occupancy error at iteration   3:  0.000001 (step -0.5000 Ne1=   7192.0000)
            Final RMS occupancy error   :  0.000000 (Ne1=   7192.0000)
               Final occupancy bounds   : [  0.0000,  1.0000]
================================================================================

    6        -1.153309518418E+04     6.8685E-05     6.2124E-05    -7.2155E-02
MG BCs: +ve charge blocks (gridpoints):     31601 (   17663582).
MG BCs: -ve charge blocks (gridpoints):      8362 (    1113477).
MG BCs:     Elided blocks (gridpoints):    183621 (  191926486).
MG BCs: Computational effort saved:  99.9810%.
MG BCs: Charge after coarse-graining:           -9.0010015.
MG DL_MG: Calling solver with defect correction order = 8
MG DL_MG: Solver finished
MG Hartree energy from (\int phi*rho dr):              1428.649819
MG Hartree energy from (\int eps (grad phi)^2 dr):     1428.014787
MG Discrepancy due to finite box and discretization:     -0.635032 (  -0.04445%)
MG Correction to account for finite box:                  0.460154
MG Remaining discrepancy, due to discretization:         -0.174878 (  -0.01224%)
      ideal mu1:      -0.770000813109
             Q0:  -11533.178709056345
             G0:      -0.246850819484
   RMS gradient:       0.000076378300
MG BCs: +ve charge blocks (gridpoints):     31596 (   17665110).
MG BCs: -ve charge blocks (gridpoints):      8356 (    1112651).
MG BCs:     Elided blocks (gridpoints):    183626 (  191925784).
MG BCs: Computational effort saved:  99.9810%.
MG BCs: Charge after coarse-graining:           -9.0010021.
MG DL_MG: Calling solver with defect correction order = 8
MG DL_MG: Solver finished
MG Hartree energy from (\int phi*rho dr):              1430.611375
MG Hartree energy from (\int eps (grad phi)^2 dr):     1429.976470
MG Discrepancy due to finite box and discretization:     -0.634905 (  -0.04438%)
MG Correction to account for finite box:                  0.460223
MG Remaining discrepancy, due to discretization:         -0.174682 (  -0.01221%)
     Trial step:       0.748680339686
             Q1:  -11533.265974225127
 Quadratic coef:       0.097547186600
 Linear coef   :      -0.184812355383
           Qmin:  -11533.266245170642
Quadratic minimum step length (  0.709222796824) accepted
    Initial Ne1:    7191.99999988
      Final Ne1:    7192.00000000

=================== Penalty functional idempotency correction ==================
 RMS occupancy error at iteration   1:  0.000255 (step -0.4797 Ne1=   7192.0000)
 RMS occupancy error at iteration   2:  0.000001 (step -0.5000 Ne1=   7192.0000)
            Final RMS occupancy error   :  0.000000 (Ne1=   7192.0000)
               Final occupancy bounds   : [  0.0000,  1.0000]
================================================================================

    7        -1.153317870906E+04     7.6378E-05     6.9082E-05    -8.3525E-02
MG BCs: +ve charge blocks (gridpoints):     31596 (   17665031).
MG BCs: -ve charge blocks (gridpoints):      8357 (    1112705).
MG BCs:     Elided blocks (gridpoints):    183626 (  191925809).
MG BCs: Computational effort saved:  99.9810%.
MG BCs: Charge after coarse-graining:           -9.0010020.
MG DL_MG: Calling solver with defect correction order = 8
MG DL_MG: Solver finished
MG Hartree energy from (\int phi*rho dr):              1430.507892
MG Hartree energy from (\int eps (grad phi)^2 dr):     1429.872981
MG Discrepancy due to finite box and discretization:     -0.634910 (  -0.04438%)
MG Correction to account for finite box:                  0.460218
MG Remaining discrepancy, due to discretization:         -0.174692 (  -0.01221%)
      ideal mu1:      -0.770944748553
             Q0:  -11533.266255138558
             G0:      -0.208398408449
   RMS gradient:       0.000070278067
MG BCs: +ve charge blocks (gridpoints):     31597 (   17664927).
MG BCs: -ve charge blocks (gridpoints):      8357 (    1112695).
MG BCs:     Elided blocks (gridpoints):    183625 (  191925923).
MG BCs: Computational effort saved:  99.9810%.
MG BCs: Charge after coarse-graining:           -9.0010021.
MG DL_MG: Calling solver with defect correction order = 8
MG DL_MG: Solver finished
MG Hartree energy from (\int phi*rho dr):              1430.370697
MG Hartree energy from (\int eps (grad phi)^2 dr):     1429.735760
MG Discrepancy due to finite box and discretization:     -0.634937 (  -0.04439%)
MG Correction to account for finite box:                  0.460393
MG Remaining discrepancy, due to discretization:         -0.174544 (  -0.01220%)
     Trial step:       0.728684543845
             Q1:  -11533.347214120440
 Quadratic coef:       0.070897717316
 Linear coef   :      -0.151856699199
           Qmin:  -11533.347571074968
Quadratic minimum step length (  0.780389226721) accepted
    Initial Ne1:    7191.99999963
      Final Ne1:    7192.00000000

=================== Penalty functional idempotency correction ==================
 RMS occupancy error at iteration   1:  0.001550 (step -0.3984 Ne1=   7192.0000)
 RMS occupancy error at iteration   2:  0.000030 (step -0.4992 Ne1=   7192.0000)
            Final RMS occupancy error   :  0.000000 (Ne1=   7192.0000)
               Final occupancy bounds   : [ -0.0000,  1.0000]
================================================================================

    8        -1.153326625514E+04     7.0278E-05     6.3565E-05    -8.7546E-02
MG BCs: +ve charge blocks (gridpoints):     31597 (   17664892).
MG BCs: -ve charge blocks (gridpoints):      8357 (    1112707).
MG BCs:     Elided blocks (gridpoints):    183625 (  191925946).
MG BCs: Computational effort saved:  99.9810%.
MG BCs: Charge after coarse-graining:           -9.0010021.
MG DL_MG: Calling solver with defect correction order = 8
MG DL_MG: Solver finished
MG Hartree energy from (\int phi*rho dr):              1430.363980
MG Hartree energy from (\int eps (grad phi)^2 dr):     1429.729051
MG Discrepancy due to finite box and discretization:     -0.634929 (  -0.04439%)
MG Correction to account for finite box:                  0.460394
MG Remaining discrepancy, due to discretization:         -0.174534 (  -0.01220%)
      ideal mu1:      -0.770063930524
             Q0:  -11533.347747334978
             G0:      -0.176662262918
   RMS gradient:       0.000064164979
MG BCs: +ve charge blocks (gridpoints):     31596 (   17664219).
MG BCs: -ve charge blocks (gridpoints):      8360 (    1113147).
MG BCs:     Elided blocks (gridpoints):    183626 (  191926179).
MG BCs: Computational effort saved:  99.9810%.
MG BCs: Charge after coarse-graining:           -9.0010019.
MG DL_MG: Calling solver with defect correction order = 8
MG DL_MG: Solver finished
MG Hartree energy from (\int phi*rho dr):              1429.260932
MG Hartree energy from (\int eps (grad phi)^2 dr):     1428.625824
MG Discrepancy due to finite box and discretization:     -0.635108 (  -0.04444%)
MG Correction to account for finite box:                  0.460610
MG Remaining discrepancy, due to discretization:         -0.174498 (  -0.01221%)
     Trial step:       0.754093871939
             Q1:  -11533.404236482107
 Quadratic coef:       0.076730782739
 Linear coef   :      -0.133219929869
           Qmin:  -11533.405571421612
Quadratic minimum step length (  0.654628619363) accepted
    Initial Ne1:    7192.00047957
      Final Ne1:    7192.00000000

=================== Penalty functional idempotency correction ==================
 RMS occupancy error at iteration   1:  0.002634 (step -0.3508 Ne1=   7192.0000)
 RMS occupancy error at iteration   2:  0.000084 (step -0.4964 Ne1=   7192.0000)
 RMS occupancy error at iteration   3:  0.000000 (step -0.5000 Ne1=   7192.0000)
            Final RMS occupancy error   :  0.000000 (Ne1=   7192.0000)
               Final occupancy bounds   : [  0.0000,  1.0000]
================================================================================

    9        -1.153334774733E+04     6.4165E-05     5.8036E-05    -8.1492E-02
MG BCs: +ve charge blocks (gridpoints):     31596 (   17664325).
MG BCs: -ve charge blocks (gridpoints):      8360 (    1113076).
MG BCs:     Elided blocks (gridpoints):    183626 (  191926144).
MG BCs: Computational effort saved:  99.9810%.
MG BCs: Charge after coarse-graining:           -9.0010019.
MG DL_MG: Calling solver with defect correction order = 8
MG DL_MG: Solver finished
MG Hartree energy from (\int phi*rho dr):              1429.403534
MG Hartree energy from (\int eps (grad phi)^2 dr):     1428.768462
MG Discrepancy due to finite box and discretization:     -0.635071 (  -0.04443%)
MG Correction to account for finite box:                  0.460574
MG Remaining discrepancy, due to discretization:         -0.174498 (  -0.01221%)
      ideal mu1:      -0.768807453145
   10        -1.153341089226E+04     5.1103E-05     4.6221E-05    -6.3145E-02
Finished density kernel iterations (  10)

Writing density kernel to file "host_31261.vacuum_dkn" ... done


>>> Density kernel optimised for the current NGWF basis:
     ~~~~~~~~~~~~~~~~~~~~~~~~~~~~~~~~~~~~~~~~~~~~~~~~~~~~~~~~~~~
     Total energy                =  -1.15334108922641E+04  Eh
     Estimated bandgap           =  -3.6729E-01  Eh
     RMS occupancy error         =   7.6571E-12
     [H,K] commutator            =   4.6221E-05
     Occupancy bounds            = [  0.000:  1.000]
     ~~~~~~~~~~~~~~~~~~~~~~~~~~~~~~~~~~~~~~~~~~~~~~~~~~~~~~~~~~~




################################################################################
########################### NGWF CG iteration  001 #############################
################################################################################
****** Reciprocal space K.E. preconditioning with k_zero =  3.5000 a0^-1 *******

>>> Checking for convergence of NGWFs:   NOT CONVERGED
  ========================================================================
         NGWF RMS gradient =  1.5633E-03 >  2.0000E-06  | above tolerance
  ========================================================================

>>> Improving NGWFs using line search:
============ Calculation of NGWF S^-1 using Hotelling algorithm ================ 
         Iteration  |  Frobenius norm and Maximum abs value    (of I-S*S_n^-1)   
               1       0.19202764E+00     0.47844569E-02
               2       0.85596673E-03     0.33538065E-04
               3       0.28915005E-07     0.17490249E-08
               4       0.12698463E-12     0.59952043E-14
================================================================================
MG BCs: +ve charge blocks (gridpoints):     31113 (   17606823).
MG BCs: -ve charge blocks (gridpoints):      8369 (    1112714).
MG BCs:     Elided blocks (gridpoints):    184112 (  191984008).
MG BCs: Computational effort saved:  99.9813%.
MG BCs: Charge after coarse-graining:           -9.0010035.
MG DL_MG: Calling solver with defect correction order = 8
MG DL_MG: Solver finished
MG Hartree energy from (\int phi*rho dr):              1398.114215
MG Hartree energy from (\int eps (grad phi)^2 dr):     1397.479921
MG Discrepancy due to finite box and discretization:     -0.634294 (  -0.04537%)
MG Correction to account for finite box:                  0.460521
MG Remaining discrepancy, due to discretization:         -0.173774 (  -0.01243%)
============ Calculation of NGWF S^-1 using Hotelling algorithm ================ 
         Iteration  |  Frobenius norm and Maximum abs value    (of I-S*S_n^-1)   
               1       0.18528696E+01     0.39438090E-01
               2       0.71390041E-01     0.21010947E-02
               3       0.14336976E-03     0.75270022E-05
               4       0.10664730E-08     0.12792227E-09
               5       0.11093876E-12     0.51070259E-14
================================================================================
------------------------------- NGWF line search -------------------------------
RMS gradient                =       0.00156329139955
Trial step length           =               0.122474
Gradient along search dir.  =       -269.99895082232
Functional at step 0        =  -11533.41089226410259
Functional at step 1        =  -11564.00388310663402
Functional predicted        =  -11643.86492795571576
Selected quadratic step     =               0.818181
--------------------------- NGWF line search finished --------------------------
                                               
Writing NGWFs to file "host_31261.vacuum_tightbox_ngwfs"....  done

>>> Optimising kernel for current NGWFs:
   Initial electron number for spin 1:    7226.43718060
     Final electron number for spin 1:    7192.00000000

=================== Penalty functional idempotency correction ==================
 RMS occupancy error at iteration   1:  0.004258 (step -0.4861 Ne1=   7192.0000)
 RMS occupancy error at iteration   2:  0.000070 (step -0.5003 Ne1=   7192.0000)
            Final RMS occupancy error   :  0.000000 (Ne1=   7192.0000)
               Final occupancy bounds   : [  0.0000,  1.0000]
================================================================================

................................................................................
<<<<<<<<<<<<<< LNV (Original version) density kernel optimisation >>>>>>>>>>>>>>
~~~~~~~~~~~~~~~~~~~~~~~~~~~~~~~~~~~~~~~~~~~~~~~~~~~~~~~~~~~~~~~~~~~~~~~~~~~~~~~~
   iter  |      energy (Eh)       | rms gradient |  commutator  |   dE (Eh)
MG BCs: +ve charge blocks (gridpoints):     25064 (   17315619).
MG BCs: -ve charge blocks (gridpoints):      8535 (    1096501).
MG BCs:     Elided blocks (gridpoints):    190168 (  192291425).
MG BCs: Computational effort saved:  99.9841%.
MG BCs: Charge after coarse-graining:           -9.0006646.
MG DL_MG: Calling solver with defect correction order = 8
MG DL_MG: Solver finished
MG Hartree energy from (\int phi*rho dr):              1242.792613
MG Hartree energy from (\int eps (grad phi)^2 dr):     1242.158291
MG Discrepancy due to finite box and discretization:     -0.634322 (  -0.05104%)
MG Correction to account for finite box:                  0.460272
MG Remaining discrepancy, due to discretization:         -0.174050 (  -0.01400%)
      ideal mu1:      -0.709179190411
             Q0:  -11643.047323879437
             G0:      -9.986445505164
   RMS gradient:       0.000485800735
MG BCs: +ve charge blocks (gridpoints):     25118 (   17330348).
MG BCs: -ve charge blocks (gridpoints):      8513 (    1093006).
MG BCs:     Elided blocks (gridpoints):    190114 (  192280191).
MG BCs: Computational effort saved:  99.9840%.
MG BCs: Charge after coarse-graining:           -9.0006614.
MG DL_MG: Calling solver with defect correction order = 8
MG DL_MG: Solver finished
MG Hartree energy from (\int phi*rho dr):              1258.092130
MG Hartree energy from (\int eps (grad phi)^2 dr):     1257.452914
MG Discrepancy due to finite box and discretization:     -0.639216 (  -0.05081%)
MG Correction to account for finite box:                  0.459536
MG Remaining discrepancy, due to discretization:         -0.179679 (  -0.01428%)
     Trial step:       0.702603323546
             Q1:  -11642.599477641168
 Quadratic coef:       7.464356040604
 Linear coef   :      -7.016509802335
           Qmin:  -11644.696207237172
Quadratic minimum step length (  0.330224273869) accepted
    Initial Ne1:    7191.99958587
      Final Ne1:    7192.00000000

=================== Penalty functional idempotency correction ==================
 RMS occupancy error at iteration   1:  0.000360 (step -0.4986 Ne1=   7192.0000)
 RMS occupancy error at iteration   2:  0.000000 (step -0.5000 Ne1=   7192.0000)
            Final RMS occupancy error   :  0.000000 (Ne1=   7192.0000)
               Final occupancy bounds   : [  0.0000,  1.0000]
================================================================================

    1        -1.164304732388E+04     4.8580E-04     4.3940E-04
MG BCs: +ve charge blocks (gridpoints):     25091 (   17322664).
MG BCs: -ve charge blocks (gridpoints):      8524 (    1094926).
MG BCs:     Elided blocks (gridpoints):    190141 (  192285955).
MG BCs: Computational effort saved:  99.9840%.
MG BCs: Charge after coarse-graining:           -9.0006630.
MG DL_MG: Calling solver with defect correction order = 8
MG DL_MG: Solver finished
MG Hartree energy from (\int phi*rho dr):              1249.070423
MG Hartree energy from (\int eps (grad phi)^2 dr):     1248.433893
MG Discrepancy due to finite box and discretization:     -0.636530 (  -0.05096%)
MG Correction to account for finite box:                  0.459905
MG Remaining discrepancy, due to discretization:         -0.176624 (  -0.01414%)
      ideal mu1:      -0.715445117968
             Q0:  -11644.672030436224
             G0:      -1.007500754883
   RMS gradient:       0.000154893436
MG BCs: +ve charge blocks (gridpoints):     25091 (   17322393).
MG BCs: -ve charge blocks (gridpoints):      8527 (    1095684).
MG BCs:     Elided blocks (gridpoints):    190141 (  192285468).
MG BCs: Computational effort saved:  99.9840%.
MG BCs: Charge after coarse-graining:           -9.0006629.
MG DL_MG: Calling solver with defect correction order = 8
MG DL_MG: Solver finished
MG Hartree energy from (\int phi*rho dr):              1250.142110
MG Hartree energy from (\int eps (grad phi)^2 dr):     1249.505295
MG Discrepancy due to finite box and discretization:     -0.636815 (  -0.05094%)
MG Correction to account for finite box:                  0.459824
MG Remaining discrepancy, due to discretization:         -0.176991 (  -0.01416%)
     Trial step:       0.481681089867
             Q1:  -11644.883340518107
 Quadratic coef:       0.273983979772
 Linear coef   :      -0.485294061654
           Qmin:  -11644.886924685217
Quadratic minimum step length (  0.426588760258) accepted
    Initial Ne1:    7191.99994560
      Final Ne1:    7192.00000000

=================== Penalty functional idempotency correction ==================
 RMS occupancy error at iteration   1:  0.000149 (step -0.4993 Ne1=   7192.0000)
            Final RMS occupancy error   :  0.000000 (Ne1=   7192.0000)
               Final occupancy bounds   : [ -0.0000,  1.0000]
================================================================================

    2        -1.164467203044E+04     1.5489E-04     1.4010E-04    -1.6247E+00
MG BCs: +ve charge blocks (gridpoints):     25091 (   17322347).
MG BCs: -ve charge blocks (gridpoints):      8527 (    1095617).
MG BCs:     Elided blocks (gridpoints):    190141 (  192285581).
MG BCs: Computational effort saved:  99.9840%.
MG BCs: Charge after coarse-graining:           -9.0006630.
MG DL_MG: Calling solver with defect correction order = 8
MG DL_MG: Solver finished
MG Hartree energy from (\int phi*rho dr):              1250.019467
MG Hartree energy from (\int eps (grad phi)^2 dr):     1249.382686
MG Discrepancy due to finite box and discretization:     -0.636781 (  -0.05094%)
MG Correction to account for finite box:                  0.459833
MG Remaining discrepancy, due to discretization:         -0.176948 (  -0.01416%)
      ideal mu1:      -0.716402136056
             Q0:  -11644.887381231529
             G0:      -0.168549567239
   RMS gradient:       0.000063046100
MG BCs: +ve charge blocks (gridpoints):     25092 (   17321737).
MG BCs: -ve charge blocks (gridpoints):      8527 (    1096037).
MG BCs:     Elided blocks (gridpoints):    190140 (  192285771).
MG BCs: Computational effort saved:  99.9840%.
MG BCs: Charge after coarse-graining:           -9.0006630.
MG DL_MG: Calling solver with defect correction order = 8
MG DL_MG: Solver finished
MG Hartree energy from (\int phi*rho dr):              1249.553239
MG Hartree energy from (\int eps (grad phi)^2 dr):     1248.916526
MG Discrepancy due to finite box and discretization:     -0.636712 (  -0.05096%)
MG Correction to account for finite box:                  0.459779
MG Remaining discrepancy, due to discretization:         -0.176933 (  -0.01416%)
     Trial step:       0.453298730382
             Q1:  -11644.941033280222
 Quadratic coef:       0.022751256143
 Linear coef   :      -0.076403304836
           Qmin:  -11644.951525656710
Quadratic minimum step length (  0.761134261361) accepted
    Initial Ne1:    7192.00141650
      Final Ne1:    7192.00000000

=================== Penalty functional idempotency correction ==================
 RMS occupancy error at iteration   1:  0.000163 (step -0.4934 Ne1=   7192.0000)
 RMS occupancy error at iteration   2:  0.000001 (step -0.5000 Ne1=   7192.0000)
            Final RMS occupancy error   :  0.000000 (Ne1=   7192.0000)
               Final occupancy bounds   : [  0.0000,  1.0000]
================================================================================

    3        -1.164488738123E+04     6.3046E-05     5.7024E-05    -2.1535E-01
MG BCs: +ve charge blocks (gridpoints):     25093 (   17321378).
MG BCs: -ve charge blocks (gridpoints):      8528 (    1096287).
MG BCs:     Elided blocks (gridpoints):    190139 (  192285880).
MG BCs: Computational effort saved:  99.9840%.
MG BCs: Charge after coarse-graining:           -9.0006630.
MG DL_MG: Calling solver with defect correction order = 8
MG DL_MG: Solver finished
MG Hartree energy from (\int phi*rho dr):              1249.236145
MG Hartree energy from (\int eps (grad phi)^2 dr):     1248.599480
MG Discrepancy due to finite box and discretization:     -0.636665 (  -0.05096%)
MG Correction to account for finite box:                  0.459741
MG Remaining discrepancy, due to discretization:         -0.176925 (  -0.01416%)
      ideal mu1:      -0.715590923509
             Q0:  -11644.951542402734
             G0:      -0.076321251826
   RMS gradient:       0.000042455776
MG BCs: +ve charge blocks (gridpoints):     25091 (   17321252).
MG BCs: -ve charge blocks (gridpoints):      8528 (    1096354).
MG BCs:     Elided blocks (gridpoints):    190141 (  192285939).
MG BCs: Computational effort saved:  99.9840%.
MG BCs: Charge after coarse-graining:           -9.0006630.
MG DL_MG: Calling solver with defect correction order = 8
MG DL_MG: Solver finished
MG Hartree energy from (\int phi*rho dr):              1249.222995
MG Hartree energy from (\int eps (grad phi)^2 dr):     1248.586513
MG Discrepancy due to finite box and discretization:     -0.636482 (  -0.05095%)
MG Correction to account for finite box:                  0.459691
MG Remaining discrepancy, due to discretization:         -0.176791 (  -0.01415%)
     Trial step:       0.587385047754
             Q1:  -11644.980671515106
 Quadratic coef:       0.015700849777
 Linear coef   :      -0.044829962149
           Qmin:  -11644.983542669197
Quadratic minimum step length (  0.838567651788) accepted
    Initial Ne1:    7192.00070747
      Final Ne1:    7192.00000000

=================== Penalty functional idempotency correction ==================
 RMS occupancy error at iteration   1:  0.000382 (step -0.4779 Ne1=   7192.0000)
 RMS occupancy error at iteration   2:  0.000004 (step -0.5000 Ne1=   7192.0000)
            Final RMS occupancy error   :  0.000000 (Ne1=   7192.0000)
               Final occupancy bounds   : [  0.0000,  1.0000]
================================================================================

    4        -1.164495154240E+04     4.2456E-05     3.8400E-05    -6.4161E-02
MG BCs: +ve charge blocks (gridpoints):     25091 (   17321289).
MG BCs: -ve charge blocks (gridpoints):      8528 (    1096298).
MG BCs:     Elided blocks (gridpoints):    190141 (  192285958).
MG BCs: Computational effort saved:  99.9840%.
MG BCs: Charge after coarse-graining:           -9.0006630.
MG DL_MG: Calling solver with defect correction order = 8
MG DL_MG: Solver finished
MG Hartree energy from (\int phi*rho dr):              1249.218763
MG Hartree energy from (\int eps (grad phi)^2 dr):     1248.582361
MG Discrepancy due to finite box and discretization:     -0.636402 (  -0.05094%)
MG Correction to account for finite box:                  0.459668
MG Remaining discrepancy, due to discretization:         -0.176735 (  -0.01415%)
      ideal mu1:      -0.716061683505
             Q0:  -11644.983263942762
             G0:      -0.090098180380
   RMS gradient:       0.000046359506
MG BCs: +ve charge blocks (gridpoints):     25094 (   17322938).
MG BCs: -ve charge blocks (gridpoints):      8525 (    1095786).
MG BCs:     Elided blocks (gridpoints):    190138 (  192284821).
MG BCs: Computational effort saved:  99.9840%.
MG BCs: Charge after coarse-graining:           -9.0006626.
MG DL_MG: Calling solver with defect correction order = 8
MG DL_MG: Solver finished
MG Hartree energy from (\int phi*rho dr):              1250.195253
MG Hartree energy from (\int eps (grad phi)^2 dr):     1249.559079
MG Discrepancy due to finite box and discretization:     -0.636174 (  -0.05089%)
MG Correction to account for finite box:                  0.459538
MG Remaining discrepancy, due to discretization:         -0.176636 (  -0.01413%)
     Trial step:       0.701827685540
             Q1:  -11645.021824303316
 Quadratic coef:       0.024673036854
 Linear coef   :      -0.063233397407
           Qmin:  -11645.023778438113
Quadratic minimum step length (  0.899341033963) accepted
    Initial Ne1:    7192.00090231
      Final Ne1:    7192.00000000

=================== Penalty functional idempotency correction ==================
 RMS occupancy error at iteration   1:  0.001725 (step -0.4100 Ne1=   7192.0000)
 RMS occupancy error at iteration   2:  0.000062 (step -0.4980 Ne1=   7192.0000)
 RMS occupancy error at iteration   3:  0.000000 (step -0.5000 Ne1=   7192.0000)
            Final RMS occupancy error   :  0.000000 (Ne1=   7192.0000)
               Final occupancy bounds   : [  0.0000,  1.0000]
================================================================================

    5        -1.164498326394E+04     4.6360E-05     4.1931E-05    -3.1722E-02
MG BCs: +ve charge blocks (gridpoints):     25095 (   17323419).
MG BCs: -ve charge blocks (gridpoints):      8524 (    1095634).
MG BCs:     Elided blocks (gridpoints):    190137 (  192284492).
MG BCs: Computational effort saved:  99.9840%.
MG BCs: Charge after coarse-graining:           -9.0006625.
MG DL_MG: Calling solver with defect correction order = 8
MG DL_MG: Solver finished
MG Hartree energy from (\int phi*rho dr):              1250.474738
MG Hartree energy from (\int eps (grad phi)^2 dr):     1249.838624
MG Discrepancy due to finite box and discretization:     -0.636114 (  -0.05087%)
MG Correction to account for finite box:                  0.459505
MG Remaining discrepancy, due to discretization:         -0.176609 (  -0.01412%)
      ideal mu1:      -0.718070397698
             Q0:  -11645.022910007508
             G0:      -0.095482095934
   RMS gradient:       0.000047299378
MG BCs: +ve charge blocks (gridpoints):     25096 (   17323720).
MG BCs: -ve charge blocks (gridpoints):      8523 (    1095747).
MG BCs:     Elided blocks (gridpoints):    190136 (  192284078).
MG BCs: Computational effort saved:  99.9840%.
MG BCs: Charge after coarse-graining:           -9.0006624.
MG DL_MG: Calling solver with defect correction order = 8
MG DL_MG: Solver finished
MG Hartree energy from (\int phi*rho dr):              1250.232379
MG Hartree energy from (\int eps (grad phi)^2 dr):     1249.596460
MG Discrepancy due to finite box and discretization:     -0.635919 (  -0.05086%)
MG Correction to account for finite box:                  0.459284
MG Remaining discrepancy, due to discretization:         -0.176635 (  -0.01413%)
     Trial step:       0.794469909045
             Q1:  -11645.062626587576
 Quadratic coef:       0.036141072005
 Linear coef   :      -0.075857652072
           Qmin:  -11645.062715020606
Quadratic minimum step length (  0.833769152358) accepted
    Initial Ne1:    7192.00087077
      Final Ne1:    7192.00000000

=================== Penalty functional idempotency correction ==================
 RMS occupancy error at iteration   1:  0.003643 (step -0.3415 Ne1=   7192.0000)
 RMS occupancy error at iteration   2:  0.000225 (step -0.4903 Ne1=   7192.0000)
 RMS occupancy error at iteration   3:  0.000005 (step -0.5000 Ne1=   7192.0000)
            Final RMS occupancy error   :  0.000000 (Ne1=   7192.0000)
               Final occupancy bounds   : [  0.0000,  1.0000]
================================================================================

    6        -1.164502291001E+04     4.7299E-05     4.2781E-05    -3.9646E-02
MG BCs: +ve charge blocks (gridpoints):     25097 (   17323734).
MG BCs: -ve charge blocks (gridpoints):      8523 (    1095756).
MG BCs:     Elided blocks (gridpoints):    190135 (  192284055).
MG BCs: Computational effort saved:  99.9840%.
MG BCs: Charge after coarse-graining:           -9.0006624.
MG DL_MG: Calling solver with defect correction order = 8
MG DL_MG: Solver finished
MG Hartree energy from (\int phi*rho dr):              1250.222376
MG Hartree energy from (\int eps (grad phi)^2 dr):     1249.586451
MG Discrepancy due to finite box and discretization:     -0.635926 (  -0.05087%)
MG Correction to account for finite box:                  0.459290
MG Remaining discrepancy, due to discretization:         -0.176636 (  -0.01413%)
      ideal mu1:      -0.718483276590
             Q0:  -11645.064677390270
             G0:      -0.074799670783
   RMS gradient:       0.000042043856
MG BCs: +ve charge blocks (gridpoints):     25091 (   17321519).
MG BCs: -ve charge blocks (gridpoints):      8528 (    1096321).
MG BCs:     Elided blocks (gridpoints):    190141 (  192285705).
MG BCs: Computational effort saved:  99.9840%.
MG BCs: Charge after coarse-graining:           -9.0006630.
MG DL_MG: Calling solver with defect correction order = 8
MG DL_MG: Solver finished
MG Hartree energy from (\int phi*rho dr):              1249.001523
MG Hartree energy from (\int eps (grad phi)^2 dr):     1248.365544
MG Discrepancy due to finite box and discretization:     -0.635979 (  -0.05092%)
MG Correction to account for finite box:                  0.459276
MG Remaining discrepancy, due to discretization:         -0.176703 (  -0.01415%)
     Trial step:       0.813882364128
             Q1:  -11645.090033075423
 Quadratic coef:       0.035522447741
 Linear coef   :      -0.060878132893
           Qmin:  -11645.090760524317
Quadratic minimum step length (  0.697413070804) accepted
    Initial Ne1:    7191.99999708
      Final Ne1:    7192.00000000

=================== Penalty functional idempotency correction ==================
 RMS occupancy error at iteration   1:  0.000048 (step -0.4969 Ne1=   7192.0000)
            Final RMS occupancy error   :  0.000000 (Ne1=   7192.0000)
               Final occupancy bounds   : [ -0.0000,  1.0000]
================================================================================

    7        -1.164506467739E+04     4.2044E-05     3.8028E-05    -4.1767E-02
MG BCs: +ve charge blocks (gridpoints):     25091 (   17321822).
MG BCs: -ve charge blocks (gridpoints):      8527 (    1096247).
MG BCs:     Elided blocks (gridpoints):    190141 (  192285476).
MG BCs: Computational effort saved:  99.9840%.
MG BCs: Charge after coarse-graining:           -9.0006629.
MG DL_MG: Calling solver with defect correction order = 8
MG DL_MG: Solver finished
MG Hartree energy from (\int phi*rho dr):              1249.175165
MG Hartree energy from (\int eps (grad phi)^2 dr):     1248.539193
MG Discrepancy due to finite box and discretization:     -0.635972 (  -0.05091%)
MG Correction to account for finite box:                  0.459278
MG Remaining discrepancy, due to discretization:         -0.176694 (  -0.01414%)
      ideal mu1:      -0.717553059000
             Q0:  -11645.090771041927
             G0:      -0.062001446665
   RMS gradient:       0.000038276450
MG BCs: +ve charge blocks (gridpoints):     25091 (   17322059).
MG BCs: -ve charge blocks (gridpoints):      8528 (    1096152).
MG BCs:     Elided blocks (gridpoints):    190141 (  192285334).
MG BCs: Computational effort saved:  99.9840%.
MG BCs: Charge after coarse-graining:           -9.0006629.
MG DL_MG: Calling solver with defect correction order = 8
MG DL_MG: Solver finished
MG Hartree energy from (\int phi*rho dr):              1249.124457
MG Hartree energy from (\int eps (grad phi)^2 dr):     1248.488459
MG Discrepancy due to finite box and discretization:     -0.635998 (  -0.05092%)
MG Correction to account for finite box:                  0.459181
MG Remaining discrepancy, due to discretization:         -0.176817 (  -0.01416%)
     Trial step:       0.753400423971
[...]
MG Correction to account for finite box:                  0.006232
MG Remaining discrepancy, due to discretization:         -0.176256 (  -0.01459%)
     Trial step:       0.296531157417
             Q1:  -11679.614018245949
 Quadratic coef:       0.000000000673
 Linear coef   :      -0.000000001371
           Qmin:  -11679.614018245949
Quadratic minimum step length (  0.302039132442) accepted
    Initial Ne1:    7192.00000000
      Final Ne1:    7192.00000000

=================== Penalty functional idempotency correction ==================
 RMS occupancy error at iteration   1:  0.000000 (step -0.5000 Ne1=   7192.0000)
            Final RMS occupancy error   :  0.000000 (Ne1=   7192.0000)
               Final occupancy bounds   : [  0.0000,  1.0000]
================================================================================

    7        -1.167961401825E+04     1.0453E-08     9.4546E-09    -6.9849E-10

Reusing previously generated solute cavity.
MG BCs: +ve charge blocks (gridpoints):     29316 (   19528690).
MG BCs: -ve charge blocks (gridpoints):      8517 (    1064663).
MG BCs:     Elided blocks (gridpoints):    185916 (  190110192).
MG BCs: Computational effort saved:  99.9820%.
MG BCs: Charge after coarse-graining:           -9.0009672.
MG DL_MG: Calling solver with defect correction order = 8
MG DL_MG: Solver finished
MG Hartree energy from (\int phi*rho dr):              1207.881971
MG Hartree energy from (\int eps (grad phi)^2 dr):     1207.699484
MG Discrepancy due to finite box and discretization:     -0.182488 (  -0.01511%)
MG Correction to account for finite box:                  0.006232
MG Remaining discrepancy, due to discretization:         -0.176256 (  -0.01459%)
      ideal mu1:      -0.480959255873
             Q0:  -11679.614018245717
             G0:      -0.000000002050
   RMS gradient:       0.000000005840

Reusing previously generated solute cavity.
MG BCs: +ve charge blocks (gridpoints):     29316 (   19528690).
MG BCs: -ve charge blocks (gridpoints):      8517 (    1064663).
MG BCs:     Elided blocks (gridpoints):    185916 (  190110192).
MG BCs: Computational effort saved:  99.9820%.
MG BCs: Charge after coarse-graining:           -9.0009672.
MG DL_MG: Calling solver with defect correction order = 8
MG DL_MG: Solver finished
MG Hartree energy from (\int phi*rho dr):              1207.881975
MG Hartree energy from (\int eps (grad phi)^2 dr):     1207.699487
MG Discrepancy due to finite box and discretization:     -0.182488 (  -0.01511%)
MG Correction to account for finite box:                  0.006232
MG Remaining discrepancy, due to discretization:         -0.176256 (  -0.01459%)
     Trial step:       0.299272473723
             Q1:  -11679.614018245600
 Quadratic coef:       0.000000000729
 Linear coef   :      -0.000000000614
           Qmin:  -11679.614018245846
Quadratic minimum step length (  0.125862882527) accepted
    Initial Ne1:    7192.00000000
      Final Ne1:    7192.00000000

=================== Penalty functional idempotency correction ==================
 RMS occupancy error at iteration   1:  0.000000 (step -0.5000 Ne1=   7192.0000)
            Final RMS occupancy error   :  0.000000 (Ne1=   7192.0000)
               Final occupancy bounds   : [ -0.0000,  1.0000]
================================================================================

    8        -1.167961401825E+04     5.8404E-09     5.2825E-09    -4.6566E-10

Reusing previously generated solute cavity.
MG BCs: +ve charge blocks (gridpoints):     29316 (   19528690).
MG BCs: -ve charge blocks (gridpoints):      8517 (    1064663).
MG BCs:     Elided blocks (gridpoints):    185916 (  190110192).
MG BCs: Computational effort saved:  99.9820%.
MG BCs: Charge after coarse-graining:           -9.0009672.
MG DL_MG: Calling solver with defect correction order = 8
MG DL_MG: Solver finished
MG Hartree energy from (\int phi*rho dr):              1207.881973
MG Hartree energy from (\int eps (grad phi)^2 dr):     1207.699485
MG Discrepancy due to finite box and discretization:     -0.182488 (  -0.01511%)
MG Correction to account for finite box:                  0.006232
MG Remaining discrepancy, due to discretization:         -0.176256 (  -0.01459%)
      ideal mu1:      -0.480959254780
             Q0:  -11679.614018245717
             G0:      -0.000000002242
   RMS gradient:       0.000000004977

Reusing previously generated solute cavity.
MG BCs: +ve charge blocks (gridpoints):     29316 (   19528690).
MG BCs: -ve charge blocks (gridpoints):      8517 (    1064663).
MG BCs:     Elided blocks (gridpoints):    185916 (  190110192).
MG BCs: Computational effort saved:  99.9820%.
MG BCs: Charge after coarse-graining:           -9.0009672.
MG DL_MG: Calling solver with defect correction order = 8
MG DL_MG: Solver finished
MG Hartree energy from (\int phi*rho dr):              1207.881972
MG Hartree energy from (\int eps (grad phi)^2 dr):     1207.699484
MG Discrepancy due to finite box and discretization:     -0.182488 (  -0.01511%)
MG Correction to account for finite box:                  0.006232
MG Remaining discrepancy, due to discretization:         -0.176256 (  -0.01459%)
     Trial step:       0.194080643558
             Q1:  -11679.614018245600
 Quadratic coef:       0.000000000551
 Linear coef   :      -0.000000000435
           Qmin:  -11679.614018245802
Quadratic minimum step length (  0.076612537888) accepted
    Initial Ne1:    7192.00000000
      Final Ne1:    7192.00000000

=================== Penalty functional idempotency correction ==================
 RMS occupancy error at iteration   1:  0.000000 (step -0.5000 Ne1=   7192.0000)
            Final RMS occupancy error   :  0.000000 (Ne1=   7192.0000)
               Final occupancy bounds   : [  0.0000,  1.0000]
================================================================================

    9        -1.167961401825E+04     4.9771E-09     4.5017E-09     0.0000E+00

Reusing previously generated solute cavity.
MG BCs: +ve charge blocks (gridpoints):     29316 (   19528690).
MG BCs: -ve charge blocks (gridpoints):      8517 (    1064663).
MG BCs:     Elided blocks (gridpoints):    185916 (  190110192).
MG BCs: Computational effort saved:  99.9820%.
MG BCs: Charge after coarse-graining:           -9.0009672.
MG DL_MG: Calling solver with defect correction order = 8
MG DL_MG: Solver finished
MG Hartree energy from (\int phi*rho dr):              1207.881973
MG Hartree energy from (\int eps (grad phi)^2 dr):     1207.699485
MG Discrepancy due to finite box and discretization:     -0.182488 (  -0.01511%)
MG Correction to account for finite box:                  0.006232
MG Remaining discrepancy, due to discretization:         -0.176256 (  -0.01459%)
      ideal mu1:      -0.480959252068
   10        -1.167961401825E+04     4.2755E-09     3.8671E-09     0.0000E+00
Finished density kernel iterations (  10)

Writing density kernel to file "host_31261.dkn" ... done


>>> Density kernel optimised for the current NGWF basis:
     ~~~~~~~~~~~~~~~~~~~~~~~~~~~~~~~~~~~~~~~~~~~~~~~~~~~~~~~~~~~
     Total energy                =  -1.16796140182457E+04  Eh
     Estimated bandgap           =   9.5018E-02  Eh
     RMS occupancy error         =   3.4273E-16
     [H,K] commutator            =   3.8671E-09
     Occupancy bounds            = [  0.000:  1.000]
     ~~~~~~~~~~~~~~~~~~~~~~~~~~~~~~~~~~~~~~~~~~~~~~~~~~~~~~~~~~~




################################################################################
########################### NGWF CG iteration  005 #############################
################################################################################
****** Reciprocal space K.E. preconditioning with k_zero =  3.5000 a0^-1 *******

>>> Checking for convergence of NGWFs: 
           ........................................................
           |         *** NGWF optimisation converged ***          |
           | RMS NGWF gradient =    0.00000092205217              |
           | Criteria satisfied:                                  |
           | -> RMS NGWF gradient lower than set threshold.       |
           ========================================================

Reusing previously generated solute cavity.
MG BCs: +ve charge blocks (gridpoints):     29316 (   19528690).
MG BCs: -ve charge blocks (gridpoints):      8517 (    1064663).
MG BCs:     Elided blocks (gridpoints):    185916 (  190110192).
MG BCs: Computational effort saved:  99.9820%.
MG BCs: Charge after coarse-graining:           -9.0009672.
MG DL_MG: Calling solver with defect correction order = 8
MG DL_MG: Solver finished
MG Hartree energy from (\int phi*rho dr):              1207.881973
MG Hartree energy from (\int eps (grad phi)^2 dr):     1207.699485
MG Discrepancy due to finite box and discretization:     -0.182488 (  -0.01511%)
MG Correction to account for finite box:                  0.006232
MG Remaining discrepancy, due to discretization:         -0.176256 (  -0.01459%)

================================================================================
           ---------------- ENERGY COMPONENTS (Eh) ----------------
           | Kinetic                    :     8533.73192512434616 |
           | Pseudo. (local,OBC,corr'd) :    -5054.40330542663924 |
           | Pseudopotential (non-local):     1402.73386858109711 |
           | Hartree (molecular)        :     1207.88197260641095 |
           | Exchange-correlation       :    -3358.02923880783874 |
           | Ion-ion (open BC)          :   826784.88174560153857 |
           | Dispersion Correction      :       -3.17837892702472 |
           | Smeared ion non-self corr. :  -826736.73937341605779 |
           | Smeared ion self corr.     :   -14457.16956389741972 |
           | Solvent cavitation energy  :        2.40622721993381 |
           | Solute-solvent dis-rep en. :       -1.72989690409092 |
           | Total                      :   -11679.61401824572386 |
           --------------------------------------------------------
           ------ LOCAL ENERGY COMPONENTS FROM MATRIX TRACES ------
           | Pseudopotential (local)    :    -5054.40330542662923 |
           | Hartree                    :    -1989.64229747059335 |
           --------------------------------------------------------
           Integrated density           :     7191.99999999881675
           Integrated density tr(KS)    :     7192.00000000000091
================================================================================


                        <<<<< CALCULATION SUMMARY >>>>>                         
|ITER|    RMS GRADIENT   |     TOTAL ENERGY    |   step   |     Epredicted              
   0     0.00004058771610 -11679.54626656614710   0.645070 -11679.60496797281485        
   1     0.00000966568982 -11679.61348418949638   0.086037 -11679.61392821184927        
   2     0.00000440645287 -11679.61399676545989   0.016797 -11679.61401478214611        
   3     0.00000202678501 -11679.61401728121564   0.003610 -11679.61401810044663        
   4     0.00000092205217 -11679.61401824571658  <-- CG                                 

=================== Finished the calculation in solvent ========================
= Adjusting the following parameters: 
= read_denskern: F
= read_tightbox_ngwfs: F
= maxit_pen: 0 (restored to user-specified value)
= restart read filename prefix: ""
= restart write filename prefix: ""
================================================================================

================================================================================
IS: Calculation in solvent completed (NGWFs converged).      

Individual components of total energy in solvent:     hartree           kcal/mol
- Usual non-electrostatic DFT terms:    -12888.17232116796913    -8087450.059433
- Electrostatic fixed charge energy:      1207.88197260641095      757957.364917
- Apolar cavitation energy:                  2.40622721993381        1509.930344
- Apolar dispersion-repulsion energy:       -1.72989690409092       -1085.526673
 -------------------------------------------------------------------------------
- Total energy in solvent:              -11679.61401824571658    -7329068.290845

Components of total energy in solvent:                hartree           kcal/mol
- Usual non-electrostatic DFT terms:    -12888.17232116796913    -8087450.059433
- Electrostatic energy:                   1207.88197260641095      757957.364917
- Apolar energy terms:                       0.67633031584290         424.403672
 -------------------------------------------------------------------------------
- Total energy in solvent:              -11679.61401824571658    -7329068.290845

Calculation of free energy of solvation:              hartree           kcal/mol
- Total energy in solvent:         (+)  -11679.61401824571658    -7329068.290845
- Total energy in vacuum:          (-)  -11675.59107159834821    -7326543.853764
 -------------------------------------------------------------------------------
- Total free energy of solvation:           -4.02294664736837       -2524.437080

Components of polar term in f.e. of solvation:        hartree           kcal/mol
- Electrostatic:                            -4.82009482254375       -3024.655101
- Change in nonelectrostatic DFT terms:      0.12081785933333          75.814350
 -------------------------------------------------------------------------------
- Polar term in f.e. of solvation:          -4.69927696321042       -2948.840752

Components of free energy of solvation:               hartree           kcal/mol
- Polar term in f.e. of solvation: (+)      -4.69927696321042       -2948.840752
- Apolar (cavitation, dis., rep.): (+)       0.67633031584290         424.403672
 -------------------------------------------------------------------------------
- Total free energy of solvation:           -4.02294664736753       -2524.437080
================================================================================


------------------------------ TIMING INFORMATION ------------------------------
AVERAGE TIME:   33529.698s on     60 node(s)                                    
TOTAL TIME:     33529.699s on     60 node(s)                                    
================= AVERAGE TIMINGS FROM ALL NODES (CUMULATIVE) ==================
|| TAG                                    #calls    cpu time   %total  Gflops ||
|| work_imbalance                       :     1        0.00s   0.000%  ------ ||
|| sparse_set_to_garbage                :   176        0.03s   0.000%  ------ ||
|| parallel_prepare_fd_halos_request    :  1947        0.03s   0.000%  ------ ||
|| parallel_prepare_fd_halos_alloc      :  1947        0.10s   0.000%  ------ ||
|| ngwfs_initialise_from_radial         :     1        0.11s   0.000%  ------ ||
|| basis_extract_function_from_box      :  3577        0.15s   0.000%  ------ ||
|| parallel_prepare_fd_halos_satisfy    :  1947        0.60s   0.002%  ------ ||
|| pseudopotentials_nonlocal_mat        :    30        1.21s   0.004%  ------ ||
|| openbc_locps_radial                  :     1        3.08s   0.009%  ------ ||
|| density_init_guess_real              :     1        3.79s   0.011%  ------ ||
|| restart_kernel_read                  :     1        4.46s   0.013%  ------ ||
|| parallel_prepare_fd_halos_comms_imbal:  1947        9.11s   0.027%  ------ ||
|| restart_ngwfs_tightbox_input         :     1       11.52s   0.034%  ------ ||
|| parallel_prepare_fd_halos_clear      :  1947       20.48s   0.061%  ------ ||
|| sparse_init                          :     2       21.75s   0.065%  ------ ||
|| projectors_func_ovlp_box             :    30       27.57s   0.082%  ------ ||
|| parallel_prepare_fd_halos_comms_wait :  1947       28.89s   0.086%  ------ ||
|| projectors_init_fftbox_recip         :   142       29.30s   0.087%  ------ ||
|| function_ops_brappd_ketppd           :    30       30.80s   0.092%  ------ ||
|| palser_mano_kernel_optimise          :     1       36.03s   0.107%  ------ ||
|| basis_copy_function_to_box           : 58111       45.13s   0.135%  ------ ||
|| ngwf_gradient_coeffs                 :    16       51.63s   0.154%  ------ ||
|| fourier_apply_box_pair               :  5101       56.58s   0.169% 592.199 ||
|| pseudo_make_structure_factor         :     2       56.99s   0.170%  ------ ||
|| parallel_prepare_fd_halos            :  1947       59.24s   0.177%  ------ ||
|| sparse_embed_hotelling_invert_embed  :    30       78.28s   0.233%  ------ ||
|| restart_kernel_write                 :    17      109.62s   0.327%  ------ ||
|| finite_difference_derivative         :  1947      136.42s   0.407%  ------ ||
|| integrals_kinetic                    :    30      147.45s   0.440%  ------ ||
|| basis_dot_function_with_box          : 8.737M     166.02s   0.495%  ------ ||
|| projectors_gradient_batch            :   112      181.29s   0.541%  ------ ||
|| sparse_trace                         :  5403      187.55s   0.559%  ------ ||
|| fourier_apply_cell_backward          :  1299      199.53s   0.595%  97.205 ||
|| fourier_apply_cell_forward           :  1297      230.67s   0.688%  83.955 ||
|| openbc_locps_on_grid                 :     2      282.97s   0.844%  ------ ||
|| kernel_purify                        :   495      314.16s   0.937%  ------ ||
|| basis_add_function_to_box            : 18.21M     392.41s   1.170%  ------ ||
|| lnv_gradient_norm                    :   160      472.01s   1.408%  ------ ||
|| xc_energy_potential                  :   324      501.78s   1.497%  ------ ||
|| hamiltonian_energy_components        :     4      509.05s   1.518%  ------ ||
|| kernel_fix                           :   160      568.32s   1.695%  ------ ||
|| integrals_locpot_mat_els_batch       :  1183      722.06s   2.154%  ------ ||
|| ngwf_gradient_build_batch            :   112      828.45s   2.471%  ------ ||
|| ngwf_gradient_batch                  :   112     1123.82s   3.352%  ------ ||
|| cell_grid_deposit_box_real           : 37197     1164.07s   3.472%  ------ ||
|| density_batch_row_sums               :  2261     1209.14s   3.606%  ------ ||
|| ngwf_gradient_lnv                    :    16     1262.84s   3.766%  ------ ||
|| restart_ngwfs_tightbox_output        :    14     1546.19s   4.611%  ------ ||
|| density_fftbox_deposit_to_cell       : 35207     1855.76s   5.535%  ------ ||
|| sparse_product                       :  6722     1969.45s   5.874%  ------ ||
|| cell_grid_extract_box_real           : 41070     2010.66s   5.997%  ------ ||
|| potential_apply_to_ngwf_batch        :  1183     3887.10s  11.593%  ------ ||
|| density_fftbox_interpolate_multiply  : 35207     4212.41s  12.563%  ------ ||
|| integrals_locpot_dbl_grid            :   169     4631.45s  13.813%  ------ ||
|| fourier_apply_box                    : 121.3k    5038.49s  15.027% 765.807 ||
|| multigrid_prepare_bound_cond         :   324     5154.09s  15.372%  ------ ||
|| density_batch_interp_deposit         :  2261     6981.01s  20.820%  ------ ||
|| dl_mg_solver_calls                   :   324     7939.36s  23.679%  ------ ||
|| density_on_dbl_grid                  :   323     8493.15s  25.330%  ------ ||
|| multigrid_calculate_hartree          :   324    13277.72s  39.600%  ------ ||
|| hamiltonian_lhxc_calculate           :   319    22244.53s  66.343%  ------ ||
|| lnv_denskernel_optimise_cg           :    16    27844.36s  83.044%  ------ ||
|| ngwf_cg_optimise                     :     2    32545.70s  97.065%  ------ ||
|| total_time                           :     1    33529.70s 100.000%  ------ ||
================================================================================
Overhead of generating timer report: 
- 0 ms averaging over threads,
- 15 ms ensuring consistency across MPI ranks,
- 0 ms printing in order.

Job completed: 07-05-2020 16:17 (+0100)

Application 40515692 resources: utime ~6812256s, stime ~331867s, Rss ~4165168, inblocks ~331279550, outblocks ~68423550
