 +---------------------------------------------------------------+
 |                                                               |
 |        ####### #     # ####### ####### ####### ######         |
 |        #     # ##    # #          #    #       #     #        |
 |        #     # # #   # #          #    #       #     #        |
 |        #     # #  #  # #####      #    #####   ######         |
 |        #     # #   # # #          #    #       #              |
 |        #     # #    ## #          #    #       #              |
 |        ####### #     # #######    #    ####### #              |
 |                                                               |
 |        Linear-Scaling Ab Initio Total Energy Program          |
 |                                                               |
 |          Release for academic collaborators of ODG            |
 |                                             Version 5.3.2.6.  |
 |                                                               |
 +---------------------------------------------------------------+
 |                                                               |
 |  Authors:                                                     |
 |  Jacek Dziedzic, Peter D. Haynes, Nicholas D. M. Hine,        |
 |  Arash. A. Mostofi, Mike C. Payne and Chris-Kriton Skylaris   |
 |                                                               |
 |  Contributors:                                                |
 |  J. Aarons, L. Andrinopoulos, P. W. Avraam, R. A. Bell,       |
 |  A. Bhandari, G. A. Bramley, R. J. Charlton, S. J. Clark,     |
 |  R. J. Clements, G. C. Constantinescu, F. Corsetti,           |
 |  N. Corsini, O. Dieguez, S. M. M. Dubois, K. K. B. Duff,      |
 |  J. M. Escartin, A. Greco, H. Helal, Q. O. Hill, L. P. Lee,   |
 |  J.-H. Li, E. B. Linscott, G. Moynihan, D. D. O`Regan,        |
 |  O. K. Okan, M. J. S. Phipps, C. J. Pickard,                  |
 |  J. C. A. Prentice, M. I. J. Probert, L. E. Ratcliff,         |
 |  M. Robinson, A. Ruiz Serrano, J. S. Spencer, E. W. Tait,     |
 |  G. Teobaldi, D. Turban, V. Vitale, K. A. Wilkinson,          |
 |  C. Weber, J. C. Womack, N. Yeung and T. J. Zuehlsdorff       |
 |                                                               |
 |                                   Copyright (c) 2004-2019     |
 |                                                               |
 |  Please cite:                                                 |
 |  "Introducing ONETEP: Linear-scaling density functional       |
 |   simulations on parallel computers".                         |
 |   C.-K. Skylaris, P. D. Haynes, A. A. Mostofi, M. C. Payne.   |
 |   J. Chem. Phys. 122 084119 (2005).                           |
 |                                                               |
 |          in all publications arising from your use of ONETEP. |
 |                                                               |
 +---------------------------------------------------------------+
 |                                                               |
 |   ONETEP is based on developments described in the following  |
 |   publications:                                               |
 |                                                               |
 |  "Nonorthogonal generalized Wannier function pseudopotential  |
 |   plane-wave method".                                         |
 |   C.-K. Skylaris, A. A. Mostofi, P. D. Haynes, O. Dieguez,    |
 |   M. C. Payne.                                                |
 |   Phys. Rev. B 66 035119 (2002).                              |
 |                                                               |
 |  "Preconditioned iterative minimization for linear-scaling    |
 |   electronic structure calculations".                         |
 |   A. A. Mostofi, P. D. Haynes, C.-K. Skylaris, M. C. Payne.   |
 |   J. Chem. Phys. 119(17), pp.8842-8848 (2003).                |
 |                                                               |
 |  "Total-energy calculations on a real space grid with         |
 |   localized functions and a plane-wave basis".                |
 |   A. A. Mostofi, C.-K. Skylaris, P. D. Haynes, M. C. Payne.   |
 |   Comput. Phys. Commun. 147, pp.788-802 (2002).               |
 |                                                               |
 |  "Accurate kinetic energy evaluation in electronic structure  |
 |   calculations with localized functions on real space grids"  |
 |   C.-K. Skylaris, A. A. Mostofi, P. D. Haynes, C. J. Pickard, |
 |   M. C. Payne.                                                |
 |   Comput. Phys. Commun. 140, pp.315-322 (2001).               |
 |                                                               |
 |  "Accurate ionic forces and geometry optimization in linear-  |
 |   scaling density-functional theory with local orbitals"      |
 |   N. D. M. Hine, M. Robinson, P. D. Haynes, C.-K. Skylaris,   |
 |   M. C. Payne, and A. A. Mostofi.                             |
 |   Phys. Rev. B 83 195102 (2011).                              |
 |                                                               |
 +---------------------------------------------------------------+

Job started: 16-02-2020 07:37 (-0000)
 
Reading parameters from file "host_21761.dat" ...... done

If your calculation crashes here, before "Checking processes and threads..."
is displayed, then your stack size is insufficient.
If so, use "ulimit -s unlimited" at runtime.
You can disable this check with "check_stack_size F".

Checking processes and threads...
   Determining the default number of threads...
      No default threads set at compilation time: defaulting to 1.
      OpenMP library call suggests 4 threads.
      Hybrid MPI-OpenMP compilation detected.
      Number of MPI processes > 1.
      OMP_NUM_THREADS environment variable present and
      its value matches the one obtained from the OpenMP library call.
      Using this value as default.
      Default threads: 4
      Default applies to threads_max and threads_num_fftboxes.
      Settings in the input file override this default.
   ... done

   Running with 60 MPI processes.
   There are 6 MPI processes running on the same node as the root process.
   Each MPI process is using: 
               1 threads for simulation cell FFTs.
               1 threads for parallel FFT box operations.
               4 threads for loops over batched FFT box operations.
               4 threads in other parallel regions.
... done

Basic input checks...... done

Reading geometry and species blocks from file "host_21761.dat" ...
  <species_atomic_set> block not found: NGWF initialisation set to SOLVE
IS: Dielectric excluded regions:
    - NONE.
    
  Number of PPD points along a3 set to 1.  This is 
  the default value, it may have been provided also in the input file.
... done
 Writing xyz coordinates to file "host_21761.xyz" ... done


--------------------------------------------------------------------------------
---------------------------------- INPUT FILE ----------------------------------
--------------------------------------------------------------------------------

cutoff_energy       : 800 eV                                                    
xc_functional PBE                                                               
task SINGLEPOINT                                                                
write_xyz true                                                                  
output_detail VERBOSE                                                           
ngwf_threshold_orig : 0.000002                                                  
kernel_cutoff       : 1000                                                      
k_zero              : 3.5                                                       
elec_cg_max 0                                                                   
occ_mix 1.0                                                                     
dispersion 1                                                                    
maxit_ngwf_cg 40                                                                
minit_lnv 10                                                                    
maxit_lnv 10                                                                    
write_denskern T                                                                
write_tightbox_ngwfs T                                                          
charge 9                                                                        
is_implicit_solvent T                                                           
is_auto_solvation T                                                             
is_include_apolar T                                                             
is_smeared_ion_rep T                                                            
is_solvent_surf_tension 4.7624E-5 Ha/bohr**2                                    
is_apolar_scaling_factor 0.281075                                               
is_solvation_beta 1.3                                                           
is_density_threshold 0.00035                                                    
is_bulk_permittivity 78.54                                                      
is_dielectric_model fix_initial                                                 
is_smeared_ion_width 0.8                                                        
mg_defco_fd_order 8                                                             
is_bc_coarseness 10                                                             
is_bc_surface_coarseness 1                                                      
fine_grid_scale 2.0                                                             
%block species                                                                  
N   N   7 4 8.0                                                                 
H   H   1 1 8.0                                                                 
C   C   6 4 8.0                                                                 
S   S  16 9 8.0                                                                 
O   O   8 4 8.0                                                                 
%endblock species                                                               
%block species_pot                                                              
N   N_00.recpot                                                                 
H   H_04.recpot                                                                 
C   C_01.recpot                                                                 
S   S_00.recpot                                                                 
O   O_02.recpot                                                                 
%endblock species_pot                                                           
%block lattice_cart                                                             
142.669   0.000   0.000                                                         
0.000 146.65   0.000                                                            
0.000   0.000   162.396                                                         
%endblock lattice_cart                                                          
%block positions_abs                                                            
     Hash =   000002286767593771055992
%endblock positions_abs                                                         

--------------------------------------------------------------------------------
-------------------------------- END INPUT FILE --------------------------------
--------------------------------------------------------------------------------


 
 ESDF WARNING(1): "kernelcutoff" (esdf_physical) has no units. Assume "bohr".
 ESDF WARNING(2): "kzero" (esdf_physical) has no units. Assume "1/bohr".
 ESDF WARNING(3
 ): "issmearedionwidth" (esdf_physical) has no units. Assume "bohr".
<<<<<<<<<<<<<<<<<<<<<<<<<<<<<<<<< Full system >>>>>>>>>>>>>>>>>>>>>>>>>>>>>>>>>>
<<<<<<<<<<<<<<<<<<<<<<<<< Pseudopotential information >>>>>>>>>>>>>>>>>>>>>>>>>>
File: N_00.recpot [ 2001 points up to Gmax=  52.9 (1/bohr)]
  Atomic number:  7;  ionic charge:  5.000000
    Shell 1: l = 0; rc = 1.48 bohr
File: H_04.recpot [ 2001 points up to Gmax=  52.9 (1/bohr)]
  Atomic number:  1;  ionic charge:  1.000000
    Local potential
File: C_01.recpot [ 2001 points up to Gmax=  52.9 (1/bohr)]
  Atomic number:  6;  ionic charge:  4.000000
    Shell 1: l = 0; rc = 1.48 bohr
File: S_00.recpot [ 2001 points up to Gmax=  52.9 (1/bohr)]
  Atomic number: 16;  ionic charge:  6.000000
    Shell 1: l = 0; rc = 1.90 bohr
    Shell 2: l = 2; rc = 1.84 bohr
File: O_02.recpot [ 2001 points up to Gmax=  52.9 (1/bohr)]
  Atomic number:  8;  ionic charge:  6.000000
    Shell 1: l = 0; rc = 1.31 bohr
<<<<<<<<<<<<<<<<<<<<<<<<<<<<<<<<<<<<<<<<>>>>>>>>>>>>>>>>>>>>>>>>>>>>>>>>>>>>>>>>

-------------------------- Atom counting information ---------------------------
Symbol    Natoms    Nngwfs    Nprojs
  N        236       944       236
  H       1311      1311         0
  C        810      3240       810
  S          6        54        36
  O        239       956       239
.......   ......    ......    ......
Totals:   2602      6505      1321
--------------------------------------------------------------------------------

=============================== PSINC grid sizes ===============================
                      Simulation cell:  286 x 294 x 320
                              FFT-box:  105 x 105 x  99
                                  PPD:   11 x   6 x   1
Grid space d1=  0.498842657343a0 (KE cutoff=  30.52649Eh = 830.66799eV)
Grid space d2=  0.498809523810a0 (KE cutoff=  30.53054Eh = 830.77835eV)
Grid space d3=  0.507487500000a0 (KE cutoff=  29.49533Eh = 802.60885eV)
================================================================================

********************* Fourier parallelisation information **********************
       Coarse grid (whole simulation cell) dimensions:    286   294   320
          Real-space ('12') slabs/node (min max mean):      5     6     5
         Recip-space ('23') slabs/node (min max mean):      2     3     2
********************************************************************************

********************* Fourier parallelisation information **********************
       Double grid (whole simulation cell) dimensions:    572   588   640
          Real-space ('12') slabs/node (min max mean):     10    11    10
         Recip-space ('23') slabs/node (min max mean):      4     5     4
********************************************************************************
ONETEP fine grid is 572 x 588 x 640 gridpoints, 142.6690 x 146.6500 x 162.3960 bohr.
FD multigrid is     569 x 585 x 633 gridpoints, 141.9207 x 145.9018 x 160.6198 bohr.


Calculating local pseudopotential in open BC on a radial grid ...
Discrepancy between calculated realspace psloc and -Z/x on [5a0,261.215a0]:
max |rel. diff| # avg |rel. diff| #  avg rel. diff #  f # pseudopotential file
 0.000261901569    0.000004963664   0.000000071970   55  'N_00.recpot'
 0.000422260137    0.000017549664  -0.000000063361   55  'H_04.recpot'
 0.000361991046    0.000016543264   0.000000134927   55  'C_01.recpot'
 0.000447743184    0.000019132268   0.000000438157   55  'S_00.recpot'
 0.000711628927    0.000028437426   0.000000135877   55  'O_02.recpot'
... done

Atom SCF Calculation for N  : Z (AE atom) =   7 : Z (PS atom) =   5
Config String:
Orbitals (num,occ):  2     2.00 3.00
Orbitals   (num,l):  2        0    1
Real-space Grid (nr,dr,rmax): 1203    0.0066555740    8.0000000000
Spherical Bessel Basis (nsws,lmax,cutoff):   47    1  176.3951722778
Confining potential (l,width,scale):  0    3.0000000000  100.0000000000
Confining potential (l,width,scale):  1    3.0000000000  100.0000000000
  1         -4.7312375307   -3.4155304497    7.0523828109   -1.9351020946
  2         -9.7309464766   -2.0532547791    8.2966052865   -2.2494486027
  3         -9.6627394379   -2.1124926340    8.2327997121   -2.2369778124
  4         -9.6814993499   -2.1215521045    8.2229805960   -2.2365178421
  5         -9.6843326483   -2.1250939529    8.2191374534   -2.2362718126
  6         -9.6859628709   -2.1267894855    8.2172963573   -2.2362066344
  7         -9.6867347035   -2.1276425665    8.2163697352   -2.2361903369
  8         -9.6870802100   -2.1280764625    8.2158983890   -2.2361891460
  9         -9.6872290423   -2.1282977424    8.2156580222   -2.2361920435
 10         -9.6872901988   -2.1284107021    8.2155353368   -2.2361953393
 11         -9.6873135296   -2.1284684031    8.2154726809   -2.2361979819
 12         -9.6873212476   -2.1284978948    8.2154406648   -2.2361998431
 13         -9.6873229586   -2.1285129774    8.2154242957   -2.2362010676
 14         -9.6873226456   -2.1285206957    8.2154159216   -2.2362018403
 15         -9.6873218534   -2.1285246479    8.2154116349   -2.2362023142
 16         -9.6873212599   -2.1285262679    8.2154098784   -2.2362025420
 17         -9.6873207834   -2.1285272564    8.2154088068   -2.2362026955
 18         -9.6873204210   -2.1285278596    8.2154081529   -2.2362027982
 19         -9.6873201550   -2.1285282280    8.2154077538   -2.2362028667
 20         -9.6873199645   -2.1285284529    8.2154075102   -2.2362029121
 21         -9.6873198305   -2.1285285903    8.2154073614   -2.2362029421
 22         -9.6873197377   -2.1285286742    8.2154072705   -2.2362029618
Atom SCF converged after  22 iterations to a total energy of     -9.68731974

Atom SCF Calculation for H  : Z (AE atom) =   1 : Z (PS atom) =   1
Config String:
Orbitals (num,occ):  1     1.00
Orbitals   (num,l):  1        0
Real-space Grid (nr,dr,rmax): 1203    0.0066555740    8.0000000000
Spherical Bessel Basis (nsws,lmax,cutoff):   47    0  176.3951722778
Confining potential (l,width,scale):  0    3.0000000000  100.0000000000
  1         -0.3194257691   -0.2393854593    0.2820953124   -0.2424203209
  2         -0.3951823392   -0.2377116493    0.2886404059   -0.2475147891
  3         -0.4317044583   -0.2352244387    0.2921333887   -0.2514046172
  4         -0.4470703708   -0.2341892222    0.2934391879   -0.2531009782
  5         -0.4532132900   -0.2338556667    0.2938388426   -0.2537313520
  6         -0.4556579251   -0.2337612552    0.2939448584   -0.2539550462
  7         -0.4566418315   -0.2337377355    0.2939680120   -0.2540342273
  8         -0.4570437922   -0.2337331116    0.2939708287   -0.2540627372
  9         -0.4572102946   -0.2337328328    0.2939698291   -0.2540732650
 10         -0.4572800424   -0.2337332404    0.2939687193   -0.2540772588
 11         -0.4573095100   -0.2337335791    0.2939680317   -0.2540788122
 12         -0.4573220379   -0.2337337762    0.2939676699   -0.2540794294
 13         -0.4573273880   -0.2337338775    0.2939674931   -0.2540796787
 14         -0.4573296803   -0.2337339266    0.2939674099   -0.2540797808
 15         -0.4573306647   -0.2337339495    0.2939673718   -0.2540798230
 16         -0.4573310882   -0.2337339601    0.2939673545   -0.2540798406
 17         -0.4573312706   -0.2337339649    0.2939673467   -0.2540798479
 18         -0.4573313493   -0.2337339670    0.2939673433   -0.2540798510
Atom SCF converged after  18 iterations to a total energy of     -0.45733135

Atom SCF Calculation for C  : Z (AE atom) =   6 : Z (PS atom) =   4
Config String:
Orbitals (num,occ):  2     2.00 2.00
Orbitals   (num,l):  2        0    1
Real-space Grid (nr,dr,rmax): 1203    0.0066555740    8.0000000000
Spherical Bessel Basis (nsws,lmax,cutoff):   47    1  176.3951722778
Confining potential (l,width,scale):  0    3.0000000000  100.0000000000
Confining potential (l,width,scale):  1    3.0000000000  100.0000000000
  1         -5.2976922011   -1.3069684169    4.5135249990   -1.4493313817
  2         -5.3721716256   -1.3429755895    4.4750154450   -1.4361613026
  3         -5.3809959565   -1.3617365618    4.4541655428   -1.4305930207
  4         -5.3918938866   -1.3667928461    4.4484735100   -1.4294652294
  5         -5.3956096428   -1.3688539142    4.4461376126   -1.4290734646
  6         -5.3968271862   -1.3696852393    4.4451910874   -1.4289366866
  7         -5.3972028401   -1.3700178062    4.4448112275   -1.4288900460
  8         -5.3973067903   -1.3701500158    4.4446598370   -1.4288749220
  9         -5.3973286940   -1.3702023868    4.4445997329   -1.4288704293
 10         -5.3973289850   -1.3702230869    4.4445759233   -1.4288693188
 11         -5.3973254264   -1.3702312560    4.4445665049   -1.4288691775
 12         -5.3973224003   -1.3702344755    4.4445627836   -1.4288692549
 13         -5.3973208708   -1.3702354890    4.4445616088   -1.4288693270
 14         -5.3973198783   -1.3702360102    4.4445610034   -1.4288693814
 15         -5.3973192535   -1.3702362780    4.4445606917   -1.4288694190
 16         -5.3973188684   -1.3702364155    4.4445605313   -1.4288694437
 17         -5.3973186349   -1.3702364860    4.4445604489   -1.4288694595
 18         -5.3973184951   -1.3702365221    4.4445604065   -1.4288694693
 19         -5.3973184122   -1.3702365405    4.4445603848   -1.4288694753
Atom SCF converged after  19 iterations to a total energy of     -5.39731841

Atom SCF Calculation for S  : Z (AE atom) =  16 : Z (PS atom) =   6
Config String:
Orbitals (num,occ):  3     2.00 4.00 0.00
Orbitals   (num,l):  3        0    1    2
Real-space Grid (nr,dr,rmax): 1203    0.0066555740    8.0000000000
Spherical Bessel Basis (nsws,lmax,cutoff):   47    2  176.3951722778
Confining potential (l,width,scale):  0    3.0000000000  100.0000000000
Confining potential (l,width,scale):  1    3.0000000000  100.0000000000
Confining potential (l,width,scale):  2    3.0000000000  100.0000000000
  1        -12.4735062396   -1.0328741412   10.1554312477   -2.4512393157
  2         -9.9458301913   -2.4607392455    8.3041325857   -2.0306994528
  3        -10.1450417646   -2.2931184565    8.4831893826   -2.0812538287
  4        -10.1528335592   -2.2733105793    8.5050388867   -2.0896035179
  5        -10.1571940363   -2.2633716629    8.5160794258   -2.0939370707
  6        -10.1594380571   -2.2584938667    8.5215163935   -2.0961289008
  7        -10.1605856507   -2.2561081821    8.5241804044   -2.0972291378
  8        -10.1611799191   -2.2549395235    8.5254868240   -2.0977806248
  9        -10.1614918752   -2.2543658586    8.5261285885   -2.0980571586
 10        -10.1616572884   -2.2540839121    8.5264441898   -2.0981959233
 11        -10.1617455602   -2.2539453058    8.5265994231   -2.0982656006
 12        -10.1617928447   -2.2538772062    8.5266757320   -2.0983006047
 13        -10.1618182292   -2.2538437891    8.5267131983   -2.0983181961
 14        -10.1618318741   -2.2538274201    8.5267315620   -2.0983270391
 15        -10.1618392144   -2.2538194197    8.5267405433   -2.0983314852
 16        -10.1618431651   -2.2538155200    8.5267449245   -2.0983337210
 17        -10.1618452923   -2.2538136252    8.5267470551   -2.0983348455
 18        -10.1618464380   -2.2538127080    8.5267480875   -2.0983354110
 19        -10.1618470552   -2.2538122659    8.5267485856   -2.0983356955
 20        -10.1618473878   -2.2538120540    8.5267488248   -2.0983358386
 21        -10.1618475670   -2.2538119530    8.5267489389   -2.0983359106
 22        -10.1618476637   -2.2538119053    8.5267489929   -2.0983359468
Atom SCF converged after  22 iterations to a total energy of    -10.16184766

Atom SCF Calculation for O  : Z (AE atom) =   8 : Z (PS atom) =   6
Config String:
Orbitals (num,occ):  2     2.00 4.00
Orbitals   (num,l):  2        0    1
Real-space Grid (nr,dr,rmax): 1203    0.0066555740    8.0000000000
Spherical Bessel Basis (nsws,lmax,cutoff):   47    1  176.3951722778
Confining potential (l,width,scale):  0    3.0000000000  100.0000000000
Confining potential (l,width,scale):  1    3.0000000000  100.0000000000
  1         -1.8735052164   -7.5539365035   10.1554312477   -2.4512393157
  2        -16.0318313751   -3.1285771268   13.6395848164   -3.2358799643
  3        -15.9524020423   -3.0762819706   13.6967272503   -3.2536856837
  4        -15.8521515939   -3.0781493909   13.6951909330   -3.2561700440
  5        -15.8357139793   -3.0748501933   13.6988803334   -3.2580493133
  6        -15.8246052853   -3.0740779781   13.6997881576   -3.2588327446
  7        -15.8189019501   -3.0737449687   13.7001869911   -3.2592378801
  8        -15.8159785510   -3.0736026016   13.7003615168   -3.2594475790
  9        -15.8144776168   -3.0735437994   13.7004360379   -3.2595560735
 10        -15.8137058024   -3.0735207882   13.7004667348   -3.2596122456
 11        -15.8133083127   -3.0735125946   13.7004786868   -3.2596413656
 12        -15.8131032938   -3.0735102195   13.7004828997   -3.2596564858
 13        -15.8129973902   -3.0735099286   13.7004840891   -3.2596643505
 14        -15.8129426040   -3.0735102506   13.7004842061   -3.2596684489
 15        -15.8129142203   -3.0735106556   13.7004840157   -3.2596705887
 16        -15.8128994940   -3.0735109855   13.7004837906   -3.2596717080
 17        -15.8128918425   -3.0735112169   13.7004836103   -3.2596722946
 18        -15.8128878614   -3.0735113674   13.7004834848   -3.2596726026
 19        -15.8128857871   -3.0735114608   13.7004834035   -3.2596727646
 20        -15.8128847048   -3.0735115170   13.7004833533   -3.2596728500
 21        -15.8128841394   -3.0735115501   13.7004833231   -3.2596728951
 22        -15.8128838436   -3.0735115693   13.7004833054   -3.2596729190
 23        -15.8128836887   -3.0735115802   13.7004832951   -3.2596729316
 24        -15.8128836074   -3.0735115864   13.7004832893   -3.2596729383
Atom SCF converged after  24 iterations to a total energy of    -15.81288361

========================== Calculation in vacuum ==============================
= Adjusting the following parameters: 
= is_implicit_solvent: F
= is_include_apolar: F
= write_denskern: T
= write_tightbox_ngwfs: T
= restart read filename prefix: ""
= restart write filename prefix: "vacuum_"
===============================================================================

Determining parallel strategy ...
... using space-filling curve
... NGWF load balancing: max    109;  min    108;  average    108
... Projector load balancing: max     25;  min     21;  average     22
... done
Calculating direct Ion-Ion energy ...
Ion-Ion Energy        :    825133.24562082195189
======================= Empirical dispersion information =======================
Model : Elstner
Dispersion Correction Energy: -0.32202303E+01 Hartree
================================================================================
Basis initialisation ...... NGWF spheres initialised
... Projector spheres initialised
... NGWF tight boxes initialised
... Tight-boxes gathered
... NGWF basis size (local,global):     975028  58706011
... Nonlocal pseudopotential projector initialisation
... done

========================== Sparse matrix information ===========================
                        Overlap matrix filling:   6.70%
                        Density kernel filling: 100.00%
              NGWF-Proj overlap matrix filling:   1.76%
                    Hamiltonian matrix filling:   7.54%
                  NGWF diagonal matrix filling:   0.05%
                             KS matrix filling: 100.00% 
                           KSKS matrix filling: 100.00% 
================================================================================

Sparse matrix initialisation ... done

Generating smeared ion density ... done
Smeared ion self correction:     -14457.169564
Smeared ion non-self correction: -825085.325114
NGWF initialisation ...... done
============ Calculation of NGWF S^-1 using Hotelling algorithm ================ 
         Iteration  |  Frobenius norm and Maximum abs value    (of I-S*S_n^-1)   
               1       0.78514942E+02     0.98286330E+00
               2       0.76687948E+02     0.96620049E+00
               3       0.73719362E+02     0.93419555E+00
               4       0.69482719E+02     0.87488007E+00
               5       0.64190067E+02     0.77154285E+00
               6       0.58230667E+02     0.70502398E+00
               7       0.52221706E+02     0.66947674E+00
               8       0.46666691E+02     0.64647185E+00
               9       0.40631711E+02     0.60851922E+00
              10       0.32425201E+02     0.54111931E+00
              11       0.21891669E+02     0.43047654E+00
              12       0.11261409E+02     0.28039227E+00
              13       0.37578079E+01     0.13714208E+00
              14       0.61796454E+00     0.41739746E-01
              15       0.34928762E-01     0.45188867E-02
              16       0.29419715E-03     0.57042883E-04
              17       0.35540249E-07     0.92252370E-08
              18       0.97661701E-13     0.48849813E-14
================================================================================
Calculating local pseudopotential in open BC on the fine real space grid ...
... done

MG BCs: +ve charge blocks (gridpoints):     20732 (   16377647).
MG BCs: -ve charge blocks (gridpoints):      8088 (    1096609).
MG BCs:     Elided blocks (gridpoints):    194500 (  193229289).
MG BCs: Computational effort saved:  99.9863%.
MG BCs: Charge after coarse-graining:           -9.0002298.
MG DL_MG: Calling solver with defect correction order = 8
MG DL_MG: Solver finished
MG Hartree energy from (\int phi*rho dr):              1462.680916
MG Hartree energy from (\int eps (grad phi)^2 dr):     1462.080420
MG Discrepancy due to finite box and discretization:     -0.600496 (  -0.04105%)
MG Correction to account for finite box:                  0.453840
MG Remaining discrepancy, due to discretization:         -0.146656 (  -0.01003%)
Up spin density kernel initialisation ... 
======= Optimisation of K by Palser-Manolopoulos canonical purification ======== 
         Iteration  |  Band structure energy |    c_n   
               1       -2586.25585698152372    0.5260983
               2       -2761.91166174235059    0.5165779
               3       -2941.10087980790377    0.5155621
               4       -3089.52006553104547    0.5298621
               5       -3179.69649194312751    0.5662453
               6       -3217.00998893325868    0.6092866
               7       -3229.78338822350452    0.6175889
               8       -3235.41710997950941    0.6135050
               9       -3238.13478748102625    0.6301351
              10       -3239.21280635556650    0.6708765
              11       -3239.59247353465435    0.7121251
              12       -3239.74318104293707    0.7297939
              13       -3239.81978447925439    0.7034387
              14       -3239.87303950878231    0.6442757
              15       -3239.91405024074993    0.5755289
              16       -3239.93996256703031    0.5242264
              17       -3239.94975770435440    0.5007364
              18       -3239.95171271273421    0.4981239
              19       -3239.95196309806124    0.4998343
              20       -3239.95197449638090    0.5000001
              21       -3239.95197452725097    0.5000001
Termination criterion satisfied: band energy change below threshold.
Final occupancy bounds: [    0.00000000000000:    1.00000000000000]
Closest occupancy to 0.5:     0.99999999999999
================================================================================
... done

Writing density kernel to file "host_21761.vacuum_dkn" ... done

>>> Optimising kernel for current NGWFs:
   Initial electron number for spin 1:    7192.00000000
     Final electron number for spin 1:    7192.00000000

=================== Penalty functional idempotency correction ==================
 RMS occupancy error at iteration   1:  0.000000 (step -0.5000 Ne1=   7192.0000)
            Final RMS occupancy error   :  0.000000 (Ne1=   7192.0000)
               Final occupancy bounds   : [  0.0000,  1.0000]
================================================================================

................................................................................
<<<<<<<<<<<<<< LNV (Original version) density kernel optimisation >>>>>>>>>>>>>>
~~~~~~~~~~~~~~~~~~~~~~~~~~~~~~~~~~~~~~~~~~~~~~~~~~~~~~~~~~~~~~~~~~~~~~~~~~~~~~~~
   iter  |      energy (Eh)       | rms gradient |  commutator  |   dE (Eh)
MG BCs: +ve charge blocks (gridpoints):     31730 (   17500229).
MG BCs: -ve charge blocks (gridpoints):      8420 (    1130509).
MG BCs:     Elided blocks (gridpoints):    183496 (  192072807).
MG BCs: Computational effort saved:  99.9809%.
MG BCs: Charge after coarse-graining:           -9.0009942.
MG DL_MG: Calling solver with defect correction order = 8
MG DL_MG: Solver finished
MG Hartree energy from (\int phi*rho dr):              1417.227803
MG Hartree energy from (\int eps (grad phi)^2 dr):     1416.579511
MG Discrepancy due to finite box and discretization:     -0.648293 (  -0.04574%)
MG Correction to account for finite box:                  0.460178
MG Remaining discrepancy, due to discretization:         -0.188114 (  -0.01327%)
      ideal mu1:      -0.719231396977
             Q0:  -11509.441338538425
             G0:    -143.051563388751
   RMS gradient:       0.001838649734
MG BCs: +ve charge blocks (gridpoints):     31725 (   17581880).
MG BCs: -ve charge blocks (gridpoints):      8307 (    1109685).
MG BCs:     Elided blocks (gridpoints):    183501 (  192011980).
MG BCs: Computational effort saved:  99.9810%.
MG BCs: Charge after coarse-graining:           -9.0010154.
MG DL_MG: Calling solver with defect correction order = 8
MG DL_MG: Solver finished
MG Hartree energy from (\int phi*rho dr):              1442.462383
MG Hartree energy from (\int eps (grad phi)^2 dr):     1441.830231
MG Discrepancy due to finite box and discretization:     -0.632152 (  -0.04382%)
MG Correction to account for finite box:                  0.459471
MG Remaining discrepancy, due to discretization:         -0.172681 (  -0.01197%)
     Trial step:       0.500000000000
             Q1:  -11520.536405272083
 Quadratic coef:      60.430714960718
 Linear coef   :     -71.525781694376
           Qmin:  -11530.605813633238
Quadratic minimum step length (  0.295899948151) accepted
    Initial Ne1:    7192.00000000
      Final Ne1:    7192.00000000

=================== Penalty functional idempotency correction ==================
 RMS occupancy error at iteration   1:  0.003362 (step -0.4886 Ne1=   7192.0000)
 RMS occupancy error at iteration   2:  0.000025 (step -0.5000 Ne1=   7192.0000)
            Final RMS occupancy error   :  0.000000 (Ne1=   7192.0000)
               Final occupancy bounds   : [  0.0000,  1.0000]
================================================================================

    1        -1.150944133854E+04     1.8386E-03     1.6630E-03
MG BCs: +ve charge blocks (gridpoints):     31729 (   17549997).
MG BCs: -ve charge blocks (gridpoints):      8342 (    1118671).
MG BCs:     Elided blocks (gridpoints):    183495 (  192034877).
MG BCs: Computational effort saved:  99.9810%.
MG BCs: Charge after coarse-graining:           -9.0010067.
MG DL_MG: Calling solver with defect correction order = 8
MG DL_MG: Solver finished
MG Hartree energy from (\int phi*rho dr):              1424.254257
MG Hartree energy from (\int eps (grad phi)^2 dr):     1423.616427
MG Discrepancy due to finite box and discretization:     -0.637829 (  -0.04478%)
MG Correction to account for finite box:                  0.459661
MG Remaining discrepancy, due to discretization:         -0.178169 (  -0.01251%)
      ideal mu1:      -0.759369808179
             Q0:  -11531.004103197833
             G0:     -11.675919177190
   RMS gradient:       0.000521761676
MG BCs: +ve charge blocks (gridpoints):     31724 (   17567261).
MG BCs: -ve charge blocks (gridpoints):      8322 (    1113192).
MG BCs:     Elided blocks (gridpoints):    183499 (  192023092).
MG BCs: Computational effort saved:  99.9810%.
MG BCs: Charge after coarse-graining:           -9.0010102.
MG DL_MG: Calling solver with defect correction order = 8
MG DL_MG: Solver finished
MG Hartree energy from (\int phi*rho dr):              1429.636344
MG Hartree energy from (\int eps (grad phi)^2 dr):     1429.002223
MG Discrepancy due to finite box and discretization:     -0.634120 (  -0.04436%)
MG Correction to account for finite box:                  0.459094
MG Remaining discrepancy, due to discretization:         -0.175027 (  -0.01224%)
     Trial step:       0.384642657639
             Q1:  -11533.753432689235
 Quadratic coef:       1.741727091288
 Linear coef   :      -4.491056582690
           Qmin:  -11533.899159106677
Quadratic minimum step length (  0.495902012494) accepted
    Initial Ne1:    7191.99991756
      Final Ne1:    7192.00000000

=================== Penalty functional idempotency correction ==================
 RMS occupancy error at iteration   1:  0.001768 (step -0.4933 Ne1=   7192.0000)
 RMS occupancy error at iteration   2:  0.000009 (step -0.5000 Ne1=   7192.0000)
            Final RMS occupancy error   :  0.000000 (Ne1=   7192.0000)
               Final occupancy bounds   : [  0.0000,  1.0000]
================================================================================

    2        -1.153100410320E+04     5.2176E-04     4.7192E-04    -2.1563E+01
MG BCs: +ve charge blocks (gridpoints):     31726 (   17572085).
MG BCs: -ve charge blocks (gridpoints):      8312 (    1111763).
MG BCs:     Elided blocks (gridpoints):    183497 (  192019697).
MG BCs: Computational effort saved:  99.9810%.
MG BCs: Charge after coarse-graining:           -9.0010113.
MG DL_MG: Calling solver with defect correction order = 8
MG DL_MG: Solver finished
MG Hartree energy from (\int phi*rho dr):              1431.234601
MG Hartree energy from (\int eps (grad phi)^2 dr):     1430.601476
MG Discrepancy due to finite box and discretization:     -0.633125 (  -0.04424%)
MG Correction to account for finite box:                  0.458944
MG Remaining discrepancy, due to discretization:         -0.174181 (  -0.01217%)
      ideal mu1:      -0.781082395310
             Q0:  -11533.933602074627
             G0:      -1.837164335432
   RMS gradient:       0.000207135992
MG BCs: +ve charge blocks (gridpoints):     31731 (   17571847).
MG BCs: -ve charge blocks (gridpoints):      8317 (    1112600).
MG BCs:     Elided blocks (gridpoints):    183492 (  192019098).
MG BCs: Computational effort saved:  99.9810%.
MG BCs: Charge after coarse-graining:           -9.0010109.
MG DL_MG: Calling solver with defect correction order = 8
MG DL_MG: Solver finished
MG Hartree energy from (\int phi*rho dr):              1429.148682
MG Hartree energy from (\int eps (grad phi)^2 dr):     1428.516003
MG Discrepancy due to finite box and discretization:     -0.632679 (  -0.04427%)
MG Correction to account for finite box:                  0.458674
MG Remaining discrepancy, due to discretization:         -0.174005 (  -0.01218%)
     Trial step:       0.436743709759
             Q1:  -11534.395721726585
 Quadratic coef:       0.340250315336
 Linear coef   :      -0.802369967294
           Qmin:  -11534.406634380108
Quadratic minimum step length (  0.514959164358) accepted
    Initial Ne1:    7191.99996700
      Final Ne1:    7192.00000000

=================== Penalty functional idempotency correction ==================
 RMS occupancy error at iteration   1:  0.000584 (step -0.4977 Ne1=   7192.0000)
 RMS occupancy error at iteration   2:  0.000001 (step -0.5000 Ne1=   7192.0000)
            Final RMS occupancy error   :  0.000000 (Ne1=   7192.0000)
               Final occupancy bounds   : [  0.0000,  1.0000]
================================================================================

    3        -1.153393360207E+04     2.0714E-04     1.8735E-04    -2.9295E+00
MG BCs: +ve charge blocks (gridpoints):     31731 (   17571770).
MG BCs: -ve charge blocks (gridpoints):      8319 (    1112798).
MG BCs:     Elided blocks (gridpoints):    183492 (  192018977).
MG BCs: Computational effort saved:  99.9810%.
MG BCs: Charge after coarse-graining:           -9.0010108.
MG DL_MG: Calling solver with defect correction order = 8
MG DL_MG: Solver finished
MG Hartree energy from (\int phi*rho dr):              1428.783141
MG Hartree energy from (\int eps (grad phi)^2 dr):     1428.150533
MG Discrepancy due to finite box and discretization:     -0.632608 (  -0.04428%)
MG Correction to account for finite box:                  0.458626
MG Remaining discrepancy, due to discretization:         -0.173982 (  -0.01218%)
      ideal mu1:      -0.781896408805
             Q0:  -11534.410917892936
             G0:      -0.434720114852
   RMS gradient:       0.000100848537
MG BCs: +ve charge blocks (gridpoints):     31732 (   17572576).
MG BCs: -ve charge blocks (gridpoints):      8316 (    1112669).
MG BCs:     Elided blocks (gridpoints):    183491 (  192018300).
MG BCs: Computational effort saved:  99.9810%.
MG BCs: Charge after coarse-graining:           -9.0010110.
MG DL_MG: Calling solver with defect correction order = 8
MG DL_MG: Solver finished
MG Hartree energy from (\int phi*rho dr):              1429.911540
MG Hartree energy from (\int eps (grad phi)^2 dr):     1429.278953
MG Discrepancy due to finite box and discretization:     -0.632587 (  -0.04424%)
MG Correction to account for finite box:                  0.458503
MG Remaining discrepancy, due to discretization:         -0.174084 (  -0.01217%)
     Trial step:       0.474241685026
             Q1:  -11534.509803383495
 Quadratic coef:       0.107276909222
 Linear coef   :      -0.206162399782
           Qmin:  -11534.509967481967
Quadratic minimum step length (  0.455693609045) accepted
    Initial Ne1:    7191.99999295
      Final Ne1:    7192.00000000

=================== Penalty functional idempotency correction ==================
 RMS occupancy error at iteration   1:  0.000188 (step -0.4992 Ne1=   7192.0000)
            Final RMS occupancy error   :  0.000000 (Ne1=   7192.0000)
               Final occupancy bounds   : [ -0.0000,  1.0000]
================================================================================

    4        -1.153441091789E+04     1.0085E-04     9.1215E-05    -4.7732E-01
MG BCs: +ve charge blocks (gridpoints):     31732 (   17572548).
MG BCs: -ve charge blocks (gridpoints):      8316 (    1112683).
MG BCs:     Elided blocks (gridpoints):    183491 (  192018314).
MG BCs: Computational effort saved:  99.9810%.
MG BCs: Charge after coarse-graining:           -9.0010109.
MG DL_MG: Calling solver with defect correction order = 8
MG DL_MG: Solver finished
MG Hartree energy from (\int phi*rho dr):              1429.867367
MG Hartree energy from (\int eps (grad phi)^2 dr):     1429.234779
MG Discrepancy due to finite box and discretization:     -0.632587 (  -0.04424%)
MG Correction to account for finite box:                  0.458507
MG Remaining discrepancy, due to discretization:         -0.174080 (  -0.01217%)
      ideal mu1:      -0.782150047250
             Q0:  -11534.510399712832
             G0:      -0.104877277812
   RMS gradient:       0.000049681699
MG BCs: +ve charge blocks (gridpoints):     31730 (   17572626).
MG BCs: -ve charge blocks (gridpoints):      8315 (    1112564).
MG BCs:     Elided blocks (gridpoints):    183493 (  192018355).
MG BCs: Computational effort saved:  99.9810%.
MG BCs: Charge after coarse-graining:           -9.0010109.
MG DL_MG: Calling solver with defect correction order = 8
MG DL_MG: Solver finished
MG Hartree energy from (\int phi*rho dr):              1430.280762
MG Hartree energy from (\int eps (grad phi)^2 dr):     1429.648047
MG Discrepancy due to finite box and discretization:     -0.632714 (  -0.04424%)
MG Correction to account for finite box:                  0.458496
MG Remaining discrepancy, due to discretization:         -0.174219 (  -0.01218%)
     Trial step:       0.464875149916
             Q1:  -11534.536112652975
 Quadratic coef:       0.023041900102
 Linear coef   :      -0.048754840246
           Qmin:  -11534.536190060382
Quadratic minimum step length (  0.491819545442) accepted
    Initial Ne1:    7192.00169280
      Final Ne1:    7192.00000000

=================== Penalty functional idempotency correction ==================
 RMS occupancy error at iteration   1:  0.000066 (step -0.4997 Ne1=   7192.0000)
            Final RMS occupancy error   :  0.000000 (Ne1=   7192.0000)
               Final occupancy bounds   : [ -0.0000,  1.0000]
================================================================================

    5        -1.153451039971E+04     4.9682E-05     4.4936E-05    -9.9482E-02
MG BCs: +ve charge blocks (gridpoints):     31731 (   17572616).
MG BCs: -ve charge blocks (gridpoints):      8315 (    1112564).
MG BCs:     Elided blocks (gridpoints):    183492 (  192018365).
MG BCs: Computational effort saved:  99.9810%.
MG BCs: Charge after coarse-graining:           -9.0010109.
MG DL_MG: Calling solver with defect correction order = 8
MG DL_MG: Solver finished
MG Hartree energy from (\int phi*rho dr):              1430.304757
MG Hartree energy from (\int eps (grad phi)^2 dr):     1429.672035
MG Discrepancy due to finite box and discretization:     -0.632722 (  -0.04424%)
MG Correction to account for finite box:                  0.458495
MG Remaining discrepancy, due to discretization:         -0.174227 (  -0.01218%)
      ideal mu1:      -0.782077930028
             Q0:  -11534.536240435555
             G0:      -0.030887723095
   RMS gradient:       0.000026983093
MG BCs: +ve charge blocks (gridpoints):     31731 (   17572281).
MG BCs: -ve charge blocks (gridpoints):      8317 (    1112759).
MG BCs:     Elided blocks (gridpoints):    183492 (  192018505).
MG BCs: Computational effort saved:  99.9810%.
MG BCs: Charge after coarse-graining:           -9.0010108.
MG DL_MG: Calling solver with defect correction order = 8
MG DL_MG: Solver finished
MG Hartree energy from (\int phi*rho dr):              1429.677121
MG Hartree energy from (\int eps (grad phi)^2 dr):     1429.044405
MG Discrepancy due to finite box and discretization:     -0.632716 (  -0.04426%)
MG Correction to account for finite box:                  0.458496
MG Remaining discrepancy, due to discretization:         -0.174220 (  -0.01219%)
     Trial step:       0.478157594229
             Q1:  -11534.545862261904
 Quadratic coef:       0.005147373016
 Linear coef   :      -0.014769199366
           Qmin:  -11534.546834638133
Quadratic minimum step length (  0.685981452591) accepted
    Initial Ne1:    7192.00102350
      Final Ne1:    7192.00000000

=================== Penalty functional idempotency correction ==================
 RMS occupancy error at iteration   1:  0.000038 (step -0.4998 Ne1=   7192.0000)
            Final RMS occupancy error   :  0.000000 (Ne1=   7192.0000)
               Final occupancy bounds   : [ -0.0000,  1.0000]
================================================================================

    6        -1.153453624044E+04     2.6983E-05     2.4406E-05    -2.5841E-02
MG BCs: +ve charge blocks (gridpoints):     31731 (   17572129).
MG BCs: -ve charge blocks (gridpoints):      8317 (    1112844).
MG BCs:     Elided blocks (gridpoints):    183492 (  192018572).
MG BCs: Computational effort saved:  99.9810%.
MG BCs: Charge after coarse-graining:           -9.0010108.
MG DL_MG: Calling solver with defect correction order = 8
MG DL_MG: Solver finished
MG Hartree energy from (\int phi*rho dr):              1429.403665
MG Hartree energy from (\int eps (grad phi)^2 dr):     1428.770952
MG Discrepancy due to finite box and discretization:     -0.632713 (  -0.04426%)
MG Correction to account for finite box:                  0.458496
MG Remaining discrepancy, due to discretization:         -0.174217 (  -0.01219%)
      ideal mu1:      -0.781831006317
             Q0:  -11534.546844427474
             G0:      -0.015515979848
   RMS gradient:       0.000019148833
MG BCs: +ve charge blocks (gridpoints):     31731 (   17572593).
MG BCs: -ve charge blocks (gridpoints):      8316 (    1112619).
MG BCs:     Elided blocks (gridpoints):    183492 (  192018333).
MG BCs: Computational effort saved:  99.9810%.
MG BCs: Charge after coarse-graining:           -9.0010109.
MG DL_MG: Calling solver with defect correction order = 8
MG DL_MG: Solver finished
MG Hartree energy from (\int phi*rho dr):              1429.989085
MG Hartree energy from (\int eps (grad phi)^2 dr):     1429.356409
MG Discrepancy due to finite box and discretization:     -0.632676 (  -0.04424%)
MG Correction to account for finite box:                  0.458478
MG Remaining discrepancy, due to discretization:         -0.174198 (  -0.01218%)
     Trial step:       0.572719164213
             Q1:  -11534.550748054753
 Quadratic coef:       0.004982671731
 Linear coef   :      -0.008886299010
           Qmin:  -11534.550806474061
Quadratic minimum step length (  0.510705301948) accepted
    Initial Ne1:    7192.00013056
      Final Ne1:    7192.00000000

=================== Penalty functional idempotency correction ==================
 RMS occupancy error at iteration   1:  0.000002 (step -0.5000 Ne1=   7192.0000)
            Final RMS occupancy error   :  0.000000 (Ne1=   7192.0000)
               Final occupancy bounds   : [  0.0000,  1.0000]
================================================================================

    7        -1.153454684443E+04     1.9149E-05     1.7320E-05    -1.0604E-02
MG BCs: +ve charge blocks (gridpoints):     31731 (   17572560).
MG BCs: -ve charge blocks (gridpoints):      8316 (    1112634).
MG BCs:     Elided blocks (gridpoints):    183492 (  192018351).
MG BCs: Computational effort saved:  99.9810%.
MG BCs: Charge after coarse-graining:           -9.0010109.
MG DL_MG: Calling solver with defect correction order = 8
MG DL_MG: Solver finished
MG Hartree energy from (\int phi*rho dr):              1429.925601
MG Hartree energy from (\int eps (grad phi)^2 dr):     1429.292921
MG Discrepancy due to finite box and discretization:     -0.632680 (  -0.04425%)
MG Correction to account for finite box:                  0.458480
MG Remaining discrepancy, due to discretization:         -0.174200 (  -0.01218%)
      ideal mu1:      -0.782129261818
             Q0:  -11534.550806640298
             G0:      -0.008870810411
   RMS gradient:       0.000014479524
MG BCs: +ve charge blocks (gridpoints):     31730 (   17572576).
MG BCs: -ve charge blocks (gridpoints):      8316 (    1112597).
MG BCs:     Elided blocks (gridpoints):    183493 (  192018372).
MG BCs: Computational effort saved:  99.9810%.
MG BCs: Charge after coarse-graining:           -9.0010109.
MG DL_MG: Calling solver with defect correction order = 8
MG DL_MG: Solver finished
MG Hartree energy from (\int phi*rho dr):              1429.982763
MG Hartree energy from (\int eps (grad phi)^2 dr):     1429.350128
MG Discrepancy due to finite box and discretization:     -0.632635 (  -0.04424%)
MG Correction to account for finite box:                  0.458462
MG Remaining discrepancy, due to discretization:         -0.174173 (  -0.01218%)
     Trial step:       0.540824106055
             Q1:  -11534.554306118516
 Quadratic coef:       0.001298069892
 Linear coef   :      -0.004797548111
           Qmin:  -11534.555239465528
Quadratic minimum step length (  0.999418322553) accepted
    Initial Ne1:    7192.00014528
      Final Ne1:    7192.00000000

=================== Penalty functional idempotency correction ==================
 RMS occupancy error at iteration   1:  0.000019 (step -0.4996 Ne1=   7192.0000)
            Final RMS occupancy error   :  0.000000 (Ne1=   7192.0000)
               Final occupancy bounds   : [ -0.0000,  1.0000]
================================================================================

    8        -1.153455080664E+04     1.4480E-05     1.3096E-05    -3.9622E-03
MG BCs: +ve charge blocks (gridpoints):     31730 (   17572606).
MG BCs: -ve charge blocks (gridpoints):      8316 (    1112586).
MG BCs:     Elided blocks (gridpoints):    183493 (  192018353).
MG BCs: Computational effort saved:  99.9810%.
MG BCs: Charge after coarse-graining:           -9.0010110.
MG DL_MG: Calling solver with defect correction order = 8
MG DL_MG: Solver finished
MG Hartree energy from (\int phi*rho dr):              1430.029853
MG Hartree energy from (\int eps (grad phi)^2 dr):     1429.397257
MG Discrepancy due to finite box and discretization:     -0.632596 (  -0.04424%)
MG Correction to account for finite box:                  0.458446
MG Remaining discrepancy, due to discretization:         -0.174150 (  -0.01218%)
      ideal mu1:      -0.782176170922
             Q0:  -11534.555232818238
             G0:      -0.011924319192
   RMS gradient:       0.000016812408
MG BCs: +ve charge blocks (gridpoints):     31730 (   17572484).
MG BCs: -ve charge blocks (gridpoints):      8316 (    1112708).
MG BCs:     Elided blocks (gridpoints):    183493 (  192018353).
MG BCs: Computational effort saved:  99.9810%.
MG BCs: Charge after coarse-graining:           -9.0010109.
MG DL_MG: Calling solver with defect correction order = 8
MG DL_MG: Solver finished
MG Hartree energy from (\int phi*rho dr):              1429.720139
MG Hartree energy from (\int eps (grad phi)^2 dr):     1429.087613
MG Discrepancy due to finite box and discretization:     -0.632526 (  -0.04424%)
MG Correction to account for finite box:                  0.458418
MG Remaining discrepancy, due to discretization:         -0.174109 (  -0.01218%)
     Trial step:       0.735193526134
             Q1:  -11534.560667147976
 Quadratic coef:       0.003332352535
 Linear coef   :      -0.008766682273
           Qmin:  -11534.560998618621
Quadratic minimum step length (  0.967065756922) accepted
    Initial Ne1:    7192.00030930
      Final Ne1:    7192.00000000

=================== Penalty functional idempotency correction ==================
 RMS occupancy error at iteration   1:  0.000093 (step -0.4975 Ne1=   7192.0000)
 RMS occupancy error at iteration   2:  0.000000 (step -0.5000 Ne1=   7192.0000)
            Final RMS occupancy error   :  0.000000 (Ne1=   7192.0000)
               Final occupancy bounds   : [  0.0000,  1.0000]
================================================================================

    9        -1.153455523282E+04     1.6812E-05     1.5206E-05    -4.4262E-03
MG BCs: +ve charge blocks (gridpoints):     31730 (   17572434).
MG BCs: -ve charge blocks (gridpoints):      8317 (    1112756).
MG BCs:     Elided blocks (gridpoints):    183493 (  192018355).
MG BCs: Computational effort saved:  99.9810%.
MG BCs: Charge after coarse-graining:           -9.0010109.
MG DL_MG: Calling solver with defect correction order = 8
MG DL_MG: Solver finished
MG Hartree energy from (\int phi*rho dr):              1429.620165
MG Hartree energy from (\int eps (grad phi)^2 dr):     1428.987663
MG Discrepancy due to finite box and discretization:     -0.632502 (  -0.04424%)
MG Correction to account for finite box:                  0.458407
MG Remaining discrepancy, due to discretization:         -0.174096 (  -0.01218%)
      ideal mu1:      -0.781818653565
   10        -1.153456097072E+04     1.8145E-05     1.6412E-05    -5.7379E-03
Finished density kernel iterations (  10)

Writing density kernel to file "host_21761.vacuum_dkn" ... done


>>> Density kernel optimised for the current NGWF basis:
     ~~~~~~~~~~~~~~~~~~~~~~~~~~~~~~~~~~~~~~~~~~~~~~~~~~~~~~~~~~~
     Total energy                =  -1.15345609707151E+04  Eh
     Estimated bandgap           =  -2.6739E-01  Eh
     RMS occupancy error         =   5.9729E-12
     [H,K] commutator            =   1.6412E-05
     Occupancy bounds            = [  0.000:  1.000]
     ~~~~~~~~~~~~~~~~~~~~~~~~~~~~~~~~~~~~~~~~~~~~~~~~~~~~~~~~~~~




################################################################################
########################### NGWF CG iteration  001 #############################
################################################################################
****** Reciprocal space K.E. preconditioning with k_zero =  3.5000 a0^-1 *******

>>> Checking for convergence of NGWFs:   NOT CONVERGED
  ========================================================================
         NGWF RMS gradient =  1.5607E-03 >  2.0000E-06  | above tolerance
  ========================================================================

>>> Improving NGWFs using line search:
============ Calculation of NGWF S^-1 using Hotelling algorithm ================ 
         Iteration  |  Frobenius norm and Maximum abs value    (of I-S*S_n^-1)   
               1       0.19112165E+00     0.50074823E-02
               2       0.84392226E-03     0.34286383E-04
               3       0.27962359E-07     0.18335382E-08
               4       0.12488343E-12     0.57731597E-14
================================================================================
MG BCs: +ve charge blocks (gridpoints):     31214 (   17517269).
MG BCs: -ve charge blocks (gridpoints):      8335 (    1112828).
MG BCs:     Elided blocks (gridpoints):    184013 (  192073448).
MG BCs: Computational effort saved:  99.9812%.
MG BCs: Charge after coarse-graining:           -9.0010109.
MG DL_MG: Calling solver with defect correction order = 8
MG DL_MG: Solver finished
MG Hartree energy from (\int phi*rho dr):              1398.405014
MG Hartree energy from (\int eps (grad phi)^2 dr):     1397.773218
MG Discrepancy due to finite box and discretization:     -0.631797 (  -0.04518%)
MG Correction to account for finite box:                  0.458340
MG Remaining discrepancy, due to discretization:         -0.173457 (  -0.01240%)
============ Calculation of NGWF S^-1 using Hotelling algorithm ================ 
         Iteration  |  Frobenius norm and Maximum abs value    (of I-S*S_n^-1)   
               1       0.18471965E+01     0.41407372E-01
               2       0.70764297E-01     0.22073644E-02
               3       0.13959603E-03     0.73219395E-05
               4       0.10036415E-08     0.11528582E-09
               5       0.10959813E-12     0.42188475E-14
================================================================================
------------------------------- NGWF line search -------------------------------
RMS gradient                =       0.00156071581046
Trial step length           =               0.122474
Gradient along search dir.  =       -269.11001418933
Functional at step 0        =  -11534.56097071513068
Functional at step 1        =  -11565.05426850123331
Functional predicted        =  -11644.69735516771289
Selected quadratic step     =               0.818523
--------------------------- NGWF line search finished --------------------------
                                               
Writing NGWFs to file "host_21761.vacuum_tightbox_ngwfs"....  done

>>> Optimising kernel for current NGWFs:
   Initial electron number for spin 1:    7226.20674717
     Final electron number for spin 1:    7192.00000000

=================== Penalty functional idempotency correction ==================
 RMS occupancy error at iteration   1:  0.004218 (step -0.4864 Ne1=   7192.0000)
 RMS occupancy error at iteration   2:  0.000068 (step -0.5003 Ne1=   7192.0000)
            Final RMS occupancy error   :  0.000000 (Ne1=   7192.0000)
               Final occupancy bounds   : [  0.0000,  1.0000]
================================================================================

................................................................................
<<<<<<<<<<<<<< LNV (Original version) density kernel optimisation >>>>>>>>>>>>>>
~~~~~~~~~~~~~~~~~~~~~~~~~~~~~~~~~~~~~~~~~~~~~~~~~~~~~~~~~~~~~~~~~~~~~~~~~~~~~~~~
   iter  |      energy (Eh)       | rms gradient |  commutator  |   dE (Eh)
MG BCs: +ve charge blocks (gridpoints):     25076 (   17258811).
MG BCs: -ve charge blocks (gridpoints):      8524 (    1096652).
MG BCs:     Elided blocks (gridpoints):    190156 (  192348082).
MG BCs: Computational effort saved:  99.9841%.
MG BCs: Charge after coarse-graining:           -9.0006701.
MG DL_MG: Calling solver with defect correction order = 8
MG DL_MG: Solver finished
MG Hartree energy from (\int phi*rho dr):              1243.355698
MG Hartree energy from (\int eps (grad phi)^2 dr):     1242.723543
MG Discrepancy due to finite box and discretization:     -0.632156 (  -0.05084%)
MG Correction to account for finite box:                  0.458001
MG Remaining discrepancy, due to discretization:         -0.174155 (  -0.01401%)
      ideal mu1:      -0.721094578659
             Q0:  -11643.883377318154
             G0:      -9.798019714769
   RMS gradient:       0.000481195828
MG BCs: +ve charge blocks (gridpoints):     25145 (   17277802).
MG BCs: -ve charge blocks (gridpoints):      8496 (    1092231).
MG BCs:     Elided blocks (gridpoints):    190087 (  192333512).
MG BCs: Computational effort saved:  99.9840%.
MG BCs: Charge after coarse-graining:           -9.0006656.
MG DL_MG: Calling solver with defect correction order = 8
MG DL_MG: Solver finished
MG Hartree energy from (\int phi*rho dr):              1262.456715
MG Hartree energy from (\int eps (grad phi)^2 dr):     1261.818314
MG Discrepancy due to finite box and discretization:     -0.638400 (  -0.05057%)
MG Correction to account for finite box:                  0.457563
MG Remaining discrepancy, due to discretization:         -0.180838 (  -0.01432%)
     Trial step:       0.843196586708
             Q1:  -11641.566189359524
 Quadratic coef:      10.578844738617
 Linear coef   :      -8.261656779988
           Qmin:  -11645.496383616024
Quadratic minimum step length (  0.329251490572) accepted
    Initial Ne1:    7191.99962882
      Final Ne1:    7192.00000000

=================== Penalty functional idempotency correction ==================
 RMS occupancy error at iteration   1:  0.000354 (step -0.4986 Ne1=   7192.0000)
 RMS occupancy error at iteration   2:  0.000000 (step -0.5000 Ne1=   7192.0000)
            Final RMS occupancy error   :  0.000000 (Ne1=   7192.0000)
               Final occupancy bounds   : [  0.0000,  1.0000]
================================================================================

    1        -1.164388337732E+04     4.8120E-04     4.3523E-04
MG BCs: +ve charge blocks (gridpoints):     25104 (   17266403).
MG BCs: -ve charge blocks (gridpoints):      8506 (    1094879).
MG BCs:     Elided blocks (gridpoints):    190128 (  192342263).
MG BCs: Computational effort saved:  99.9840%.
MG BCs: Charge after coarse-graining:           -9.0006683.
MG DL_MG: Calling solver with defect correction order = 8
MG DL_MG: Solver finished
MG Hartree energy from (\int phi*rho dr):              1249.561176
MG Hartree energy from (\int eps (grad phi)^2 dr):     1248.926703
MG Discrepancy due to finite box and discretization:     -0.634473 (  -0.05078%)
MG Correction to account for finite box:                  0.457807
MG Remaining discrepancy, due to discretization:         -0.176666 (  -0.01414%)
      ideal mu1:      -0.727494165255
             Q0:  -11645.463027638034
             G0:      -0.976104257042
   RMS gradient:       0.000152955627
MG BCs: +ve charge blocks (gridpoints):     25111 (   17266369).
MG BCs: -ve charge blocks (gridpoints):      8513 (    1095765).
MG BCs:     Elided blocks (gridpoints):    190121 (  192341411).
MG BCs: Computational effort saved:  99.9840%.
MG BCs: Charge after coarse-graining:           -9.0006681.
MG DL_MG: Calling solver with defect correction order = 8
MG DL_MG: Solver finished
MG Hartree energy from (\int phi*rho dr):              1250.807918
MG Hartree energy from (\int eps (grad phi)^2 dr):     1250.173066
MG Discrepancy due to finite box and discretization:     -0.634851 (  -0.05076%)
MG Correction to account for finite box:                  0.457812
MG Remaining discrepancy, due to discretization:         -0.177039 (  -0.01415%)
     Trial step:       0.526900116738
             Q1:  -11645.659689446795
 Quadratic coef:       0.317647638223
 Linear coef   :      -0.514309446984
           Qmin:  -11645.671209736236
Quadratic minimum step length (  0.426557095106) accepted
    Initial Ne1:    7191.99995140
      Final Ne1:    7192.00000000

=================== Penalty functional idempotency correction ==================
 RMS occupancy error at iteration   1:  0.000142 (step -0.4994 Ne1=   7192.0000)
            Final RMS occupancy error   :  0.000000 (Ne1=   7192.0000)
               Final occupancy bounds   : [ -0.0000,  1.0000]
================================================================================

    2        -1.164546302764E+04     1.5296E-04     1.3834E-04    -1.5797E+00
MG BCs: +ve charge blocks (gridpoints):     25110 (   17266342).
MG BCs: -ve charge blocks (gridpoints):      8512 (    1095611).
MG BCs:     Elided blocks (gridpoints):    190122 (  192341592).
MG BCs: Computational effort saved:  99.9840%.
MG BCs: Charge after coarse-graining:           -9.0006682.
MG DL_MG: Calling solver with defect correction order = 8
MG DL_MG: Solver finished
MG Hartree energy from (\int phi*rho dr):              1250.570287
MG Hartree energy from (\int eps (grad phi)^2 dr):     1249.935510
MG Discrepancy due to finite box and discretization:     -0.634777 (  -0.05076%)
MG Correction to account for finite box:                  0.457811
MG Remaining discrepancy, due to discretization:         -0.176966 (  -0.01415%)
      ideal mu1:      -0.728443677396
             Q0:  -11645.671673185308
             G0:      -0.145466322107
   RMS gradient:       0.000058566417
MG BCs: +ve charge blocks (gridpoints):     25111 (   17265655).
MG BCs: -ve charge blocks (gridpoints):      8514 (    1096059).
MG BCs:     Elided blocks (gridpoints):    190121 (  192341831).
MG BCs: Computational effort saved:  99.9840%.
MG BCs: Charge after coarse-graining:           -9.0006682.
MG DL_MG: Calling solver with defect correction order = 8
MG DL_MG: Solver finished
MG Hartree energy from (\int phi*rho dr):              1250.088551
MG Hartree energy from (\int eps (grad phi)^2 dr):     1249.453796
MG Discrepancy due to finite box and discretization:     -0.634755 (  -0.05078%)
MG Correction to account for finite box:                  0.457812
MG Remaining discrepancy, due to discretization:         -0.176943 (  -0.01415%)
     Trial step:       0.474081198959
             Q1:  -11645.715951987659
 Quadratic coef:       0.024684046042
 Linear coef   :      -0.068962848393
           Qmin:  -11645.719840678294
Quadratic minimum step length (  0.662249409875) accepted
    Initial Ne1:    7192.00060217
      Final Ne1:    7192.00000000

=================== Penalty functional idempotency correction ==================
 RMS occupancy error at iteration   1:  0.000062 (step -0.4998 Ne1=   7192.0000)
            Final RMS occupancy error   :  0.000000 (Ne1=   7192.0000)
               Final occupancy bounds   : [ -0.0000,  1.0000]
================================================================================

    3        -1.164567167319E+04     5.8566E-05     5.2972E-05    -2.0865E-01
MG BCs: +ve charge blocks (gridpoints):     25109 (   17265394).
MG BCs: -ve charge blocks (gridpoints):      8515 (    1096200).
MG BCs:     Elided blocks (gridpoints):    190123 (  192341951).
MG BCs: Computational effort saved:  99.9840%.
MG BCs: Charge after coarse-graining:           -9.0006682.
MG DL_MG: Calling solver with defect correction order = 8
MG DL_MG: Solver finished
MG Hartree energy from (\int phi*rho dr):              1249.897423
MG Hartree energy from (\int eps (grad phi)^2 dr):     1249.262676
MG Discrepancy due to finite box and discretization:     -0.634747 (  -0.05078%)
MG Correction to account for finite box:                  0.457813
MG Remaining discrepancy, due to discretization:         -0.176934 (  -0.01416%)
      ideal mu1:      -0.727460153872
             Q0:  -11645.719928702572
             G0:      -0.034566794952
   RMS gradient:       0.000028539765
MG BCs: +ve charge blocks (gridpoints):     25109 (   17265254).
MG BCs: -ve charge blocks (gridpoints):      8515 (    1096227).
MG BCs:     Elided blocks (gridpoints):    190123 (  192342064).
MG BCs: Computational effort saved:  99.9840%.
MG BCs: Charge after coarse-graining:           -9.0006682.
MG DL_MG: Calling solver with defect correction order = 8
MG DL_MG: Solver finished
MG Hartree energy from (\int phi*rho dr):              1249.910861
MG Hartree energy from (\int eps (grad phi)^2 dr):     1249.276211
MG Discrepancy due to finite box and discretization:     -0.634650 (  -0.05078%)
MG Correction to account for finite box:                  0.457819
MG Remaining discrepancy, due to discretization:         -0.176831 (  -0.01415%)
     Trial step:       0.560321331241
             Q1:  -11645.728473445517
 Quadratic coef:       0.010823769620
 Linear coef   :      -0.019368512564
           Qmin:  -11645.728593412099
Quadratic minimum step length (  0.501331381059) accepted
    Initial Ne1:    7192.00021958
      Final Ne1:    7192.00000000

=================== Penalty functional idempotency correction ==================
 RMS occupancy error at iteration   1:  0.000017 (step -0.4999 Ne1=   7192.0000)
            Final RMS occupancy error   :  0.000000 (Ne1=   7192.0000)
               Final occupancy bounds   : [ -0.0000,  1.0000]
================================================================================

    4        -1.164571992870E+04     2.8540E-05     2.5814E-05    -4.8256E-02
MG BCs: +ve charge blocks (gridpoints):     25109 (   17265273).
MG BCs: -ve charge blocks (gridpoints):      8515 (    1096226).
MG BCs:     Elided blocks (gridpoints):    190123 (  192342046).
MG BCs: Computational effort saved:  99.9840%.
MG BCs: Charge after coarse-graining:           -9.0006682.
MG DL_MG: Calling solver with defect correction order = 8
MG DL_MG: Solver finished
MG Hartree energy from (\int phi*rho dr):              1249.909272
MG Hartree energy from (\int eps (grad phi)^2 dr):     1249.274612
MG Discrepancy due to finite box and discretization:     -0.634660 (  -0.05078%)
MG Correction to account for finite box:                  0.457818
MG Remaining discrepancy, due to discretization:         -0.176842 (  -0.01415%)
      ideal mu1:      -0.727503185568
             Q0:  -11645.728598046466
             G0:      -0.011173312037
   RMS gradient:       0.000016246447
MG BCs: +ve charge blocks (gridpoints):     25110 (   17265799).
MG BCs: -ve charge blocks (gridpoints):      8513 (    1096012).
MG BCs:     Elided blocks (gridpoints):    190122 (  192341734).
MG BCs: Computational effort saved:  99.9840%.
MG BCs: Charge after coarse-graining:           -9.0006681.
MG DL_MG: Calling solver with defect correction order = 8
MG DL_MG: Solver finished
MG Hartree energy from (\int phi*rho dr):              1250.303252
MG Hartree energy from (\int eps (grad phi)^2 dr):     1249.668634
MG Discrepancy due to finite box and discretization:     -0.634618 (  -0.05076%)
MG Correction to account for finite box:                  0.457807
MG Remaining discrepancy, due to discretization:         -0.176811 (  -0.01414%)
     Trial step:       0.530006289423
             Q1:  -11645.731710503926
 Quadratic coef:       0.002809468193
 Linear coef   :      -0.005921925654
           Qmin:  -11645.731718672954
Quadratic minimum step length (  0.558585758284) accepted
    Initial Ne1:    7192.00009163
      Final Ne1:    7192.00000000

=================== Penalty functional idempotency correction ==================
 RMS occupancy error at iteration   1:  0.000009 (step -0.5000 Ne1=   7192.0000)
            Final RMS occupancy error   :  0.000000 (Ne1=   7192.0000)
               Final occupancy bounds   : [ -0.0000,  1.0000]
================================================================================

    5        -1.164572859805E+04     1.6246E-05     1.4695E-05    -8.6693E-03
MG BCs: +ve charge blocks (gridpoints):     25110 (   17265838).
MG BCs: -ve charge blocks (gridpoints):      8513 (    1095997).
MG BCs:     Elided blocks (gridpoints):    190122 (  192341710).
MG BCs: Computational effort saved:  99.9840%.
MG BCs: Charge after coarse-graining:           -9.0006681.
MG DL_MG: Calling solver with defect correction order = 8
MG DL_MG: Solver finished
MG Hartree energy from (\int phi*rho dr):              1250.324520
MG Hartree energy from (\int eps (grad phi)^2 dr):     1249.689904
MG Discrepancy due to finite box and discretization:     -0.634616 (  -0.05076%)
MG Correction to account for finite box:                  0.457806
MG Remaining discrepancy, due to discretization:         -0.176810 (  -0.01414%)
      ideal mu1:      -0.727857469184
             Q0:  -11645.731719588744
             G0:      -0.003421481838
   RMS gradient:       0.000008990483
MG BCs: +ve charge blocks (gridpoints):     25110 (   17265817).
MG BCs: -ve charge blocks (gridpoints):      8513 (    1096025).
MG BCs:     Elided blocks (gridpoints):    190122 (  192341703).
MG BCs: Computational effort saved:  99.9840%.
MG BCs: Charge after coarse-graining:           -9.0006681.
MG DL_MG: Calling solver with defect correction order = 8
MG DL_MG: Solver finished
MG Hartree energy from (\int phi*rho dr):              1250.288349
MG Hartree energy from (\int eps (grad phi)^2 dr):     1249.653744
MG Discrepancy due to finite box and discretization:     -0.634605 (  -0.05076%)
MG Correction to account for finite box:                  0.457799
MG Remaining discrepancy, due to discretization:         -0.176806 (  -0.01414%)
     Trial step:       0.544108412977
             Q1:  -11645.732881196425
 Quadratic coef:       0.000700049372
 Linear coef   :      -0.001861657053
           Qmin:  -11645.732957275372
Quadratic minimum step length (  0.723479875728) accepted
    Initial Ne1:    7192.00004551
      Final Ne1:    7192.00000000

=================== Penalty functional idempotency correction ==================
 RMS occupancy error at iteration   1:  0.000006 (step -0.4999 Ne1=   7192.0000)
            Final RMS occupancy error   :  0.000000 (Ne1=   7192.0000)
               Final occupancy bounds   : [ -0.0000,  1.0000]
================================================================================

    6        -1.164573171959E+04     8.9905E-06     8.1317E-06    -3.1215E-03
MG BCs: +ve charge blocks (gridpoints):     25110 (   17265795).
MG BCs: -ve charge blocks (gridpoints):      8513 (    1096048).
MG BCs:     Elided blocks (gridpoints):    190122 (  192341702).
MG BCs: Computational effort saved:  99.9840%.
MG BCs: Charge after coarse-graining:           -9.0006681.
MG DL_MG: Calling solver with defect correction order = 8
MG DL_MG: Solver finished
MG Hartree energy from (\int phi*rho dr):              1250.276395
MG Hartree energy from (\int eps (grad phi)^2 dr):     1249.641794
MG Discrepancy due to finite box and discretization:     -0.634601 (  -0.05076%)
MG Correction to account for finite box:                  0.457797
MG Remaining discrepancy, due to discretization:         -0.176804 (  -0.01414%)
      ideal mu1:      -0.727812344558
             Q0:  -11645.732957266504
             G0:      -0.001934254072
   RMS gradient:       0.000006760977
MG BCs: +ve charge blocks (gridpoints):     25110 (   17265575).
MG BCs: -ve charge blocks (gridpoints):      8515 (    1096119).
MG BCs:     Elided blocks (gridpoints):    190122 (  192341851).
MG BCs: Computational effort saved:  99.9840%.
MG BCs: Charge after coarse-graining:           -9.0006681.
MG DL_MG: Calling solver with defect correction order = 8
MG DL_MG: Solver finished
MG Hartree energy from (\int phi*rho dr):              1250.178877
MG Hartree energy from (\int eps (grad phi)^2 dr):     1249.544266
MG Discrepancy due to finite box and discretization:     -0.634611 (  -0.05076%)
MG Correction to account for finite box:                  0.457798
MG Remaining discrepancy, due to discretization:         -0.176813 (  -0.01414%)
     Trial step:       0.627416517956
             Q1:  -11645.733368149260
 Quadratic coef:       0.000802700199
 Linear coef   :      -0.001213582955
           Qmin:  -11645.733415963161
Quadratic minimum step length (  0.474287905365) accepted
    Initial Ne1:    7192.00001370
      Final Ne1:    7192.00000000

=================== Penalty functional idempotency correction ==================
 RMS occupancy error at iteration   1:  0.000000 (step -0.5000 Ne1=   7192.0000)
            Final RMS occupancy error   :  0.000000 (Ne1=   7192.0000)
               Final occupancy bounds   : [  0.0000,  1.0000]
================================================================================

    7        -1.164573295727E+04     6.7610E-06     6.1151E-06    -1.2377E-03
MG BCs: +ve charge blocks (gridpoints):     25110 (   17265617).
MG BCs: -ve charge blocks (gridpoints):      8514 (    1096109).
MG BCs:     Elided blocks (gridpoints):    190122 (  192341819).
MG BCs: Computational effort saved:  99.9840%.
MG BCs: Charge after coarse-graining:           -9.0006681.
MG DL_MG: Calling solver with defect correction order = 8
MG DL_MG: Solver finished
MG Hartree energy from (\int phi*rho dr):              1250.202633
MG Hartree energy from (\int eps (grad phi)^2 dr):     1249.568024
MG Discrepancy due to finite box and discretization:     -0.634609 (  -0.05076%)
MG Correction to account for finite box:                  0.457798
MG Remaining discrepancy, due to discretization:         -0.176811 (  -0.01414%)
      ideal mu1:      -0.727721000249
             Q0:  -11645.733415955445
             G0:      -0.001170106090
   RMS gradient:       0.000005258492
MG BCs: +ve charge blocks (gridpoints):     25109 (   17265586).
MG BCs: -ve charge blocks (gridpoints):      8515 (    1096125).
MG BCs:     Elided blocks (gridpoints):    190123 (  192341834).
MG BCs: Computational effort saved:  99.9840%.
MG BCs: Charge after coarse-graining:           -9.0006681.
MG DL_MG: Calling solver with defect correction order = 8
MG DL_MG: Solver finished
MG Hartree energy from (\int phi*rho dr):              1250.159232
MG Hartree energy from (\int eps (grad phi)^2 dr):     1249.524618
MG Discrepancy due to finite box and discretization:     -0.634614 (  -0.05076%)
MG Correction to account for finite box:                  0.457797
MG Remaining discrepancy, due to discretization:         -0.176817 (  -0.01414%)
     Trial step:       0.545505330948
             Q1:  -11645.733915207325
 Quadratic coef:       0.000139047230
 Linear coef   :      -0.000638299110
           Qmin:  -11645.734148486676
Quadratic minimum step length (  1.252076606179) accepted
    Initial Ne1:    7192.00002181
      Final Ne1:    7192.00000000

=================== Penalty functional idempotency correction ==================
 RMS occupancy error at iteration   1:  0.000010 (step -0.4994 Ne1=   7192.0000)
            Final RMS occupancy error   :  0.000000 (Ne1=   7192.0000)
               Final occupancy bounds   : [ -0.0000,  1.0000]
================================================================================

    8        -1.164573341596E+04     5.2585E-06     4.7562E-06    -4.5869E-04
MG BCs: +ve charge blocks (gridpoints):     25110 (   17265541).
MG BCs: -ve charge blocks (gridpoints):      8515 (    1096140).
MG BCs:     Elided blocks (gridpoints):    190122 (  192341864).
MG BCs: Computational effort saved:  99.9840%.
MG BCs: Charge after coarse-graining:           -9.0006681.
MG DL_MG: Calling solver with defect correction order = 8
MG DL_MG: Solver finished
MG Hartree energy from (\int phi*rho dr):              1250.102679
MG Hartree energy from (\int eps (grad phi)^2 dr):     1249.468059
MG Discrepancy due to finite box and discretization:     -0.634620 (  -0.05077%)
[...]
MG Correction to account for finite box:                  0.006272
MG Remaining discrepancy, due to discretization:         -0.175866 (  -0.01455%)
     Trial step:       0.294634218047
             Q1:  -11679.663872470031
 Quadratic coef:       0.000000001306
 Linear coef   :      -0.000000001655
           Qmin:  -11679.663872470206
Quadratic minimum step length (  0.186721302159) accepted
    Initial Ne1:    7192.00000000
      Final Ne1:    7192.00000000

=================== Penalty functional idempotency correction ==================
 RMS occupancy error at iteration   1:  0.000000 (step -0.5000 Ne1=   7192.0000)
            Final RMS occupancy error   :  0.000000 (Ne1=   7192.0000)
               Final occupancy bounds   : [  0.0000,  1.0000]
================================================================================

    7        -1.167966387247E+04     1.1523E-08     1.0422E-08    -9.3132E-10

Reusing previously generated solute cavity.
MG BCs: +ve charge blocks (gridpoints):     29241 (   19475139).
MG BCs: -ve charge blocks (gridpoints):      8491 (    1064122).
MG BCs:     Elided blocks (gridpoints):    185991 (  190164284).
MG BCs: Computational effort saved:  99.9821%.
MG BCs: Charge after coarse-graining:           -9.0009653.
MG DL_MG: Calling solver with defect correction order = 8
MG DL_MG: Solver finished
MG Hartree energy from (\int phi*rho dr):              1208.676629
MG Hartree energy from (\int eps (grad phi)^2 dr):     1208.494491
MG Discrepancy due to finite box and discretization:     -0.182138 (  -0.01507%)
MG Correction to account for finite box:                  0.006272
MG Remaining discrepancy, due to discretization:         -0.175866 (  -0.01455%)
      ideal mu1:      -0.480695562614
             Q0:  -11679.663872470031
             G0:      -0.000000004475
   RMS gradient:       0.000000007989

Reusing previously generated solute cavity.
MG BCs: +ve charge blocks (gridpoints):     29241 (   19475139).
MG BCs: -ve charge blocks (gridpoints):      8491 (    1064122).
MG BCs:     Elided blocks (gridpoints):    185991 (  190164284).
MG BCs: Computational effort saved:  99.9821%.
MG BCs: Charge after coarse-graining:           -9.0009653.
MG DL_MG: Calling solver with defect correction order = 8
MG DL_MG: Solver finished
MG Hartree energy from (\int phi*rho dr):              1208.676641
MG Hartree energy from (\int eps (grad phi)^2 dr):     1208.494503
MG Discrepancy due to finite box and discretization:     -0.182138 (  -0.01507%)
MG Correction to account for finite box:                  0.006272
MG Remaining discrepancy, due to discretization:         -0.175866 (  -0.01455%)
     Trial step:       0.234551667771
             Q1:  -11679.663872469915
 Quadratic coef:       0.000000001166
 Linear coef   :      -0.000000001050
           Qmin:  -11679.663872470268
Quadratic minimum step length (  0.105567635129) accepted
    Initial Ne1:    7192.00000000
      Final Ne1:    7192.00000000

=================== Penalty functional idempotency correction ==================
 RMS occupancy error at iteration   1:  0.000000 (step -0.5000 Ne1=   7192.0000)
            Final RMS occupancy error   :  0.000000 (Ne1=   7192.0000)
               Final occupancy bounds   : [ -0.0000,  1.0000]
================================================================================

    8        -1.167966387247E+04     7.9893E-09     7.2261E-09    -3.4925E-10

Reusing previously generated solute cavity.
MG BCs: +ve charge blocks (gridpoints):     29241 (   19475139).
MG BCs: -ve charge blocks (gridpoints):      8491 (    1064122).
MG BCs:     Elided blocks (gridpoints):    185991 (  190164284).
MG BCs: Computational effort saved:  99.9821%.
MG BCs: Charge after coarse-graining:           -9.0009653.
MG DL_MG: Calling solver with defect correction order = 8
MG DL_MG: Solver finished
MG Hartree energy from (\int phi*rho dr):              1208.676634
MG Hartree energy from (\int eps (grad phi)^2 dr):     1208.494496
MG Discrepancy due to finite box and discretization:     -0.182138 (  -0.01507%)
MG Correction to account for finite box:                  0.006272
MG Remaining discrepancy, due to discretization:         -0.175866 (  -0.01455%)
      ideal mu1:      -0.480695565555
             Q0:  -11679.663872470148
             G0:      -0.000000003900
   RMS gradient:       0.000000006415

Reusing previously generated solute cavity.
MG BCs: +ve charge blocks (gridpoints):     29241 (   19475139).
MG BCs: -ve charge blocks (gridpoints):      8491 (    1064122).
MG BCs:     Elided blocks (gridpoints):    185991 (  190164284).
MG BCs: Computational effort saved:  99.9821%.
MG BCs: Charge after coarse-graining:           -9.0009653.
MG DL_MG: Calling solver with defect correction order = 8
MG DL_MG: Solver finished
MG Hartree energy from (\int phi*rho dr):              1208.676641
MG Hartree energy from (\int eps (grad phi)^2 dr):     1208.494503
MG Discrepancy due to finite box and discretization:     -0.182138 (  -0.01507%)
MG Correction to account for finite box:                  0.006272
MG Remaining discrepancy, due to discretization:         -0.175866 (  -0.01455%)
     Trial step:       0.157356489800
             Q1:  -11679.663872469799
 Quadratic coef:       0.000000000962
 Linear coef   :      -0.000000000614
           Qmin:  -11679.663872470246
Quadratic minimum step length (  0.050180894088) accepted
    Initial Ne1:    7192.00000000
      Final Ne1:    7192.00000000

=================== Penalty functional idempotency correction ==================
 RMS occupancy error at iteration   1:  0.000000 (step -0.5000 Ne1=   7192.0000)
            Final RMS occupancy error   :  0.000000 (Ne1=   7192.0000)
               Final occupancy bounds   : [  0.0000,  1.0000]
================================================================================

    9        -1.167966387247E+04     6.4148E-09     5.8020E-09    -1.1642E-10

Reusing previously generated solute cavity.
MG BCs: +ve charge blocks (gridpoints):     29241 (   19475139).
MG BCs: -ve charge blocks (gridpoints):      8491 (    1064122).
MG BCs:     Elided blocks (gridpoints):    185991 (  190164284).
MG BCs: Computational effort saved:  99.9821%.
MG BCs: Charge after coarse-graining:           -9.0009653.
MG DL_MG: Calling solver with defect correction order = 8
MG DL_MG: Solver finished
MG Hartree energy from (\int phi*rho dr):              1208.676636
MG Hartree energy from (\int eps (grad phi)^2 dr):     1208.494498
MG Discrepancy due to finite box and discretization:     -0.182138 (  -0.01507%)
MG Correction to account for finite box:                  0.006272
MG Remaining discrepancy, due to discretization:         -0.175866 (  -0.01455%)
      ideal mu1:      -0.480695565741
   10        -1.167966387247E+04     5.7613E-09     5.2110E-09     2.3283E-10
Finished density kernel iterations (  10)

Writing density kernel to file "host_21761.dkn" ... done


>>> Density kernel optimised for the current NGWF basis:
     ~~~~~~~~~~~~~~~~~~~~~~~~~~~~~~~~~~~~~~~~~~~~~~~~~~~~~~~~~~~
     Total energy                =  -1.16796638724699E+04  Eh
     Estimated bandgap           =   9.6156E-02  Eh
     RMS occupancy error         =   4.2411E-16
     [H,K] commutator            =   5.2110E-09
     Occupancy bounds            = [  0.000:  1.000]
     ~~~~~~~~~~~~~~~~~~~~~~~~~~~~~~~~~~~~~~~~~~~~~~~~~~~~~~~~~~~




################################################################################
########################### NGWF CG iteration  005 #############################
################################################################################
****** Reciprocal space K.E. preconditioning with k_zero =  3.5000 a0^-1 *******

>>> Checking for convergence of NGWFs: 
           ........................................................
           |         *** NGWF optimisation converged ***          |
           | RMS NGWF gradient =    0.00000089007141              |
           | Criteria satisfied:                                  |
           | -> RMS NGWF gradient lower than set threshold.       |
           ========================================================

Reusing previously generated solute cavity.
MG BCs: +ve charge blocks (gridpoints):     29241 (   19475139).
MG BCs: -ve charge blocks (gridpoints):      8491 (    1064122).
MG BCs:     Elided blocks (gridpoints):    185991 (  190164284).
MG BCs: Computational effort saved:  99.9821%.
MG BCs: Charge after coarse-graining:           -9.0009653.
MG DL_MG: Calling solver with defect correction order = 8
MG DL_MG: Solver finished
MG Hartree energy from (\int phi*rho dr):              1208.676636
MG Hartree energy from (\int eps (grad phi)^2 dr):     1208.494498
MG Discrepancy due to finite box and discretization:     -0.182138 (  -0.01507%)
MG Correction to account for finite box:                  0.006272
MG Remaining discrepancy, due to discretization:         -0.175866 (  -0.01455%)

================================================================================
           ---------------- ENERGY COMPONENTS (Eh) ----------------
           | Kinetic                    :     8530.25462041313949 |
           | Pseudo. (local,OBC,corr'd) :    -5052.40836576919628 |
           | Pseudopotential (non-local):     1402.93877185017050 |
           | Hartree (molecular)        :     1208.67663630909578 |
           | Exchange-correlation       :    -3357.32101193404833 |
           | Ion-ion (open BC)          :   825133.24562082195189 |
           | Dispersion Correction      :       -3.22023028143086 |
           | Smeared ion non-self corr. :  -825085.32511382782832 |
           | Smeared ion self corr.     :   -14457.16956389741972 |
           | Solvent cavitation energy  :        2.36507638723343 |
           | Solute-solvent dis-rep en. :       -1.70031254169180 |
           | Total                      :   -11679.66387247007151 |
           --------------------------------------------------------
           ------ LOCAL ENERGY COMPONENTS FROM MATRIX TRACES ------
           | Pseudopotential (local)    :    -5052.40836576919537 |
           | Hartree                    :    -1988.51871913749528 |
           --------------------------------------------------------
           Integrated density           :     7191.99999999882675
           Integrated density tr(KS)    :     7192.00000000000000
================================================================================


                        <<<<< CALCULATION SUMMARY >>>>>                         
|ITER|    RMS GRADIENT   |     TOTAL ENERGY    |   step   |     Epredicted              
   0     0.00003933000619 -11679.60125055618118   0.632869 -11679.65532771821745        
   1     0.00000996466033 -11679.66325841518119   0.093024 -11679.66376865402708        
   2     0.00000444239433 -11679.66384994692635   0.017330 -11679.66386883973792        
   3     0.00000200622365 -11679.66387152939569   0.003586 -11679.66387232659145        
   4     0.00000089007141 -11679.66387246991508  <-- CG                                 

=================== Finished the calculation in solvent ========================
= Adjusting the following parameters: 
= read_denskern: F
= read_tightbox_ngwfs: F
= maxit_pen: 0 (restored to user-specified value)
= restart read filename prefix: ""
= restart write filename prefix: ""
================================================================================

================================================================================
IS: Calculation in solvent completed (NGWFs converged).      

Individual components of total energy in solvent:     hartree           kcal/mol
- Usual non-electrostatic DFT terms:    -12889.00527262455216    -8087972.744352
- Electrostatic fixed charge energy:      1208.67663630909578      758456.023908
- Apolar cavitation energy:                  2.36507638723343        1484.107808
- Apolar dispersion-repulsion energy:       -1.70031254169180       -1066.962206
 -------------------------------------------------------------------------------
- Total energy in solvent:              -11679.66387246991508    -7329099.574842

Components of total energy in solvent:                hartree           kcal/mol
- Usual non-electrostatic DFT terms:    -12889.00527262455216    -8087972.744352
- Electrostatic energy:                   1208.67663630909578      758456.023908
- Apolar energy terms:                       0.66476384554164         417.145602
 -------------------------------------------------------------------------------
- Total energy in solvent:              -11679.66387246991508    -7329099.574842

Calculation of free energy of solvation:              hartree           kcal/mol
- Total energy in solvent:         (+)  -11679.66387246991508    -7329099.574842
- Total energy in vacuum:          (-)  -11675.78622910799459    -7326666.316948
 -------------------------------------------------------------------------------
- Total free energy of solvation:           -3.87764336192049       -2433.257894

Components of polar term in f.e. of solvation:        hartree           kcal/mol
- Electrostatic:                            -4.71973889400920       -2961.680807
- Change in nonelectrostatic DFT terms:      0.17733168654740         111.277311
 -------------------------------------------------------------------------------
- Polar term in f.e. of solvation:          -4.54240720746179       -2850.403496

Components of free energy of solvation:               hartree           kcal/mol
- Polar term in f.e. of solvation: (+)      -4.54240720746179       -2850.403496
- Apolar (cavitation, dis., rep.): (+)       0.66476384554164         417.145602
 -------------------------------------------------------------------------------
- Total free energy of solvation:           -3.87764336192016       -2433.257894
================================================================================


------------------------------ TIMING INFORMATION ------------------------------
AVERAGE TIME:   36452.872s on     60 node(s)                                    
TOTAL TIME:     36452.872s on     60 node(s)                                    
================= AVERAGE TIMINGS FROM ALL NODES (CUMULATIVE) ==================
|| TAG                                    #calls    cpu time   %total  Gflops ||
|| work_imbalance                       :     1        0.00s   0.000%  ------ ||
|| sparse_set_to_garbage                :   188        0.03s   0.000%  ------ ||
|| parallel_prepare_fd_halos_request    :  2067        0.04s   0.000%  ------ ||
|| parallel_prepare_fd_halos_alloc      :  2067        0.11s   0.000%  ------ ||
|| ngwfs_initialise_from_radial         :     1        0.11s   0.000%  ------ ||
|| basis_extract_function_from_box      :  3794        0.16s   0.000%  ------ ||
|| parallel_prepare_fd_halos_satisfy    :  2067        0.65s   0.002%  ------ ||
|| pseudopotentials_nonlocal_mat        :    32        1.23s   0.003%  ------ ||
|| openbc_locps_radial                  :     1        3.06s   0.008%  ------ ||
|| density_init_guess_real              :     1        3.82s   0.010%  ------ ||
|| restart_kernel_read                  :     1        4.55s   0.012%  ------ ||
|| restart_ngwfs_tightbox_input         :     1        8.74s   0.024%  ------ ||
|| parallel_prepare_fd_halos_comms_imbal:  2067       10.27s   0.028%  ------ ||
|| parallel_prepare_fd_halos_clear      :  2067       21.93s   0.060%  ------ ||
|| sparse_init                          :     2       21.97s   0.060%  ------ ||
|| palser_mano_kernel_optimise          :     1       30.08s   0.083%  ------ ||
|| projectors_func_ovlp_box             :    32       30.52s   0.084%  ------ ||
|| parallel_prepare_fd_halos_comms_wait :  2067       30.94s   0.085%  ------ ||
|| projectors_init_fftbox_recip         :   151       31.15s   0.085%  ------ ||
|| function_ops_brappd_ketppd           :    32       32.38s   0.089%  ------ ||
|| basis_copy_function_to_box           : 61689       47.36s   0.130%  ------ ||
|| ngwf_gradient_coeffs                 :    17       51.18s   0.140%  ------ ||
|| pseudo_make_structure_factor         :     2       53.93s   0.148%  ------ ||
|| fourier_apply_box_pair               :  5427       60.00s   0.165% 594.080 ||
|| parallel_prepare_fd_halos            :  2067       63.95s   0.175%  ------ ||
|| sparse_embed_hotelling_invert_embed  :    32       77.62s   0.213%  ------ ||
|| restart_kernel_write                 :    18      105.05s   0.288%  ------ ||
|| finite_difference_derivative         :  2067      145.44s   0.399%  ------ ||
|| integrals_kinetic                    :    32      170.09s   0.467%  ------ ||
|| basis_dot_function_with_box          : 9.296M     175.16s   0.480%  ------ ||
|| sparse_trace                         :  5355      176.77s   0.485%  ------ ||
|| projectors_gradient_batch            :   119      192.37s   0.528%  ------ ||
|| fourier_apply_cell_backward          :  1379      221.59s   0.608%  92.921 ||
|| fourier_apply_cell_forward           :  1377      257.32s   0.706%  79.903 ||
|| openbc_locps_on_grid                 :     2      283.01s   0.776%  ------ ||
|| kernel_purify                        :   526      317.67s   0.871%  ------ ||
|| basis_add_function_to_box            : 19.42M     415.44s   1.140%  ------ ||
|| lnv_gradient_norm                    :   170      451.61s   1.239%  ------ ||
|| kernel_fix                           :   170      501.23s   1.375%  ------ ||
|| hamiltonian_energy_components        :     4      526.65s   1.445%  ------ ||
|| xc_energy_potential                  :   344      555.23s   1.523%  ------ ||
|| integrals_locpot_mat_els_batch       :  1253      803.69s   2.205%  ------ ||
|| ngwf_gradient_build_batch            :   119      881.41s   2.418%  ------ ||
|| ngwf_gradient_batch                  :   119     1196.51s   3.282%  ------ ||
|| cell_grid_deposit_box_real           : 39497     1257.41s   3.449%  ------ ||
|| restart_ngwfs_tightbox_output        :    15     1279.45s   3.510%  ------ ||
|| ngwf_gradient_lnv                    :    17     1343.17s   3.685%  ------ ||
|| density_batch_row_sums               :  2401     1353.23s   3.712%  ------ ||
|| sparse_product                       :  6885     1895.41s   5.200%  ------ ||
|| density_fftbox_deposit_to_cell       : 37387     2018.47s   5.537%  ------ ||
|| cell_grid_extract_box_real           : 43559     2277.86s   6.249%  ------ ||
|| potential_apply_to_ngwf_batch        :  1253     4108.30s  11.270%  ------ ||
|| density_fftbox_interpolate_multiply  : 37387     4449.10s  12.205%  ------ ||
|| integrals_locpot_dbl_grid            :   179     4938.28s  13.547%  ------ ||
|| fourier_apply_box                    : 128.7k    5314.98s  14.580% 770.327 ||
|| multigrid_prepare_bound_cond         :   344     5599.88s  15.362%  ------ ||
|| density_batch_interp_deposit         :  2401     7445.27s  20.424%  ------ ||
|| density_on_dbl_grid                  :   343     9129.16s  25.044%  ------ ||
|| dl_mg_solver_calls                   :   344     9550.01s  26.198%  ------ ||
|| multigrid_calculate_hartree          :   344    15344.90s  42.095%  ------ ||
|| hamiltonian_lhxc_calculate           :   339    25021.41s  68.640%  ------ ||
|| lnv_denskernel_optimise_cg           :    17    30728.72s  84.297%  ------ ||
|| ngwf_cg_optimise                     :     2    35422.59s  97.174%  ------ ||
|| total_time                           :     1    36452.87s 100.000%  ------ ||
================================================================================
Overhead of generating timer report: 
- 0 ms averaging over threads,
- 15 ms ensuring consistency across MPI ranks,
- 0 ms printing in order.

Job completed: 16-02-2020 17:45 (-0000)

Application 38992671 resources: utime ~7464732s, stime ~366924s, Rss ~4151880, inblocks ~335373841, outblocks ~72984892
