 +---------------------------------------------------------------+
 |                                                               |
 |        ####### #     # ####### ####### ####### ######         |
 |        #     # ##    # #          #    #       #     #        |
 |        #     # # #   # #          #    #       #     #        |
 |        #     # #  #  # #####      #    #####   ######         |
 |        #     # #   # # #          #    #       #              |
 |        #     # #    ## #          #    #       #              |
 |        ####### #     # #######    #    ####### #              |
 |                                                               |
 |        Linear-Scaling Ab Initio Total Energy Program          |
 |                                                               |
 |          Release for academic collaborators of ODG            |
 |                                             Version 5.3.2.6.  |
 |                                                               |
 +---------------------------------------------------------------+
 |                                                               |
 |  Authors:                                                     |
 |  Jacek Dziedzic, Peter D. Haynes, Nicholas D. M. Hine,        |
 |  Arash. A. Mostofi, Mike C. Payne and Chris-Kriton Skylaris   |
 |                                                               |
 |  Contributors:                                                |
 |  J. Aarons, L. Andrinopoulos, P. W. Avraam, R. A. Bell,       |
 |  A. Bhandari, G. A. Bramley, R. J. Charlton, S. J. Clark,     |
 |  R. J. Clements, G. C. Constantinescu, F. Corsetti,           |
 |  N. Corsini, O. Dieguez, S. M. M. Dubois, K. K. B. Duff,      |
 |  J. M. Escartin, A. Greco, H. Helal, Q. O. Hill, L. P. Lee,   |
 |  J.-H. Li, E. B. Linscott, G. Moynihan, D. D. O`Regan,        |
 |  O. K. Okan, M. J. S. Phipps, C. J. Pickard,                  |
 |  J. C. A. Prentice, M. I. J. Probert, L. E. Ratcliff,         |
 |  M. Robinson, A. Ruiz Serrano, J. S. Spencer, E. W. Tait,     |
 |  G. Teobaldi, D. Turban, V. Vitale, K. A. Wilkinson,          |
 |  C. Weber, J. C. Womack, N. Yeung and T. J. Zuehlsdorff       |
 |                                                               |
 |                                   Copyright (c) 2004-2019     |
 |                                                               |
 |  Please cite:                                                 |
 |  "Introducing ONETEP: Linear-scaling density functional       |
 |   simulations on parallel computers".                         |
 |   C.-K. Skylaris, P. D. Haynes, A. A. Mostofi, M. C. Payne.   |
 |   J. Chem. Phys. 122 084119 (2005).                           |
 |                                                               |
 |          in all publications arising from your use of ONETEP. |
 |                                                               |
 +---------------------------------------------------------------+
 |                                                               |
 |   ONETEP is based on developments described in the following  |
 |   publications:                                               |
 |                                                               |
 |  "Nonorthogonal generalized Wannier function pseudopotential  |
 |   plane-wave method".                                         |
 |   C.-K. Skylaris, A. A. Mostofi, P. D. Haynes, O. Dieguez,    |
 |   M. C. Payne.                                                |
 |   Phys. Rev. B 66 035119 (2002).                              |
 |                                                               |
 |  "Preconditioned iterative minimization for linear-scaling    |
 |   electronic structure calculations".                         |
 |   A. A. Mostofi, P. D. Haynes, C.-K. Skylaris, M. C. Payne.   |
 |   J. Chem. Phys. 119(17), pp.8842-8848 (2003).                |
 |                                                               |
 |  "Total-energy calculations on a real space grid with         |
 |   localized functions and a plane-wave basis".                |
 |   A. A. Mostofi, C.-K. Skylaris, P. D. Haynes, M. C. Payne.   |
 |   Comput. Phys. Commun. 147, pp.788-802 (2002).               |
 |                                                               |
 |  "Accurate kinetic energy evaluation in electronic structure  |
 |   calculations with localized functions on real space grids"  |
 |   C.-K. Skylaris, A. A. Mostofi, P. D. Haynes, C. J. Pickard, |
 |   M. C. Payne.                                                |
 |   Comput. Phys. Commun. 140, pp.315-322 (2001).               |
 |                                                               |
 |  "Accurate ionic forces and geometry optimization in linear-  |
 |   scaling density-functional theory with local orbitals"      |
 |   N. D. M. Hine, M. Robinson, P. D. Haynes, C.-K. Skylaris,   |
 |   M. C. Payne, and A. A. Mostofi.                             |
 |   Phys. Rev. B 83 195102 (2011).                              |
 |                                                               |
 +---------------------------------------------------------------+

Job started: 04-05-2020 00:43 (+0100)
 
Reading parameters from file "host_9221.dat" ...... done

If your calculation crashes here, before "Checking processes and threads..."
is displayed, then your stack size is insufficient.
If so, use "ulimit -s unlimited" at runtime.
You can disable this check with "check_stack_size F".

Checking processes and threads...
   Determining the default number of threads...
      No default threads set at compilation time: defaulting to 1.
      OpenMP library call suggests 4 threads.
      Hybrid MPI-OpenMP compilation detected.
      Number of MPI processes > 1.
      OMP_NUM_THREADS environment variable present and
      its value matches the one obtained from the OpenMP library call.
      Using this value as default.
      Default threads: 4
      Default applies to threads_max and threads_num_fftboxes.
      Settings in the input file override this default.
   ... done

   Running with 40 MPI processes.
   There are 10 MPI processes running on the same node as the root process.
   Each MPI process is using: 
               1 threads for simulation cell FFTs.
               1 threads for parallel FFT box operations.
               4 threads for loops over batched FFT box operations.
               4 threads in other parallel regions.
... done

Basic input checks...... done

Reading geometry and species blocks from file "host_9221.dat" ...
  <species_atomic_set> block not found: NGWF initialisation set to SOLVE
IS: Dielectric excluded regions:
    - NONE.
    
  Number of PPD points along a3 set to 1.  This is 
  the default value, it may have been provided also in the input file.
... done
 Writing xyz coordinates to file "host_9221.xyz" ... done


--------------------------------------------------------------------------------
---------------------------------- INPUT FILE ----------------------------------
--------------------------------------------------------------------------------

cutoff_energy       : 800 eV                                                    
xc_functional PBE                                                               
task SINGLEPOINT                                                                
write_xyz true                                                                  
output_detail VERBOSE                                                           
ngwf_threshold_orig : 0.000002                                                  
kernel_cutoff       : 1000                                                      
k_zero              : 3.5                                                       
elec_cg_max 0                                                                   
occ_mix 1.0                                                                     
dispersion 1                                                                    
maxit_ngwf_cg 40                                                                
minit_lnv 10                                                                    
maxit_lnv 10                                                                    
write_denskern T                                                                
write_tightbox_ngwfs T                                                          
charge 9                                                                        
is_implicit_solvent T                                                           
is_auto_solvation T                                                             
is_include_apolar T                                                             
is_smeared_ion_rep T                                                            
is_solvent_surf_tension 4.7624E-5 Ha/bohr**2                                    
is_apolar_scaling_factor 0.281075                                               
is_solvation_beta 1.3                                                           
is_density_threshold 0.00035                                                    
is_bulk_permittivity 78.54                                                      
is_dielectric_model fix_initial                                                 
is_smeared_ion_width 0.8                                                        
mg_defco_fd_order 8                                                             
is_bc_coarseness 10                                                             
is_bc_surface_coarseness 1                                                      
fine_grid_scale 2.0                                                             
%block species                                                                  
N   N   7 4 8.0                                                                 
H   H   1 1 8.0                                                                 
C   C   6 4 8.0                                                                 
S   S  16 9 8.0                                                                 
O   O   8 4 8.0                                                                 
%endblock species                                                               
%block species_pot                                                              
N   N_00.recpot                                                                 
H   H_04.recpot                                                                 
C   C_01.recpot                                                                 
S   S_00.recpot                                                                 
O   O_02.recpot                                                                 
%endblock species_pot                                                           
%block lattice_cart                                                             
142.669   0.000   0.000                                                         
0.000 146.65   0.000                                                            
0.000   0.000   162.396                                                         
%endblock lattice_cart                                                          
%block positions_abs                                                            
     Hash =  -000006199549552294323559
%endblock positions_abs                                                         

--------------------------------------------------------------------------------
-------------------------------- END INPUT FILE --------------------------------
--------------------------------------------------------------------------------


 
 ESDF WARNING(1): "kernelcutoff" (esdf_physical) has no units. Assume "bohr".
 ESDF WARNING(2): "kzero" (esdf_physical) has no units. Assume "1/bohr".
 ESDF WARNING(3
 ): "issmearedionwidth" (esdf_physical) has no units. Assume "bohr".
<<<<<<<<<<<<<<<<<<<<<<<<<<<<<<<<< Full system >>>>>>>>>>>>>>>>>>>>>>>>>>>>>>>>>>
<<<<<<<<<<<<<<<<<<<<<<<<< Pseudopotential information >>>>>>>>>>>>>>>>>>>>>>>>>>
File: N_00.recpot [ 2001 points up to Gmax=  52.9 (1/bohr)]
  Atomic number:  7;  ionic charge:  5.000000
    Shell 1: l = 0; rc = 1.48 bohr
File: H_04.recpot [ 2001 points up to Gmax=  52.9 (1/bohr)]
  Atomic number:  1;  ionic charge:  1.000000
    Local potential
File: C_01.recpot [ 2001 points up to Gmax=  52.9 (1/bohr)]
  Atomic number:  6;  ionic charge:  4.000000
    Shell 1: l = 0; rc = 1.48 bohr
File: S_00.recpot [ 2001 points up to Gmax=  52.9 (1/bohr)]
  Atomic number: 16;  ionic charge:  6.000000
    Shell 1: l = 0; rc = 1.90 bohr
    Shell 2: l = 2; rc = 1.84 bohr
File: O_02.recpot [ 2001 points up to Gmax=  52.9 (1/bohr)]
  Atomic number:  8;  ionic charge:  6.000000
    Shell 1: l = 0; rc = 1.31 bohr
<<<<<<<<<<<<<<<<<<<<<<<<<<<<<<<<<<<<<<<<>>>>>>>>>>>>>>>>>>>>>>>>>>>>>>>>>>>>>>>>

-------------------------- Atom counting information ---------------------------
Symbol    Natoms    Nngwfs    Nprojs
  N        236       944       236
  H       1311      1311         0
  C        810      3240       810
  S          6        54        36
  O        239       956       239
.......   ......    ......    ......
Totals:   2602      6505      1321
--------------------------------------------------------------------------------

=============================== PSINC grid sizes ===============================
                      Simulation cell:  286 x 294 x 320
                              FFT-box:  105 x 105 x  99
                                  PPD:   11 x   6 x   1
Grid space d1=  0.498842657343a0 (KE cutoff=  30.52649Eh = 830.66799eV)
Grid space d2=  0.498809523810a0 (KE cutoff=  30.53054Eh = 830.77835eV)
Grid space d3=  0.507487500000a0 (KE cutoff=  29.49533Eh = 802.60885eV)
================================================================================

********************* Fourier parallelisation information **********************
       Coarse grid (whole simulation cell) dimensions:    286   294   320
          Real-space ('12') slabs/node (min max mean):      8     8     8
         Recip-space ('23') slabs/node (min max mean):      3     4     3
********************************************************************************

********************* Fourier parallelisation information **********************
       Double grid (whole simulation cell) dimensions:    572   588   640
          Real-space ('12') slabs/node (min max mean):     16    16    16
         Recip-space ('23') slabs/node (min max mean):      7     8     7
********************************************************************************
ONETEP fine grid is 572 x 588 x 640 gridpoints, 142.6690 x 146.6500 x 162.3960 bohr.
FD multigrid is     569 x 585 x 633 gridpoints, 141.9207 x 145.9018 x 160.6198 bohr.


Calculating local pseudopotential in open BC on a radial grid ...
Discrepancy between calculated realspace psloc and -Z/x on [5a0,261.215a0]:
max |rel. diff| # avg |rel. diff| #  avg rel. diff #  f # pseudopotential file
 0.000261901569    0.000004963664   0.000000071970   55  'N_00.recpot'
 0.000422260137    0.000017549664  -0.000000063361   55  'H_04.recpot'
 0.000361991046    0.000016543264   0.000000134927   55  'C_01.recpot'
 0.000447743184    0.000019132268   0.000000438157   55  'S_00.recpot'
 0.000711628927    0.000028437426   0.000000135877   55  'O_02.recpot'
... done

Atom SCF Calculation for N  : Z (AE atom) =   7 : Z (PS atom) =   5
Config String:
Orbitals (num,occ):  2     2.00 3.00
Orbitals   (num,l):  2        0    1
Real-space Grid (nr,dr,rmax): 1203    0.0066555740    8.0000000000
Spherical Bessel Basis (nsws,lmax,cutoff):   47    1  176.3951722778
Confining potential (l,width,scale):  0    3.0000000000  100.0000000000
Confining potential (l,width,scale):  1    3.0000000000  100.0000000000
  1         -4.7312375307   -3.4155304497    7.0523828109   -1.9351020946
  2         -9.7309464766   -2.0532547791    8.2966052865   -2.2494486027
  3         -9.6627394379   -2.1124926340    8.2327997121   -2.2369778124
  4         -9.6814993499   -2.1215521045    8.2229805960   -2.2365178421
  5         -9.6843326483   -2.1250939529    8.2191374534   -2.2362718126
  6         -9.6859628709   -2.1267894855    8.2172963573   -2.2362066344
  7         -9.6867347035   -2.1276425665    8.2163697352   -2.2361903369
  8         -9.6870802100   -2.1280764625    8.2158983890   -2.2361891460
  9         -9.6872290423   -2.1282977424    8.2156580222   -2.2361920435
 10         -9.6872901988   -2.1284107021    8.2155353368   -2.2361953393
 11         -9.6873135296   -2.1284684031    8.2154726809   -2.2361979819
 12         -9.6873212476   -2.1284978948    8.2154406648   -2.2361998431
 13         -9.6873229586   -2.1285129774    8.2154242957   -2.2362010676
 14         -9.6873226456   -2.1285206957    8.2154159216   -2.2362018403
 15         -9.6873218534   -2.1285246479    8.2154116349   -2.2362023142
 16         -9.6873212599   -2.1285262679    8.2154098784   -2.2362025420
 17         -9.6873207834   -2.1285272564    8.2154088068   -2.2362026955
 18         -9.6873204210   -2.1285278597    8.2154081529   -2.2362027982
 19         -9.6873201550   -2.1285282280    8.2154077538   -2.2362028667
 20         -9.6873199645   -2.1285284529    8.2154075102   -2.2362029121
 21         -9.6873198305   -2.1285285903    8.2154073614   -2.2362029421
 22         -9.6873197377   -2.1285286742    8.2154072705   -2.2362029618
Atom SCF converged after  22 iterations to a total energy of     -9.68731974

Atom SCF Calculation for H  : Z (AE atom) =   1 : Z (PS atom) =   1
Config String:
Orbitals (num,occ):  1     1.00
Orbitals   (num,l):  1        0
Real-space Grid (nr,dr,rmax): 1203    0.0066555740    8.0000000000
Spherical Bessel Basis (nsws,lmax,cutoff):   47    0  176.3951722778
Confining potential (l,width,scale):  0    3.0000000000  100.0000000000
  1         -0.3194257691   -0.2393854593    0.2820953124   -0.2424203209
  2         -0.3951823392   -0.2377116493    0.2886404059   -0.2475147891
  3         -0.4317044583   -0.2352244387    0.2921333887   -0.2514046172
  4         -0.4470703708   -0.2341892222    0.2934391879   -0.2531009782
  5         -0.4532132900   -0.2338556667    0.2938388426   -0.2537313520
  6         -0.4556579251   -0.2337612552    0.2939448584   -0.2539550462
  7         -0.4566418315   -0.2337377355    0.2939680120   -0.2540342273
  8         -0.4570437922   -0.2337331116    0.2939708287   -0.2540627372
  9         -0.4572102946   -0.2337328328    0.2939698291   -0.2540732650
 10         -0.4572800424   -0.2337332404    0.2939687193   -0.2540772588
 11         -0.4573095100   -0.2337335791    0.2939680317   -0.2540788122
 12         -0.4573220379   -0.2337337762    0.2939676699   -0.2540794294
 13         -0.4573273880   -0.2337338775    0.2939674931   -0.2540796787
 14         -0.4573296803   -0.2337339266    0.2939674099   -0.2540797808
 15         -0.4573306647   -0.2337339495    0.2939673718   -0.2540798230
 16         -0.4573310882   -0.2337339601    0.2939673545   -0.2540798406
 17         -0.4573312706   -0.2337339649    0.2939673467   -0.2540798479
 18         -0.4573313493   -0.2337339670    0.2939673433   -0.2540798510
Atom SCF converged after  18 iterations to a total energy of     -0.45733135

Atom SCF Calculation for C  : Z (AE atom) =   6 : Z (PS atom) =   4
Config String:
Orbitals (num,occ):  2     2.00 2.00
Orbitals   (num,l):  2        0    1
Real-space Grid (nr,dr,rmax): 1203    0.0066555740    8.0000000000
Spherical Bessel Basis (nsws,lmax,cutoff):   47    1  176.3951722778
Confining potential (l,width,scale):  0    3.0000000000  100.0000000000
Confining potential (l,width,scale):  1    3.0000000000  100.0000000000
  1         -5.2976922011   -1.3069684169    4.5135249990   -1.4493313817
  2         -5.3721716256   -1.3429755895    4.4750154450   -1.4361613026
  3         -5.3809959565   -1.3617365618    4.4541655428   -1.4305930207
  4         -5.3918938866   -1.3667928461    4.4484735100   -1.4294652294
  5         -5.3956096428   -1.3688539142    4.4461376126   -1.4290734646
  6         -5.3968271862   -1.3696852393    4.4451910874   -1.4289366866
  7         -5.3972028401   -1.3700178062    4.4448112275   -1.4288900460
  8         -5.3973067903   -1.3701500158    4.4446598370   -1.4288749220
  9         -5.3973286940   -1.3702023868    4.4445997329   -1.4288704293
 10         -5.3973289850   -1.3702230869    4.4445759233   -1.4288693188
 11         -5.3973254264   -1.3702312560    4.4445665049   -1.4288691775
 12         -5.3973224003   -1.3702344755    4.4445627836   -1.4288692549
 13         -5.3973208708   -1.3702354890    4.4445616088   -1.4288693270
 14         -5.3973198783   -1.3702360102    4.4445610034   -1.4288693814
 15         -5.3973192535   -1.3702362780    4.4445606917   -1.4288694190
 16         -5.3973188684   -1.3702364155    4.4445605313   -1.4288694437
 17         -5.3973186349   -1.3702364860    4.4445604489   -1.4288694595
 18         -5.3973184951   -1.3702365221    4.4445604065   -1.4288694693
 19         -5.3973184122   -1.3702365405    4.4445603848   -1.4288694753
Atom SCF converged after  19 iterations to a total energy of     -5.39731841

Atom SCF Calculation for S  : Z (AE atom) =  16 : Z (PS atom) =   6
Config String:
Orbitals (num,occ):  3     2.00 4.00 0.00
Orbitals   (num,l):  3        0    1    2
Real-space Grid (nr,dr,rmax): 1203    0.0066555740    8.0000000000
Spherical Bessel Basis (nsws,lmax,cutoff):   47    2  176.3951722778
Confining potential (l,width,scale):  0    3.0000000000  100.0000000000
Confining potential (l,width,scale):  1    3.0000000000  100.0000000000
Confining potential (l,width,scale):  2    3.0000000000  100.0000000000
  1        -12.4735062396   -1.0328741412   10.1554312477   -2.4512393157
  2         -9.9458301913   -2.4607392455    8.3041325857   -2.0306994528
  3        -10.1450417646   -2.2931184565    8.4831893826   -2.0812538287
  4        -10.1528335592   -2.2733105793    8.5050388867   -2.0896035179
  5        -10.1571940363   -2.2633716629    8.5160794258   -2.0939370707
  6        -10.1594380571   -2.2584938667    8.5215163935   -2.0961289008
  7        -10.1605856507   -2.2561081821    8.5241804044   -2.0972291378
  8        -10.1611799191   -2.2549395235    8.5254868240   -2.0977806248
  9        -10.1614918752   -2.2543658586    8.5261285885   -2.0980571586
 10        -10.1616572884   -2.2540839121    8.5264441898   -2.0981959233
 11        -10.1617455602   -2.2539453058    8.5265994231   -2.0982656006
 12        -10.1617928447   -2.2538772062    8.5266757320   -2.0983006047
 13        -10.1618182292   -2.2538437891    8.5267131983   -2.0983181961
 14        -10.1618318741   -2.2538274201    8.5267315620   -2.0983270391
 15        -10.1618392144   -2.2538194197    8.5267405433   -2.0983314852
 16        -10.1618431651   -2.2538155200    8.5267449245   -2.0983337210
 17        -10.1618452923   -2.2538136252    8.5267470551   -2.0983348455
 18        -10.1618464380   -2.2538127080    8.5267480875   -2.0983354110
 19        -10.1618470552   -2.2538122659    8.5267485856   -2.0983356955
 20        -10.1618473878   -2.2538120540    8.5267488248   -2.0983358386
 21        -10.1618475670   -2.2538119530    8.5267489389   -2.0983359106
 22        -10.1618476637   -2.2538119053    8.5267489929   -2.0983359468
Atom SCF converged after  22 iterations to a total energy of    -10.16184766

Atom SCF Calculation for O  : Z (AE atom) =   8 : Z (PS atom) =   6
Config String:
Orbitals (num,occ):  2     2.00 4.00
Orbitals   (num,l):  2        0    1
Real-space Grid (nr,dr,rmax): 1203    0.0066555740    8.0000000000
Spherical Bessel Basis (nsws,lmax,cutoff):   47    1  176.3951722778
Confining potential (l,width,scale):  0    3.0000000000  100.0000000000
Confining potential (l,width,scale):  1    3.0000000000  100.0000000000
  1         -1.8735052164   -7.5539365035   10.1554312477   -2.4512393157
  2        -16.0318313751   -3.1285771268   13.6395848164   -3.2358799643
  3        -15.9524020423   -3.0762819706   13.6967272503   -3.2536856837
  4        -15.8521515939   -3.0781493909   13.6951909330   -3.2561700440
  5        -15.8357139793   -3.0748501933   13.6988803334   -3.2580493133
  6        -15.8246052853   -3.0740779781   13.6997881576   -3.2588327446
  7        -15.8189019501   -3.0737449687   13.7001869911   -3.2592378801
  8        -15.8159785510   -3.0736026016   13.7003615168   -3.2594475790
  9        -15.8144776168   -3.0735437994   13.7004360379   -3.2595560735
 10        -15.8137058024   -3.0735207882   13.7004667348   -3.2596122456
 11        -15.8133083127   -3.0735125946   13.7004786868   -3.2596413656
 12        -15.8131032938   -3.0735102195   13.7004828997   -3.2596564858
 13        -15.8129973902   -3.0735099286   13.7004840891   -3.2596643505
 14        -15.8129426040   -3.0735102506   13.7004842061   -3.2596684489
 15        -15.8129142203   -3.0735106556   13.7004840157   -3.2596705887
 16        -15.8128994940   -3.0735109855   13.7004837906   -3.2596717080
 17        -15.8128918425   -3.0735112169   13.7004836103   -3.2596722946
 18        -15.8128878614   -3.0735113674   13.7004834848   -3.2596726026
 19        -15.8128857871   -3.0735114608   13.7004834035   -3.2596727646
 20        -15.8128847048   -3.0735115170   13.7004833533   -3.2596728500
 21        -15.8128841394   -3.0735115501   13.7004833231   -3.2596728951
 22        -15.8128838436   -3.0735115693   13.7004833054   -3.2596729190
 23        -15.8128836887   -3.0735115802   13.7004832951   -3.2596729316
 24        -15.8128836074   -3.0735115864   13.7004832893   -3.2596729383
Atom SCF converged after  24 iterations to a total energy of    -15.81288361

========================== Calculation in vacuum ==============================
= Adjusting the following parameters: 
= is_implicit_solvent: F
= is_include_apolar: F
= write_denskern: T
= write_tightbox_ngwfs: T
= restart read filename prefix: ""
= restart write filename prefix: "vacuum_"
===============================================================================

Determining parallel strategy ...
... using space-filling curve
... NGWF load balancing: max    163;  min    162;  average    163
... Projector load balancing: max     36;  min     32;  average     33
... done
Calculating direct Ion-Ion energy ...
Ion-Ion Energy        :    817005.12095683836378
======================= Empirical dispersion information =======================
Model : Elstner
Dispersion Correction Energy: -0.32557908E+01 Hartree
================================================================================
Basis initialisation ...... NGWF spheres initialised
... Projector spheres initialised
... NGWF tight boxes initialised
... Tight-boxes gathered
... NGWF basis size (local,global):    1191593  47333123
... Nonlocal pseudopotential projector initialisation
... done

========================== Sparse matrix information ===========================
                        Overlap matrix filling:   6.71%
                        Density kernel filling: 100.00%
              NGWF-Proj overlap matrix filling:   1.78%
                    Hamiltonian matrix filling:   7.56%
                  NGWF diagonal matrix filling:   0.05%
                             KS matrix filling: 100.00% 
                           KSKS matrix filling: 100.00% 
================================================================================

Sparse matrix initialisation ... done

Generating smeared ion density ... done
Smeared ion self correction:     -14457.169564
Smeared ion non-self correction: -816957.006357
NGWF initialisation ...... done
============ Calculation of NGWF S^-1 using Hotelling algorithm ================ 
         Iteration  |  Frobenius norm and Maximum abs value    (of I-S*S_n^-1)   
               1       0.78507723E+02     0.98273733E+00
               2       0.76677240E+02     0.96591523E+00
               3       0.73707246E+02     0.93360818E+00
               4       0.69474111E+02     0.87414519E+00
               5       0.64187390E+02     0.77091156E+00
               6       0.58231539E+02     0.70674424E+00
               7       0.52225516E+02     0.67387815E+00
               8       0.46677256E+02     0.64950524E+00
               9       0.40652280E+02     0.61122687E+00
              10       0.32458955E+02     0.54471216E+00
              11       0.21939831E+02     0.43938313E+00
              12       0.11313615E+02     0.30302085E+00
              13       0.37876186E+01     0.14637573E+00
              14       0.61808164E+00     0.34716527E-01
              15       0.32054569E-01     0.35361781E-02
              16       0.21786551E-03     0.40975349E-04
              17       0.20882924E-07     0.56330935E-08
              18       0.95883890E-13     0.42886024E-14
================================================================================
Calculating local pseudopotential in open BC on the fine real space grid ...
... done

MG BCs: +ve charge blocks (gridpoints):     20808 (   16301887).
MG BCs: -ve charge blocks (gridpoints):      8157 (    1096090).
MG BCs:     Elided blocks (gridpoints):    194424 (  193305568).
MG BCs: Computational effort saved:  99.9863%.
MG BCs: Charge after coarse-graining:           -9.0002349.
MG DL_MG: Calling solver with defect correction order = 8
MG DL_MG: Solver finished
MG Hartree energy from (\int phi*rho dr):              1462.169454
MG Hartree energy from (\int eps (grad phi)^2 dr):     1461.569126
MG Discrepancy due to finite box and discretization:     -0.600328 (  -0.04106%)
MG Correction to account for finite box:                  0.453573
MG Remaining discrepancy, due to discretization:         -0.146756 (  -0.01004%)
Up spin density kernel initialisation ... 
======= Optimisation of K by Palser-Manolopoulos canonical purification ======== 
         Iteration  |  Band structure energy |    c_n   
               1       -2570.20740098015267    0.5269662
               2       -2746.09887929736442    0.5171346
               3       -2926.33451546690276    0.5155234
               4       -3076.81727747397144    0.5289716
               5       -3169.40406683170932    0.5644222
               6       -3208.18394527328519    0.6088337
               7       -3221.37253104445517    0.6207171
               8       -3227.08063266303043    0.6210122
               9       -3229.81339571664830    0.6384187
              10       -3230.92666117848421    0.6649680
              11       -3231.36141343358031    0.6834511
              12       -3231.55302337556350    0.6871189
              13       -3231.64979783181116    0.6692021
              14       -3231.70521640107972    0.6326491
              15       -3231.73758549138984    0.5729177
              16       -3231.75523144826366    0.5092822
              17       -3231.76175373087790    0.4882128
              18       -3231.76255873966102    0.5185808
              19       -3231.76287015766229    0.5695341
              20       -3231.76306129334534    0.6310103
              21       -3231.76312971717380    0.6575942
              22       -3231.76314487336003    0.6548712
              23       -3231.76315918381624    0.6462578
              24       -3231.76317780562204    0.6319515
              25       -3231.76320140950975    0.6094286
              26       -3231.76322974186951    0.5773416
              27       -3231.76326033616442    0.5398921
              28       -3231.76328718038303    0.5108157
              29       -3231.76330271693951    0.5007758
              30       -3231.76330663964472    0.5000038
              31       -3231.76330684423920    0.5000038
Termination criterion satisfied: band energy change below threshold.
Final occupancy bounds: [    0.00000000358662:    0.99999999995326]
Closest occupancy to 0.5:     0.99999999974756
================================================================================
... done

Writing density kernel to file "host_9221.vacuum_dkn" ... done

>>> Optimising kernel for current NGWFs:
   Initial electron number for spin 1:    7192.00000000
     Final electron number for spin 1:    7192.00000000

=================== Penalty functional idempotency correction ==================
 RMS occupancy error at iteration   1:  0.000000 (step -0.5000 Ne1=   7192.0000)
            Final RMS occupancy error   :  0.000000 (Ne1=   7192.0000)
               Final occupancy bounds   : [  0.0000,  1.0000]
================================================================================

................................................................................
<<<<<<<<<<<<<< LNV (Original version) density kernel optimisation >>>>>>>>>>>>>>
~~~~~~~~~~~~~~~~~~~~~~~~~~~~~~~~~~~~~~~~~~~~~~~~~~~~~~~~~~~~~~~~~~~~~~~~~~~~~~~~
   iter  |      energy (Eh)       | rms gradient |  commutator  |   dE (Eh)
MG BCs: +ve charge blocks (gridpoints):     32223 (   17507983).
MG BCs: -ve charge blocks (gridpoints):      8487 (    1129365).
MG BCs:     Elided blocks (gridpoints):    183007 (  192066197).
MG BCs: Computational effort saved:  99.9807%.
MG BCs: Charge after coarse-graining:           -9.0010266.
MG DL_MG: Calling solver with defect correction order = 8
MG DL_MG: Solver finished
MG Hartree energy from (\int phi*rho dr):              1416.451069
MG Hartree energy from (\int eps (grad phi)^2 dr):     1415.802562
MG Discrepancy due to finite box and discretization:     -0.648507 (  -0.04578%)
MG Correction to account for finite box:                  0.459574
MG Remaining discrepancy, due to discretization:         -0.188932 (  -0.01334%)
      ideal mu1:      -0.701528152608
             Q0:  -11508.002337546437
             G0:    -144.862636802144
   RMS gradient:       0.001850252042
MG BCs: +ve charge blocks (gridpoints):     32184 (   17590023).
MG BCs: -ve charge blocks (gridpoints):      8414 (    1108869).
MG BCs:     Elided blocks (gridpoints):    183046 (  192004653).
MG BCs: Computational effort saved:  99.9807%.
MG BCs: Charge after coarse-graining:           -9.0010474.
MG DL_MG: Calling solver with defect correction order = 8
MG DL_MG: Solver finished
MG Hartree energy from (\int phi*rho dr):              1441.479867
MG Hartree energy from (\int eps (grad phi)^2 dr):     1440.849016
MG Discrepancy due to finite box and discretization:     -0.630851 (  -0.04376%)
MG Correction to account for finite box:                  0.457422
MG Remaining discrepancy, due to discretization:         -0.173429 (  -0.01203%)
     Trial step:       0.500000000000
             Q1:  -11519.494897041703
 Quadratic coef:      60.938758905806
 Linear coef   :     -72.431318401072
           Qmin:  -11529.525158077729
Quadratic minimum step length (  0.297147988003) accepted
    Initial Ne1:    7192.00000000
      Final Ne1:    7192.00000000

=================== Penalty functional idempotency correction ==================
 RMS occupancy error at iteration   1:  0.003405 (step -0.4885 Ne1=   7192.0000)
 RMS occupancy error at iteration   2:  0.000026 (step -0.5000 Ne1=   7192.0000)
            Final RMS occupancy error   :  0.000000 (Ne1=   7192.0000)
               Final occupancy bounds   : [  0.0000,  1.0000]
================================================================================

    1        -1.150800233755E+04     1.8503E-03     1.6735E-03
MG BCs: +ve charge blocks (gridpoints):     32183 (   17558152).
MG BCs: -ve charge blocks (gridpoints):      8437 (    1117245).
MG BCs:     Elided blocks (gridpoints):    183047 (  192028148).
MG BCs: Computational effort saved:  99.9807%.
MG BCs: Charge after coarse-graining:           -9.0010393.
MG DL_MG: Calling solver with defect correction order = 8
MG DL_MG: Solver finished
MG Hartree energy from (\int phi*rho dr):              1423.380577
MG Hartree energy from (\int eps (grad phi)^2 dr):     1422.743489
MG Discrepancy due to finite box and discretization:     -0.637088 (  -0.04476%)
MG Correction to account for finite box:                  0.458180
MG Remaining discrepancy, due to discretization:         -0.178907 (  -0.01257%)
      ideal mu1:      -0.743132608459
             Q0:  -11529.925812979927
             G0:     -12.147633143361
   RMS gradient:       0.000532197865
MG BCs: +ve charge blocks (gridpoints):     32186 (   17574978).
MG BCs: -ve charge blocks (gridpoints):      8426 (    1112077).
MG BCs:     Elided blocks (gridpoints):    183043 (  192016490).
MG BCs: Computational effort saved:  99.9807%.
MG BCs: Charge after coarse-graining:           -9.0010427.
MG DL_MG: Calling solver with defect correction order = 8
MG DL_MG: Solver finished
MG Hartree energy from (\int phi*rho dr):              1428.564738
MG Hartree energy from (\int eps (grad phi)^2 dr):     1427.931540
MG Discrepancy due to finite box and discretization:     -0.633197 (  -0.04432%)
MG Correction to account for finite box:                  0.457463
MG Remaining discrepancy, due to discretization:         -0.175735 (  -0.01230%)
     Trial step:       0.385452972490
             Q1:  -11532.778912582318
 Quadratic coef:       1.829241701438
 Linear coef   :      -4.682341303830
           Qmin:  -11532.922180281786
Quadratic minimum step length (  0.493325286745) accepted
    Initial Ne1:    7191.99991191
      Final Ne1:    7192.00000000

=================== Penalty functional idempotency correction ==================
 RMS occupancy error at iteration   1:  0.001824 (step -0.4930 Ne1=   7192.0000)
 RMS occupancy error at iteration   2:  0.000012 (step -0.5002 Ne1=   7192.0000)
            Final RMS occupancy error   :  0.000000 (Ne1=   7192.0000)
               Final occupancy bounds   : [  0.0000,  1.0000]
================================================================================

    2        -1.152992581298E+04     5.3220E-04     4.8136E-04    -2.1923E+01
MG BCs: +ve charge blocks (gridpoints):     32188 (   17579538).
MG BCs: -ve charge blocks (gridpoints):      8423 (    1110627).
MG BCs:     Elided blocks (gridpoints):    183040 (  192013380).
MG BCs: Computational effort saved:  99.9807%.
MG BCs: Charge after coarse-graining:           -9.0010439.
MG DL_MG: Calling solver with defect correction order = 8
MG DL_MG: Solver finished
MG Hartree energy from (\int phi*rho dr):              1430.065316
MG Hartree energy from (\int eps (grad phi)^2 dr):     1429.433131
MG Discrepancy due to finite box and discretization:     -0.632184 (  -0.04421%)
MG Correction to account for finite box:                  0.457275
MG Remaining discrepancy, due to discretization:         -0.174909 (  -0.01223%)
      ideal mu1:      -0.766167778079
             Q0:  -11532.958545067930
             G0:      -1.994256460253
   RMS gradient:       0.000215779370
MG BCs: +ve charge blocks (gridpoints):     32183 (   17578937).
MG BCs: -ve charge blocks (gridpoints):      8428 (    1111405).
MG BCs:     Elided blocks (gridpoints):    183045 (  192013203).
MG BCs: Computational effort saved:  99.9807%.
MG BCs: Charge after coarse-graining:           -9.0010437.
MG DL_MG: Calling solver with defect correction order = 8
MG DL_MG: Solver finished
MG Hartree energy from (\int phi*rho dr):              1427.904230
MG Hartree energy from (\int eps (grad phi)^2 dr):     1427.272453
MG Discrepancy due to finite box and discretization:     -0.631778 (  -0.04425%)
MG Correction to account for finite box:                  0.457096
MG Remaining discrepancy, due to discretization:         -0.174681 (  -0.01223%)
     Trial step:       0.436066162618
             Q1:  -11533.474349073018
 Quadratic coef:       0.353823756810
 Linear coef   :      -0.869627761899
           Qmin:  -11533.492887681808
Quadratic minimum step length (  0.535881542348) accepted
    Initial Ne1:    7191.99990833
      Final Ne1:    7192.00000000

=================== Penalty functional idempotency correction ==================
 RMS occupancy error at iteration   1:  0.000721 (step -0.4934 Ne1=   7192.0000)
 RMS occupancy error at iteration   2:  0.000012 (step -0.5007 Ne1=   7192.0000)
            Final RMS occupancy error   :  0.000000 (Ne1=   7192.0000)
               Final occupancy bounds   : [  0.0000,  1.0000]
================================================================================

    3        -1.153295854507E+04     2.1578E-04     1.9517E-04    -3.0327E+00
MG BCs: +ve charge blocks (gridpoints):     32188 (   17578795).
MG BCs: -ve charge blocks (gridpoints):      8427 (    1111686).
MG BCs:     Elided blocks (gridpoints):    183040 (  192013064).
MG BCs: Computational effort saved:  99.9807%.
MG BCs: Charge after coarse-graining:           -9.0010435.
MG DL_MG: Calling solver with defect correction order = 8
MG DL_MG: Solver finished
MG Hartree energy from (\int phi*rho dr):              1427.421065
MG Hartree energy from (\int eps (grad phi)^2 dr):     1426.789369
MG Discrepancy due to finite box and discretization:     -0.631696 (  -0.04425%)
MG Correction to account for finite box:                  0.457057
MG Remaining discrepancy, due to discretization:         -0.174640 (  -0.01223%)
      ideal mu1:      -0.766535823993
             Q0:  -11533.497715001577
             G0:      -0.581745682017
   RMS gradient:       0.000116697497
MG BCs: +ve charge blocks (gridpoints):     32183 (   17579769).
MG BCs: -ve charge blocks (gridpoints):      8431 (    1111556).
MG BCs:     Elided blocks (gridpoints):    183046 (  192012220).
MG BCs: Computational effort saved:  99.9807%.
MG BCs: Charge after coarse-graining:           -9.0010437.
MG DL_MG: Calling solver with defect correction order = 8
MG DL_MG: Solver finished
MG Hartree energy from (\int phi*rho dr):              1428.670929
MG Hartree energy from (\int eps (grad phi)^2 dr):     1428.039143
MG Discrepancy due to finite box and discretization:     -0.631786 (  -0.04422%)
MG Correction to account for finite box:                  0.457060
MG Remaining discrepancy, due to discretization:         -0.174726 (  -0.01223%)
     Trial step:       0.483404393639
             Q1:  -11533.651189370546
 Quadratic coef:       0.127744049698
 Linear coef   :      -0.281218418667
           Qmin:  -11533.652485026452
Quadratic minimum step length (  0.532088263514) accepted
    Initial Ne1:    7191.99980892
      Final Ne1:    7192.00000000

=================== Penalty functional idempotency correction ==================
 RMS occupancy error at iteration   1:  0.000509 (step -0.4790 Ne1=   7192.0000)
 RMS occupancy error at iteration   2:  0.000015 (step -0.5002 Ne1=   7192.0000)
            Final RMS occupancy error   :  0.000000 (Ne1=   7192.0000)
               Final occupancy bounds   : [  0.0000,  1.0000]
================================================================================

    4        -1.153349771500E+04     1.1670E-04     1.0555E-04    -5.3917E-01
MG BCs: +ve charge blocks (gridpoints):     32186 (   17579908).
MG BCs: -ve charge blocks (gridpoints):      8431 (    1111522).
MG BCs:     Elided blocks (gridpoints):    183043 (  192012115).
MG BCs: Computational effort saved:  99.9807%.
MG BCs: Charge after coarse-graining:           -9.0010437.
MG DL_MG: Calling solver with defect correction order = 8
MG DL_MG: Solver finished
MG Hartree energy from (\int phi*rho dr):              1428.798397
MG Hartree energy from (\int eps (grad phi)^2 dr):     1428.166601
MG Discrepancy due to finite box and discretization:     -0.631795 (  -0.04422%)
MG Correction to account for finite box:                  0.457060
MG Remaining discrepancy, due to discretization:         -0.174736 (  -0.01223%)
      ideal mu1:      -0.767172775074
             Q0:  -11533.653134678258
             G0:      -0.265302721269
   RMS gradient:       0.000079043571
MG BCs: +ve charge blocks (gridpoints):     32185 (   17580224).
MG BCs: -ve charge blocks (gridpoints):      8424 (    1111396).
MG BCs:     Elided blocks (gridpoints):    183044 (  192011925).
MG BCs: Computational effort saved:  99.9807%.
MG BCs: Charge after coarse-graining:           -9.0010436.
MG DL_MG: Calling solver with defect correction order = 8
MG DL_MG: Solver finished
MG Hartree energy from (\int phi*rho dr):              1429.304481
MG Hartree energy from (\int eps (grad phi)^2 dr):     1428.672461
MG Discrepancy due to finite box and discretization:     -0.632020 (  -0.04422%)
MG Correction to account for finite box:                  0.457116
MG Remaining discrepancy, due to discretization:         -0.174905 (  -0.01224%)
     Trial step:       0.507162502938
             Q1:  -11533.741062327405
 Quadratic coef:       0.046623943008
 Linear coef   :      -0.134551592155
           Qmin:  -11533.750209967173
Quadratic minimum step length (  0.731807713473) accepted
    Initial Ne1:    7191.99972376
      Final Ne1:    7192.00000000

=================== Penalty functional idempotency correction ==================
 RMS occupancy error at iteration   1:  0.001119 (step -0.4364 Ne1=   7192.0000)
 RMS occupancy error at iteration   2:  0.000045 (step -0.4994 Ne1=   7192.0000)
            Final RMS occupancy error   :  0.000000 (Ne1=   7192.0000)
               Final occupancy bounds   : [ -0.0000,  1.0000]
================================================================================

    5        -1.153365313468E+04     7.9044E-05     7.1493E-05    -1.5542E-01
MG BCs: +ve charge blocks (gridpoints):     32188 (   17580474).
MG BCs: -ve charge blocks (gridpoints):      8425 (    1111271).
MG BCs:     Elided blocks (gridpoints):    183041 (  192011800).
MG BCs: Computational effort saved:  99.9807%.
MG BCs: Charge after coarse-graining:           -9.0010435.
MG DL_MG: Calling solver with defect correction order = 8
MG DL_MG: Solver finished
MG Hartree energy from (\int phi*rho dr):              1429.532311
MG Hartree energy from (\int eps (grad phi)^2 dr):     1428.900194
MG Discrepancy due to finite box and discretization:     -0.632117 (  -0.04422%)
MG Correction to account for finite box:                  0.457135
MG Remaining discrepancy, due to discretization:         -0.174981 (  -0.01224%)
      ideal mu1:      -0.767075439300
             Q0:  -11533.748894922086
             G0:      -0.243851585451
   RMS gradient:       0.000076266873
MG BCs: +ve charge blocks (gridpoints):     32188 (   17579417).
MG BCs: -ve charge blocks (gridpoints):      8428 (    1111847).
MG BCs:     Elided blocks (gridpoints):    183040 (  192012281).
MG BCs: Computational effort saved:  99.9807%.
MG BCs: Charge after coarse-graining:           -9.0010433.
MG DL_MG: Calling solver with defect correction order = 8
MG DL_MG: Solver finished
MG Hartree energy from (\int phi*rho dr):              1427.860646
MG Hartree energy from (\int eps (grad phi)^2 dr):     1427.228621
MG Discrepancy due to finite box and discretization:     -0.632024 (  -0.04426%)
MG Correction to account for finite box:                  0.457085
MG Remaining discrepancy, due to discretization:         -0.174940 (  -0.01225%)
     Trial step:       0.609217064464
             Q1:  -11533.845549336635
 Quadratic coef:       0.051904132506
 Linear coef   :      -0.148558547054
           Qmin:  -11533.855194945018
Quadratic minimum step length (  0.871841966790) accepted
    Initial Ne1:    7192.00051570
      Final Ne1:    7192.00000000

=================== Penalty functional idempotency correction ==================
 RMS occupancy error at iteration   1:  0.003768 (step -0.3427 Ne1=   7192.0000)
 RMS occupancy error at iteration   2:  0.000231 (step -0.4953 Ne1=   7192.0000)
 RMS occupancy error at iteration   3:  0.000004 (step -0.5000 Ne1=   7192.0000)
            Final RMS occupancy error   :  0.000000 (Ne1=   7192.0000)
               Final occupancy bounds   : [  0.0000,  1.0000]
================================================================================

    6        -1.153374889492E+04     7.6267E-05     6.8981E-05    -9.5760E-02
MG BCs: +ve charge blocks (gridpoints):     32188 (   17579033).
MG BCs: -ve charge blocks (gridpoints):      8431 (    1112087).
MG BCs:     Elided blocks (gridpoints):    183040 (  192012425).
MG BCs: Computational effort saved:  99.9807%.
MG BCs: Charge after coarse-graining:           -9.0010431.
MG DL_MG: Calling solver with defect correction order = 8
MG DL_MG: Solver finished
MG Hartree energy from (\int phi*rho dr):              1427.157376
MG Hartree energy from (\int eps (grad phi)^2 dr):     1426.525385
MG Discrepancy due to finite box and discretization:     -0.631991 (  -0.04428%)
MG Correction to account for finite box:                  0.457066
MG Remaining discrepancy, due to discretization:         -0.174925 (  -0.01226%)
      ideal mu1:      -0.766388972487
             Q0:  -11533.854991927394
             G0:      -0.251047965763
   RMS gradient:       0.000077024884
MG BCs: +ve charge blocks (gridpoints):     32191 (   17580488).
MG BCs: -ve charge blocks (gridpoints):      8427 (    1111201).
MG BCs:     Elided blocks (gridpoints):    183037 (  192011856).
MG BCs: Computational effort saved:  99.9807%.
MG BCs: Charge after coarse-graining:           -9.0010437.
MG DL_MG: Calling solver with defect correction order = 8
MG DL_MG: Solver finished
MG Hartree energy from (\int phi*rho dr):              1429.163779
MG Hartree energy from (\int eps (grad phi)^2 dr):     1428.532050
MG Discrepancy due to finite box and discretization:     -0.631729 (  -0.04420%)
MG Correction to account for finite box:                  0.456980
MG Remaining discrepancy, due to discretization:         -0.174749 (  -0.01223%)
     Trial step:       0.728794212164
             Q1:  -11533.938190301531
 Quadratic coef:       0.099763930286
 Linear coef   :      -0.182962304424
           Qmin:  -11533.938877969033
Quadratic minimum step length (  0.668286965671) accepted
    Initial Ne1:    7191.99999865
      Final Ne1:    7192.00000000

=================== Penalty functional idempotency correction ==================
 RMS occupancy error at iteration   1:  0.000158 (step -0.4912 Ne1=   7192.0000)
 RMS occupancy error at iteration   2:  0.000001 (step -0.5000 Ne1=   7192.0000)
            Final RMS occupancy error   :  0.000000 (Ne1=   7192.0000)
               Final occupancy bounds   : [  0.0000,  1.0000]
================================================================================

    7        -1.153385499193E+04     7.7025E-05     6.9667E-05    -1.0610E-01
MG BCs: +ve charge blocks (gridpoints):     32189 (   17580343).
MG BCs: -ve charge blocks (gridpoints):      8427 (    1111263).
MG BCs:     Elided blocks (gridpoints):    183039 (  192011939).
MG BCs: Computational effort saved:  99.9807%.
MG BCs: Charge after coarse-graining:           -9.0010437.
MG DL_MG: Calling solver with defect correction order = 8
MG DL_MG: Solver finished
MG Hartree energy from (\int phi*rho dr):              1428.996542
MG Hartree energy from (\int eps (grad phi)^2 dr):     1428.364792
MG Discrepancy due to finite box and discretization:     -0.631750 (  -0.04421%)
MG Correction to account for finite box:                  0.456987
MG Remaining discrepancy, due to discretization:         -0.174763 (  -0.01223%)
      ideal mu1:      -0.767592268393
             Q0:  -11533.938918738975
             G0:      -0.199828938646
   RMS gradient:       0.000068739221
MG BCs: +ve charge blocks (gridpoints):     32189 (   17580246).
MG BCs: -ve charge blocks (gridpoints):      8429 (    1111237).
MG BCs:     Elided blocks (gridpoints):    183040 (  192012062).
MG BCs: Computational effort saved:  99.9807%.
MG BCs: Charge after coarse-graining:           -9.0010437.
MG DL_MG: Calling solver with defect correction order = 8
MG DL_MG: Solver finished
MG Hartree energy from (\int phi*rho dr):              1428.919950
MG Hartree energy from (\int eps (grad phi)^2 dr):     1428.288419
MG Discrepancy due to finite box and discretization:     -0.631530 (  -0.04420%)
MG Correction to account for finite box:                  0.456892
MG Remaining discrepancy, due to discretization:         -0.174639 (  -0.01222%)
     Trial step:       0.697885142875
             Q1:  -11534.020531220012
 Quadratic coef:       0.057845166360
 Linear coef   :      -0.139457647398
           Qmin:  -11534.022972587556
Quadratic minimum step length (  0.841258019491) accepted
    Initial Ne1:    7191.99999860
      Final Ne1:    7192.00000000

=================== Penalty functional idempotency correction ==================
 RMS occupancy error at iteration   1:  0.001142 (step -0.4413 Ne1=   7192.0000)
 RMS occupancy error at iteration   2:  0.000016 (step -0.4996 Ne1=   7192.0000)
            Final RMS occupancy error   :  0.000000 (Ne1=   7192.0000)
               Final occupancy bounds   : [ -0.0000,  1.0000]
================================================================================

    8        -1.153393891874E+04     6.8739E-05     6.2173E-05    -8.3927E-02
MG BCs: +ve charge blocks (gridpoints):     32191 (   17580183).
MG BCs: -ve charge blocks (gridpoints):      8431 (    1111258).
MG BCs:     Elided blocks (gridpoints):    183038 (  192012104).
MG BCs: Computational effort saved:  99.9807%.
MG BCs: Charge after coarse-graining:           -9.0010437.
MG DL_MG: Calling solver with defect correction order = 8
MG DL_MG: Solver finished
MG Hartree energy from (\int phi*rho dr):              1428.907457
MG Hartree energy from (\int eps (grad phi)^2 dr):     1428.275969
MG Discrepancy due to finite box and discretization:     -0.631488 (  -0.04419%)
MG Correction to account for finite box:                  0.456874
MG Remaining discrepancy, due to discretization:         -0.174614 (  -0.01222%)
      ideal mu1:      -0.767154193949
             Q0:  -11534.021794153727
             G0:      -0.183109214970
   RMS gradient:       0.000066210829
MG BCs: +ve charge blocks (gridpoints):     32183 (   17579413).
MG BCs: -ve charge blocks (gridpoints):      8431 (    1111695).
MG BCs:     Elided blocks (gridpoints):    183046 (  192012437).
MG BCs: Computational effort saved:  99.9807%.
MG BCs: Charge after coarse-graining:           -9.0010435.
MG DL_MG: Calling solver with defect correction order = 8
MG DL_MG: Solver finished
MG Hartree energy from (\int phi*rho dr):              1427.751242
MG Hartree energy from (\int eps (grad phi)^2 dr):     1427.119928
MG Discrepancy due to finite box and discretization:     -0.631314 (  -0.04422%)
MG Correction to account for finite box:                  0.456759
MG Remaining discrepancy, due to discretization:         -0.174555 (  -0.01223%)
     Trial step:       0.766225471469
             Q1:  -11534.088025120320
 Quadratic coef:       0.074071977977
 Linear coef   :      -0.140302944571
           Qmin:  -11534.088232626118
Quadratic minimum step length (  0.725670441024) accepted
    Initial Ne1:    7192.00015724
      Final Ne1:    7192.00000000

=================== Penalty functional idempotency correction ==================
 RMS occupancy error at iteration   1:  0.002587 (step -0.3838 Ne1=   7192.0000)
 RMS occupancy error at iteration   2:  0.000075 (step -0.4988 Ne1=   7192.0000)
 RMS occupancy error at iteration   3:  0.000000 (step -0.5000 Ne1=   7192.0000)
            Final RMS occupancy error   :  0.000000 (Ne1=   7192.0000)
               Final occupancy bounds   : [  0.0000,  1.0000]
================================================================================

    9        -1.153402179415E+04     6.6211E-05     5.9886E-05    -8.2875E-02
MG BCs: +ve charge blocks (gridpoints):     32183 (   17579459).
MG BCs: -ve charge blocks (gridpoints):      8431 (    1111669).
MG BCs:     Elided blocks (gridpoints):    183046 (  192012417).
MG BCs: Computational effort saved:  99.9807%.
MG BCs: Charge after coarse-graining:           -9.0010435.
MG DL_MG: Calling solver with defect correction order = 8
MG DL_MG: Solver finished
MG Hartree energy from (\int phi*rho dr):              1427.813387
MG Hartree energy from (\int eps (grad phi)^2 dr):     1427.182068
MG Discrepancy due to finite box and discretization:     -0.631319 (  -0.04422%)
MG Correction to account for finite box:                  0.456761
MG Remaining discrepancy, due to discretization:         -0.174558 (  -0.01223%)
      ideal mu1:      -0.766509279982
   10        -1.153409014208E+04     5.3655E-05     4.8529E-05    -6.8348E-02
Finished density kernel iterations (  10)

Writing density kernel to file "host_9221.vacuum_dkn" ... done


>>> Density kernel optimised for the current NGWF basis:
     ~~~~~~~~~~~~~~~~~~~~~~~~~~~~~~~~~~~~~~~~~~~~~~~~~~~~~~~~~~~
     Total energy                =  -1.15340901420844E+04  Eh
     Estimated bandgap           =  -3.8554E-01  Eh
     RMS occupancy error         =   1.3403E-11
     [H,K] commutator            =   4.8529E-05
     Occupancy bounds            = [  0.000:  1.000]
     ~~~~~~~~~~~~~~~~~~~~~~~~~~~~~~~~~~~~~~~~~~~~~~~~~~~~~~~~~~~




################################################################################
########################### NGWF CG iteration  001 #############################
################################################################################
****** Reciprocal space K.E. preconditioning with k_zero =  3.5000 a0^-1 *******

>>> Checking for convergence of NGWFs:   NOT CONVERGED
  ========================================================================
         NGWF RMS gradient =  1.5624E-03 >  2.0000E-06  | above tolerance
  ========================================================================

>>> Improving NGWFs using line search:
============ Calculation of NGWF S^-1 using Hotelling algorithm ================ 
         Iteration  |  Frobenius norm and Maximum abs value    (of I-S*S_n^-1)   
               1       0.19182804E+00     0.49761394E-02
               2       0.84933528E-03     0.36986636E-04
               3       0.28432859E-07     0.23878844E-08
               4       0.13040489E-12     0.66613381E-14
================================================================================
MG BCs: +ve charge blocks (gridpoints):     31647 (   17517587).
MG BCs: -ve charge blocks (gridpoints):      8445 (    1111546).
MG BCs:     Elided blocks (gridpoints):    183583 (  192074412).
MG BCs: Computational effort saved:  99.9810%.
MG BCs: Charge after coarse-graining:           -9.0010452.
MG DL_MG: Calling solver with defect correction order = 8
MG DL_MG: Solver finished
MG Hartree energy from (\int phi*rho dr):              1396.602666
MG Hartree energy from (\int eps (grad phi)^2 dr):     1395.972151
MG Discrepancy due to finite box and discretization:     -0.630515 (  -0.04515%)
MG Correction to account for finite box:                  0.456701
MG Remaining discrepancy, due to discretization:         -0.173814 (  -0.01245%)
============ Calculation of NGWF S^-1 using Hotelling algorithm ================ 
         Iteration  |  Frobenius norm and Maximum abs value    (of I-S*S_n^-1)   
               1       0.18489980E+01     0.40047598E-01
               2       0.70908805E-01     0.23787253E-02
               3       0.14131754E-03     0.98015263E-05
               4       0.10990770E-08     0.18789148E-09
               5       0.11060114E-12     0.47739590E-14
================================================================================
------------------------------- NGWF line search -------------------------------
RMS gradient                =       0.00156237166459
Trial step length           =               0.122474
Gradient along search dir.  =       -269.68134602600
Functional at step 0        =  -11534.09014208440203
Functional at step 1        =  -11564.64466294657905
Functional predicted        =  -11644.30355397330823
Selected quadratic step     =               0.817360
--------------------------- NGWF line search finished --------------------------
                                               
Writing NGWFs to file "host_9221.vacuum_tightbox_ngwfs"....  done

>>> Optimising kernel for current NGWFs:
   Initial electron number for spin 1:    7226.39182880
     Final electron number for spin 1:    7192.00000000

=================== Penalty functional idempotency correction ==================
 RMS occupancy error at iteration   1:  0.004253 (step -0.4862 Ne1=   7192.0000)
 RMS occupancy error at iteration   2:  0.000069 (step -0.5002 Ne1=   7192.0000)
            Final RMS occupancy error   :  0.000000 (Ne1=   7192.0000)
               Final occupancy bounds   : [  0.0000,  1.0000]
================================================================================

................................................................................
<<<<<<<<<<<<<< LNV (Original version) density kernel optimisation >>>>>>>>>>>>>>
~~~~~~~~~~~~~~~~~~~~~~~~~~~~~~~~~~~~~~~~~~~~~~~~~~~~~~~~~~~~~~~~~~~~~~~~~~~~~~~~
   iter  |      energy (Eh)       | rms gradient |  commutator  |   dE (Eh)
MG BCs: +ve charge blocks (gridpoints):     25206 (   17224480).
MG BCs: -ve charge blocks (gridpoints):      8589 (    1095618).
MG BCs:     Elided blocks (gridpoints):    190026 (  192383447).
MG BCs: Computational effort saved:  99.9840%.
MG BCs: Charge after coarse-graining:           -9.0006868.
MG DL_MG: Calling solver with defect correction order = 8
MG DL_MG: Solver finished
MG Hartree energy from (\int phi*rho dr):              1241.813106
MG Hartree energy from (\int eps (grad phi)^2 dr):     1241.182715
MG Discrepancy due to finite box and discretization:     -0.630391 (  -0.05076%)
MG Correction to account for finite box:                  0.456383
MG Remaining discrepancy, due to discretization:         -0.174008 (  -0.01401%)
      ideal mu1:      -0.706025026879
             Q0:  -11643.494582301471
             G0:     -10.036420487685
   RMS gradient:       0.000487014760
MG BCs: +ve charge blocks (gridpoints):     25275 (   17241940).
MG BCs: -ve charge blocks (gridpoints):      8575 (    1091817).
MG BCs:     Elided blocks (gridpoints):    189957 (  192369788).
MG BCs: Computational effort saved:  99.9839%.
MG BCs: Charge after coarse-graining:           -9.0006823.
MG DL_MG: Calling solver with defect correction order = 8
MG DL_MG: Solver finished
MG Hartree energy from (\int phi*rho dr):              1258.507729
MG Hartree energy from (\int eps (grad phi)^2 dr):     1257.871035
MG Discrepancy due to finite box and discretization:     -0.636694 (  -0.05059%)
MG Correction to account for finite box:                  0.456709
MG Remaining discrepancy, due to discretization:         -0.179984 (  -0.01430%)
     Trial step:       0.745672297866
             Q1:  -11642.541965260985
 Quadratic coef:       8.436497767885
 Linear coef   :      -7.483880727399
           Qmin:  -11645.154289690809
Quadratic minimum step length (  0.330736917883) accepted
    Initial Ne1:    7191.99961485
      Final Ne1:    7192.00000000

=================== Penalty functional idempotency correction ==================
 RMS occupancy error at iteration   1:  0.000364 (step -0.4985 Ne1=   7192.0000)
 RMS occupancy error at iteration   2:  0.000000 (step -0.5000 Ne1=   7192.0000)
            Final RMS occupancy error   :  0.000000 (Ne1=   7192.0000)
               Final occupancy bounds   : [  0.0000,  1.0000]
================================================================================

    1        -1.164349458230E+04     4.8701E-04     4.4049E-04
MG BCs: +ve charge blocks (gridpoints):     25244 (   17232318).
MG BCs: -ve charge blocks (gridpoints):      8585 (    1093979).
MG BCs:     Elided blocks (gridpoints):    189988 (  192377248).
MG BCs: Computational effort saved:  99.9839%.
MG BCs: Charge after coarse-graining:           -9.0006848.
MG DL_MG: Calling solver with defect correction order = 8
MG DL_MG: Solver finished
MG Hartree energy from (\int phi*rho dr):              1248.202150
MG Hartree energy from (\int eps (grad phi)^2 dr):     1247.569048
MG Discrepancy due to finite box and discretization:     -0.633102 (  -0.05072%)
MG Correction to account for finite box:                  0.456523
MG Remaining discrepancy, due to discretization:         -0.176579 (  -0.01415%)
      ideal mu1:      -0.712969813647
             Q0:  -11645.126341574243
             G0:      -1.003213759413
   RMS gradient:       0.000154727750
MG BCs: +ve charge blocks (gridpoints):     25246 (   17232152).
MG BCs: -ve charge blocks (gridpoints):      8586 (    1094824).
MG BCs:     Elided blocks (gridpoints):    189986 (  192376569).
MG BCs: Computational effort saved:  99.9839%.
MG BCs: Charge after coarse-graining:           -9.0006846.
MG DL_MG: Calling solver with defect correction order = 8
MG DL_MG: Solver finished
MG Hartree energy from (\int phi*rho dr):              1249.319030
MG Hartree energy from (\int eps (grad phi)^2 dr):     1248.685518
MG Discrepancy due to finite box and discretization:     -0.633512 (  -0.05071%)
MG Correction to account for finite box:                  0.456562
MG Remaining discrepancy, due to discretization:         -0.176950 (  -0.01416%)
     Trial step:       0.496609864528
             Q1:  -11645.331129330560
 Quadratic coef:       0.293418092839
 Linear coef   :      -0.498205849155
           Qmin:  -11645.337822285717
Quadratic minimum step length (  0.421606481152) accepted
    Initial Ne1:    7191.99995043
      Final Ne1:    7192.00000000

=================== Penalty functional idempotency correction ==================
 RMS occupancy error at iteration   1:  0.000146 (step -0.4993 Ne1=   7192.0000)
            Final RMS occupancy error   :  0.000000 (Ne1=   7192.0000)
               Final occupancy bounds   : [ -0.0000,  1.0000]
================================================================================

    2        -1.164512634157E+04     1.5473E-04     1.3995E-04    -1.6318E+00
MG BCs: +ve charge blocks (gridpoints):     25244 (   17232180).
MG BCs: -ve charge blocks (gridpoints):      8585 (    1094687).
MG BCs:     Elided blocks (gridpoints):    189988 (  192376678).
MG BCs: Computational effort saved:  99.9839%.
MG BCs: Charge after coarse-graining:           -9.0006846.
MG DL_MG: Calling solver with defect correction order = 8
MG DL_MG: Solver finished
MG Hartree energy from (\int phi*rho dr):              1249.150044
MG Hartree energy from (\int eps (grad phi)^2 dr):     1248.516595
MG Discrepancy due to finite box and discretization:     -0.633449 (  -0.05071%)
MG Correction to account for finite box:                  0.456557
MG Remaining discrepancy, due to discretization:         -0.176892 (  -0.01416%)
      ideal mu1:      -0.713848370272
             Q0:  -11645.338283184799
             G0:      -0.155372737415
   RMS gradient:       0.000060529986
MG BCs: +ve charge blocks (gridpoints):     25245 (   17231535).
MG BCs: -ve charge blocks (gridpoints):      8587 (    1095062).
MG BCs:     Elided blocks (gridpoints):    189987 (  192376948).
MG BCs: Computational effort saved:  99.9839%.
MG BCs: Charge after coarse-graining:           -9.0006846.
MG DL_MG: Calling solver with defect correction order = 8
MG DL_MG: Solver finished
MG Hartree energy from (\int phi*rho dr):              1248.667181
MG Hartree energy from (\int eps (grad phi)^2 dr):     1248.033754
MG Discrepancy due to finite box and discretization:     -0.633426 (  -0.05073%)
MG Correction to account for finite box:                  0.456551
MG Remaining discrepancy, due to discretization:         -0.176876 (  -0.01417%)
     Trial step:       0.457573969418
             Q1:  -11645.386465007672
 Quadratic coef:       0.022912697326
 Linear coef   :      -0.071094520198
           Qmin:  -11645.393431982104
Quadratic minimum step length (  0.709890270614) accepted
    Initial Ne1:    7192.00117506
      Final Ne1:    7192.00000000

=================== Penalty functional idempotency correction ==================
 RMS occupancy error at iteration   1:  0.000111 (step -0.4956 Ne1=   7192.0000)
 RMS occupancy error at iteration   2:  0.000001 (step -0.5000 Ne1=   7192.0000)
            Final RMS occupancy error   :  0.000000 (Ne1=   7192.0000)
               Final occupancy bounds   : [  0.0000,  1.0000]
================================================================================

    3        -1.164533828318E+04     6.0530E-05     5.4748E-05    -2.1194E-01
MG BCs: +ve charge blocks (gridpoints):     25246 (   17231183).
MG BCs: -ve charge blocks (gridpoints):      8586 (    1095300).
MG BCs:     Elided blocks (gridpoints):    189986 (  192377062).
MG BCs: Computational effort saved:  99.9839%.
MG BCs: Charge after coarse-graining:           -9.0006846.
MG DL_MG: Calling solver with defect correction order = 8
MG DL_MG: Solver finished
MG Hartree energy from (\int phi*rho dr):              1248.400964
MG Hartree energy from (\int eps (grad phi)^2 dr):     1247.767551
MG Discrepancy due to finite box and discretization:     -0.633414 (  -0.05074%)
MG Correction to account for finite box:                  0.456546
MG Remaining discrepancy, due to discretization:         -0.176868 (  -0.01417%)
      ideal mu1:      -0.713052081447
             Q0:  -11645.393511882750
             G0:      -0.053883669284
   RMS gradient:       0.000035641604
MG BCs: +ve charge blocks (gridpoints):     25245 (   17231127).
MG BCs: -ve charge blocks (gridpoints):      8585 (    1095282).
MG BCs:     Elided blocks (gridpoints):    189987 (  192377136).
MG BCs: Computational effort saved:  99.9839%.
MG BCs: Charge after coarse-graining:           -9.0006846.
MG DL_MG: Calling solver with defect correction order = 8
MG DL_MG: Solver finished
MG Hartree energy from (\int phi*rho dr):              1248.417754
MG Hartree energy from (\int eps (grad phi)^2 dr):     1247.784510
MG Discrepancy due to finite box and discretization:     -0.633245 (  -0.05072%)
MG Correction to account for finite box:                  0.456494
MG Remaining discrepancy, due to discretization:         -0.176751 (  -0.01416%)
     Trial step:       0.569936232377
             Q1:  -11645.411474960158
 Quadratic coef:       0.012747178051
 Linear coef   :      -0.030710255458
           Qmin:  -11645.412008521507
Quadratic minimum step length (  0.686539688303) accepted
    Initial Ne1:    7192.00039395
      Final Ne1:    7192.00000000

=================== Penalty functional idempotency correction ==================
 RMS occupancy error at iteration   1:  0.000143 (step -0.4899 Ne1=   7192.0000)
 RMS occupancy error at iteration   2:  0.000001 (step -0.5000 Ne1=   7192.0000)
            Final RMS occupancy error   :  0.000000 (Ne1=   7192.0000)
               Final occupancy bounds   : [  0.0000,  1.0000]
================================================================================

    4        -1.164539351188E+04     3.5642E-05     3.2237E-05    -5.5229E-02
MG BCs: +ve charge blocks (gridpoints):     25245 (   17231093).
MG BCs: -ve charge blocks (gridpoints):      8585 (    1095297).
MG BCs:     Elided blocks (gridpoints):    189987 (  192377155).
MG BCs: Computational effort saved:  99.9839%.
MG BCs: Charge after coarse-graining:           -9.0006846.
MG DL_MG: Calling solver with defect correction order = 8
MG DL_MG: Solver finished
MG Hartree energy from (\int phi*rho dr):              1248.421783
MG Hartree energy from (\int eps (grad phi)^2 dr):     1247.788573
MG Discrepancy due to finite box and discretization:     -0.633210 (  -0.05072%)
MG Correction to account for finite box:                  0.456483
MG Remaining discrepancy, due to discretization:         -0.176727 (  -0.01416%)
      ideal mu1:      -0.713172496455
             Q0:  -11645.412006204715
             G0:      -0.041409047222
   RMS gradient:       0.000031276253
MG BCs: +ve charge blocks (gridpoints):     25244 (   17232075).
MG BCs: -ve charge blocks (gridpoints):      8586 (    1094935).
MG BCs:     Elided blocks (gridpoints):    189988 (  192376535).
MG BCs: Computational effort saved:  99.9839%.
MG BCs: Charge after coarse-graining:           -9.0006845.
MG DL_MG: Calling solver with defect correction order = 8
MG DL_MG: Solver finished
MG Hartree energy from (\int phi*rho dr):              1249.105624
MG Hartree energy from (\int eps (grad phi)^2 dr):     1248.472587
MG Discrepancy due to finite box and discretization:     -0.633037 (  -0.05068%)
MG Correction to account for finite box:                  0.456373
MG Remaining discrepancy, due to discretization:         -0.176664 (  -0.01414%)
     Trial step:       0.625526852604
             Q1:  -11645.428251406527
 Quadratic coef:       0.009657269165
 Linear coef   :      -0.025902470978
           Qmin:  -11645.429374934716
Quadratic minimum step length (  0.838885758899) accepted
    Initial Ne1:    7192.00037054
      Final Ne1:    7192.00000000

=================== Penalty functional idempotency correction ==================
 RMS occupancy error at iteration   1:  0.000457 (step -0.4670 Ne1=   7192.0000)
 RMS occupancy error at iteration   2:  0.000007 (step -0.4997 Ne1=   7192.0000)
            Final RMS occupancy error   :  0.000000 (Ne1=   7192.0000)
               Final occupancy bounds   : [ -0.0000,  1.0000]
================================================================================

    5        -1.164541200620E+04     3.1276E-05     2.8289E-05    -1.8494E-02
MG BCs: +ve charge blocks (gridpoints):     25244 (   17232445).
MG BCs: -ve charge blocks (gridpoints):      8586 (    1094773).
MG BCs:     Elided blocks (gridpoints):    189988 (  192376327).
MG BCs: Computational effort saved:  99.9839%.
MG BCs: Charge after coarse-graining:           -9.0006844.
MG DL_MG: Calling solver with defect correction order = 8
MG DL_MG: Solver finished
MG Hartree energy from (\int phi*rho dr):              1249.339960
MG Hartree energy from (\int eps (grad phi)^2 dr):     1248.706982
MG Discrepancy due to finite box and discretization:     -0.632978 (  -0.05066%)
MG Correction to account for finite box:                  0.456335
MG Remaining discrepancy, due to discretization:         -0.176643 (  -0.01414%)
      ideal mu1:      -0.714321566987
             Q0:  -11645.429325549747
             G0:      -0.037104818330
   RMS gradient:       0.000029549973
MG BCs: +ve charge blocks (gridpoints):     25244 (   17232464).
MG BCs: -ve charge blocks (gridpoints):      8588 (    1094866).
MG BCs:     Elided blocks (gridpoints):    189988 (  192376215).
MG BCs: Computational effort saved:  99.9839%.
MG BCs: Charge after coarse-graining:           -9.0006844.
MG DL_MG: Calling solver with defect correction order = 8
MG DL_MG: Solver finished
MG Hartree energy from (\int phi*rho dr):              1249.160071
MG Hartree energy from (\int eps (grad phi)^2 dr):     1248.527267
MG Discrepancy due to finite box and discretization:     -0.632804 (  -0.05066%)
MG Correction to account for finite box:                  0.456161
MG Remaining discrepancy, due to discretization:         -0.176643 (  -0.01414%)
     Trial step:       0.724393241588
             Q1:  -11645.446745572961
 Quadratic coef:       0.009458456414
 Linear coef   :      -0.026878479629
           Qmin:  -11645.448420966472
Quadratic minimum step length (  1.029268843411) accepted
    Initial Ne1:    7192.00046428
      Final Ne1:    7192.00000000

=================== Penalty functional idempotency correction ==================
 RMS occupancy error at iteration   1:  0.001312 (step -0.4166 Ne1=   7192.0000)
 RMS occupancy error at iteration   2:  0.000045 (step -0.4973 Ne1=   7192.0000)
            Final RMS occupancy error   :  0.000000 (Ne1=   7192.0000)
               Final occupancy bounds   : [ -0.0000,  1.0000]
================================================================================

    6        -1.164542932555E+04     2.9550E-05     2.6727E-05    -1.7319E-02
MG BCs: +ve charge blocks (gridpoints):     25245 (   17232441).
MG BCs: -ve charge blocks (gridpoints):      8588 (    1094924).
MG BCs:     Elided blocks (gridpoints):    189987 (  192376180).
MG BCs: Computational effort saved:  99.9839%.
MG BCs: Charge after coarse-graining:           -9.0006844.
MG DL_MG: Calling solver with defect correction order = 8
MG DL_MG: Solver finished
MG Hartree energy from (\int phi*rho dr):              1249.085724
MG Hartree energy from (\int eps (grad phi)^2 dr):     1248.452986
MG Discrepancy due to finite box and discretization:     -0.632738 (  -0.05066%)
MG Correction to account for finite box:                  0.456095
MG Remaining discrepancy, due to discretization:         -0.176643 (  -0.01414%)
      ideal mu1:      -0.714432736628
             Q0:  -11645.448697741376
             G0:      -0.036930354345
   RMS gradient:       0.000029542309
MG BCs: +ve charge blocks (gridpoints):     25246 (   17231054).
MG BCs: -ve charge blocks (gridpoints):      8588 (    1095312).
MG BCs:     Elided blocks (gridpoints):    189986 (  192377179).
MG BCs: Computational effort saved:  99.9839%.
MG BCs: Charge after coarse-graining:           -9.0006846.
MG DL_MG: Calling solver with defect correction order = 8
MG DL_MG: Solver finished
MG Hartree energy from (\int phi*rho dr):              1248.498898
MG Hartree energy from (\int eps (grad phi)^2 dr):     1247.866113
MG Discrepancy due to finite box and discretization:     -0.632785 (  -0.05068%)
MG Correction to account for finite box:                  0.456085
MG Remaining discrepancy, due to discretization:         -0.176701 (  -0.01415%)
     Trial step:       0.863478658650
             Q1:  -11645.455098205479
 Quadratic coef:       0.025488108731
 Linear coef   :      -0.031888572833
           Qmin:  -11645.458671814857
Quadratic minimum step length (  0.540155850457) accepted
    Initial Ne1:    7192.00103882
      Final Ne1:    7192.00000000

=================== Penalty functional idempotency correction ==================
 RMS occupancy error at iteration   1:  0.000011 (step -0.4994 Ne1=   7192.0000)
            Final RMS occupancy error   :  0.000000 (Ne1=   7192.0000)
               Final occupancy bounds   : [ -0.0000,  1.0000]
================================================================================

    7        -1.164544869774E+04     2.9542E-05     2.6720E-05    -1.9372E-02
MG BCs: +ve charge blocks (gridpoints):     25245 (   17231583).
MG BCs: -ve charge blocks (gridpoints):      8588 (    1095140).
MG BCs:     Elided blocks (gridpoints):    189987 (  192376822).
MG BCs: Computational effort saved:  99.9839%.
MG BCs: Charge after coarse-graining:           -9.0006845.
MG DL_MG: Calling solver with defect correction order = 8
MG DL_MG: Solver finished
MG Hartree energy from (\int phi*rho dr):              1248.716943
MG Hartree energy from (\int eps (grad phi)^2 dr):     1248.084175
MG Discrepancy due to finite box and discretization:     -0.632768 (  -0.05067%)
MG Correction to account for finite box:                  0.456089
MG Remaining discrepancy, due to discretization:         -0.176679 (  -0.01415%)
      ideal mu1:      -0.713976010825
             Q0:  -11645.458670976455
             G0:      -0.023241682620
   RMS gradient:       0.000023434529
MG BCs: +ve charge blocks (gridpoints):     25244 (   17231358).
MG BCs: -ve charge blocks (gridpoints):      8587 (    1095228).
MG BCs:     Elided blocks (gridpoints):    189988 (  192376959).
MG BCs: Computational effort saved:  99.9839%.
MG BCs: Charge after coarse-graining:           -9.0006846.
MG DL_MG: Calling solver with defect correction order = 8
MG DL_MG: Solver finished
MG Hartree energy from (\int phi*rho dr):              1248.531875
MG Hartree energy from (\int eps (grad phi)^2 dr):     1247.899109
MG Discrepancy due to finite box and discretization:     -0.632766 (  -0.05068%)
MG Correction to account for finite box:                  0.456037
[...]
MG DL_MG: Solver finished
MG Hartree energy from (\int phi*rho dr):              1207.354379
MG Hartree energy from (\int eps (grad phi)^2 dr):     1207.172267
MG Discrepancy due to finite box and discretization:     -0.182111 (  -0.01508%)
MG Correction to account for finite box:                  0.006160
MG Remaining discrepancy, due to discretization:         -0.175951 (  -0.01457%)
     Trial step:       0.815833774631
             Q1:  -11679.667806868907
 Quadratic coef:       0.000000006703
 Linear coef   :      -0.000000009496
           Qmin:  -11679.667806869476
Quadratic minimum step length (  0.577897622715) accepted
    Initial Ne1:    7192.00000000
      Final Ne1:    7192.00000000

=================== Penalty functional idempotency correction ==================
 RMS occupancy error at iteration   1:  0.000000 (step -0.5000 Ne1=   7192.0000)
            Final RMS occupancy error   :  0.000000 (Ne1=   7192.0000)
               Final occupancy bounds   : [ -0.0000,  1.0000]
================================================================================

    7        -1.167966780687E+04     1.6585E-08     1.5001E-08    -5.4715E-09

Reusing previously generated solute cavity.
MG BCs: +ve charge blocks (gridpoints):     29527 (   19490881).
MG BCs: -ve charge blocks (gridpoints):      8570 (    1063801).
MG BCs:     Elided blocks (gridpoints):    185705 (  190148863).
MG BCs: Computational effort saved:  99.9819%.
MG BCs: Charge after coarse-graining:           -9.0009983.
MG DL_MG: Calling solver with defect correction order = 8
MG DL_MG: Solver finished
MG Hartree energy from (\int phi*rho dr):              1207.354317
MG Hartree energy from (\int eps (grad phi)^2 dr):     1207.172205
MG Discrepancy due to finite box and discretization:     -0.182111 (  -0.01508%)
MG Correction to account for finite box:                  0.006160
MG Remaining discrepancy, due to discretization:         -0.175951 (  -0.01457%)
      ideal mu1:      -0.482408763955
             Q0:  -11679.667806869838
             G0:      -0.000000004048
   RMS gradient:       0.000000011190

Reusing previously generated solute cavity.
MG BCs: +ve charge blocks (gridpoints):     29527 (   19490881).
MG BCs: -ve charge blocks (gridpoints):      8570 (    1063801).
MG BCs:     Elided blocks (gridpoints):    185705 (  190148863).
MG BCs: Computational effort saved:  99.9819%.
MG BCs: Charge after coarse-graining:           -9.0009983.
MG DL_MG: Calling solver with defect correction order = 8
MG DL_MG: Solver finished
MG Hartree energy from (\int phi*rho dr):              1207.354334
MG Hartree energy from (\int eps (grad phi)^2 dr):     1207.172222
MG Discrepancy due to finite box and discretization:     -0.182111 (  -0.01508%)
MG Correction to account for finite box:                  0.006160
MG Remaining discrepancy, due to discretization:         -0.175951 (  -0.01457%)
     Trial step:       0.686635564830
             Q1:  -11679.667806870071
 Quadratic coef:       0.000000002547
 Linear coef   :      -0.000000002780
           Qmin:  -11679.667806870597
Quadratic minimum step length (  0.374758086090) accepted
    Initial Ne1:    7192.00000000
      Final Ne1:    7192.00000000

=================== Penalty functional idempotency correction ==================
 RMS occupancy error at iteration   1:  0.000000 (step -0.5000 Ne1=   7192.0000)
            Final RMS occupancy error   :  0.000000 (Ne1=   7192.0000)
               Final occupancy bounds   : [ -0.0000,  1.0000]
================================================================================

    8        -1.167966780687E+04     1.1190E-08     1.0121E-08    -3.7253E-09

Reusing previously generated solute cavity.
MG BCs: +ve charge blocks (gridpoints):     29527 (   19490882).
MG BCs: -ve charge blocks (gridpoints):      8570 (    1063801).
MG BCs:     Elided blocks (gridpoints):    185705 (  190148862).
MG BCs: Computational effort saved:  99.9819%.
MG BCs: Charge after coarse-graining:           -9.0009983.
MG DL_MG: Calling solver with defect correction order = 8
MG DL_MG: Solver finished
MG Hartree energy from (\int phi*rho dr):              1207.354326
MG Hartree energy from (\int eps (grad phi)^2 dr):     1207.172215
MG Discrepancy due to finite box and discretization:     -0.182111 (  -0.01508%)
MG Correction to account for finite box:                  0.006160
MG Remaining discrepancy, due to discretization:         -0.175951 (  -0.01457%)
      ideal mu1:      -0.482408747926
             Q0:  -11679.667806870304
             G0:      -0.000000003011
   RMS gradient:       0.000000007144

Reusing previously generated solute cavity.
MG BCs: +ve charge blocks (gridpoints):     29527 (   19490880).
MG BCs: -ve charge blocks (gridpoints):      8570 (    1063801).
MG BCs:     Elided blocks (gridpoints):    185705 (  190148864).
MG BCs: Computational effort saved:  99.9819%.
MG BCs: Charge after coarse-graining:           -9.0009983.
MG DL_MG: Calling solver with defect correction order = 8
MG DL_MG: Solver finished
MG Hartree energy from (\int phi*rho dr):              1207.354283
MG Hartree energy from (\int eps (grad phi)^2 dr):     1207.172171
MG Discrepancy due to finite box and discretization:     -0.182111 (  -0.01508%)
MG Correction to account for finite box:                  0.006160
MG Remaining discrepancy, due to discretization:         -0.175951 (  -0.01457%)
     Trial step:       0.507269386142
             Q1:  -11679.667806870420
 Quadratic coef:       0.000000001412
 Linear coef   :      -0.000000001527
           Qmin:  -11679.667806870717
Quadratic minimum step length (  0.274432705110) accepted
    Initial Ne1:    7192.00000000
      Final Ne1:    7192.00000000

=================== Penalty functional idempotency correction ==================
 RMS occupancy error at iteration   1:  0.000000 (step -0.5000 Ne1=   7192.0000)
            Final RMS occupancy error   :  0.000000 (Ne1=   7192.0000)
               Final occupancy bounds   : [  0.0000,  1.0000]
================================================================================

    9        -1.167966780687E+04     7.1435E-09     6.4612E-09    -4.6566E-10

Reusing previously generated solute cavity.
MG BCs: +ve charge blocks (gridpoints):     29527 (   19490881).
MG BCs: -ve charge blocks (gridpoints):      8570 (    1063801).
MG BCs:     Elided blocks (gridpoints):    185705 (  190148863).
MG BCs: Computational effort saved:  99.9819%.
MG BCs: Charge after coarse-graining:           -9.0009983.
MG DL_MG: Calling solver with defect correction order = 8
MG DL_MG: Solver finished
MG Hartree energy from (\int phi*rho dr):              1207.354303
MG Hartree energy from (\int eps (grad phi)^2 dr):     1207.172191
MG Discrepancy due to finite box and discretization:     -0.182111 (  -0.01508%)
MG Correction to account for finite box:                  0.006160
MG Remaining discrepancy, due to discretization:         -0.175951 (  -0.01457%)
      ideal mu1:      -0.482408723962
   10        -1.167966780687E+04     4.9075E-09     4.4387E-09    -2.3283E-10
Finished density kernel iterations (  10)

Writing density kernel to file "host_9221.dkn" ... done


>>> Density kernel optimised for the current NGWF basis:
     ~~~~~~~~~~~~~~~~~~~~~~~~~~~~~~~~~~~~~~~~~~~~~~~~~~~~~~~~~~~
     Total energy                =  -1.16796678068705E+04  Eh
     Estimated bandgap           =   8.8376E-02  Eh
     RMS occupancy error         =   3.5735E-16
     [H,K] commutator            =   4.4387E-09
     Occupancy bounds            = [  0.000:  1.000]
     ~~~~~~~~~~~~~~~~~~~~~~~~~~~~~~~~~~~~~~~~~~~~~~~~~~~~~~~~~~~




################################################################################
########################### NGWF CG iteration  004 #############################
################################################################################
****** Reciprocal space K.E. preconditioning with k_zero =  3.5000 a0^-1 *******

>>> Checking for convergence of NGWFs: 
           ........................................................
           |         *** NGWF optimisation converged ***          |
           | RMS NGWF gradient =    0.00000196947503              |
           | Criteria satisfied:                                  |
           | -> RMS NGWF gradient lower than set threshold.       |
           ========================================================

Reusing previously generated solute cavity.
MG BCs: +ve charge blocks (gridpoints):     29527 (   19490881).
MG BCs: -ve charge blocks (gridpoints):      8570 (    1063801).
MG BCs:     Elided blocks (gridpoints):    185705 (  190148863).
MG BCs: Computational effort saved:  99.9819%.
MG BCs: Charge after coarse-graining:           -9.0009983.
MG DL_MG: Calling solver with defect correction order = 8
MG DL_MG: Solver finished
MG Hartree energy from (\int phi*rho dr):              1207.354303
MG Hartree energy from (\int eps (grad phi)^2 dr):     1207.172191
MG Discrepancy due to finite box and discretization:     -0.182111 (  -0.01508%)
MG Correction to account for finite box:                  0.006160
MG Remaining discrepancy, due to discretization:         -0.175951 (  -0.01457%)

================================================================================
           ---------------- ENERGY COMPONENTS (Eh) ----------------
           | Kinetic                    :     8534.77930552851467 |
           | Pseudo. (local,OBC,corr'd) :    -5054.79226070993082 |
           | Pseudopotential (non-local):     1403.13365321604533 |
           | Hartree (molecular)        :     1207.35430262192835 |
           | Exchange-correlation       :    -3358.48631738535732 |
           | Ion-ion (open BC)          :   817005.12095683836378 |
           | Dispersion Correction      :       -3.25579077256273 |
           | Smeared ion non-self corr. :  -816957.00635680090636 |
           | Smeared ion self corr.     :   -14457.16956389741972 |
           | Solvent cavitation energy  :        2.32772210538991 |
           | Solute-solvent dis-rep en. :       -1.67345761461744 |
           | Total                      :   -11679.66780687052960 |
           --------------------------------------------------------
           ------ LOCAL ENERGY COMPONENTS FROM MATRIX TRACES ------
           | Pseudopotential (local)    :    -5054.79226070991172 |
           | Hartree                    :    -1995.06779404575946 |
           --------------------------------------------------------
           Integrated density           :     7191.99999999781539
           Integrated density tr(KS)    :     7191.99999999999909
================================================================================


                        <<<<< CALCULATION SUMMARY >>>>>                         
|ITER|    RMS GRADIENT   |     TOTAL ENERGY    |   step   |     Epredicted              
   0     0.00003975541679 -11679.60397594945971   0.630088 -11679.65898654595730        
   1     0.00000992186798 -11679.66721235972364   0.090690 -11679.66770553038623        
   2     0.00000439604424 -11679.66778646491002   0.016699 -11679.66780429100254        
   3     0.00000196947503 -11679.66780687053688  <-- CG                                 

=================== Finished the calculation in solvent ========================
= Adjusting the following parameters: 
= read_denskern: F
= read_tightbox_ngwfs: F
= maxit_pen: 0 (restored to user-specified value)
= restart read filename prefix: ""
= restart write filename prefix: ""
================================================================================

================================================================================
IS: Calculation in solvent completed (NGWFs converged).      

Individual components of total energy in solvent:     hartree           kcal/mol
- Usual non-electrostatic DFT terms:    -12887.67637398323859    -8087138.847882
- Electrostatic fixed charge energy:      1207.35430262192835      757626.247009
- Apolar cavitation energy:                  2.32772210538991        1460.667642
- Apolar dispersion-repulsion energy:       -1.67345761461744       -1050.110485
 -------------------------------------------------------------------------------
- Total energy in solvent:              -11679.66780687053688    -7329102.043715

Components of total energy in solvent:                hartree           kcal/mol
- Usual non-electrostatic DFT terms:    -12887.67637398323859    -8087138.847882
- Electrostatic energy:                   1207.35430262192835      757626.247009
- Apolar energy terms:                       0.65426449077247         410.557158
 -------------------------------------------------------------------------------
- Total energy in solvent:              -11679.66780687053688    -7329102.043715

Calculation of free energy of solvation:              hartree           kcal/mol
- Total energy in solvent:         (+)  -11679.66780687053688    -7329102.043715
- Total energy in vacuum:          (-)  -11675.84629311878234    -7326704.007683
 -------------------------------------------------------------------------------
- Total free energy of solvation:           -3.82151375175454       -2398.036032

Components of polar term in f.e. of solvation:        hartree           kcal/mol
- Electrostatic:                            -4.64191373651056       -2912.844784
- Change in nonelectrostatic DFT terms:      0.16613549398244         104.251594
 -------------------------------------------------------------------------------
- Polar term in f.e. of solvation:          -4.47577824252812       -2808.593190

Components of free energy of solvation:               hartree           kcal/mol
- Polar term in f.e. of solvation: (+)      -4.47577824252812       -2808.593190
- Apolar (cavitation, dis., rep.): (+)       0.65426449077247         410.557158
 -------------------------------------------------------------------------------
- Total free energy of solvation:           -3.82151375175565       -2398.036032
================================================================================


------------------------------ TIMING INFORMATION ------------------------------
AVERAGE TIME:   29369.611s on     40 node(s)                                    
TOTAL TIME:     29369.612s on     40 node(s)                                    
================= AVERAGE TIMINGS FROM ALL NODES (CUMULATIVE) ==================
|| TAG                                    #calls    cpu time   %total  Gflops ||
|| work_imbalance                       :     1        0.00s   0.000%  ------ ||
|| parallel_prepare_fd_halos_request    :  1947        0.02s   0.000%  ------ ||
|| sparse_set_to_garbage                :   182        0.04s   0.000%  ------ ||
|| parallel_prepare_fd_halos_satisfy    :  1947        0.06s   0.000%  ------ ||
|| parallel_prepare_fd_halos_alloc      :  1947        0.06s   0.000%  ------ ||
|| ngwfs_initialise_from_radial         :     1        0.17s   0.001%  ------ ||
|| basis_extract_function_from_box      :  5366        0.18s   0.001%  ------ ||
|| restart_ngwfs_tightbox_input         :     1        0.98s   0.003%  ------ ||
|| pseudopotentials_nonlocal_mat        :    31        2.43s   0.008%  ------ ||
|| parallel_prepare_fd_halos_comms_imbal:  1947        3.51s   0.012%  ------ ||
|| openbc_locps_radial                  :     1        4.54s   0.015%  ------ ||
|| density_init_guess_real              :     1        5.36s   0.018%  ------ ||
|| restart_kernel_read                  :     1        5.85s   0.020%  ------ ||
|| parallel_prepare_fd_halos_clear      :  1947       15.02s   0.051%  ------ ||
|| sparse_init                          :     2       22.32s   0.076%  ------ ||
|| projectors_func_ovlp_box             :    31       24.88s   0.085%  ------ ||
|| parallel_prepare_fd_halos_comms_wait :  1947       26.54s   0.090%  ------ ||
|| function_ops_brappd_ketppd           :    31       27.10s   0.092%  ------ ||
|| projectors_init_fftbox_recip         :   207       29.45s   0.100%  ------ ||
|| restart_kernel_write                 :    17       30.96s   0.105%  ------ ||
|| parallel_prepare_fd_halos            :  1947       45.22s   0.154%  ------ ||
|| palser_mano_kernel_optimise          :     1       54.37s   0.185%  ------ ||
|| fourier_apply_box_pair               :  7734       59.87s   0.204% 565.677 ||
|| basis_copy_function_to_box           : 87329       60.28s   0.205%  ------ ||
|| pseudo_make_structure_factor         :     2       63.89s   0.218%  ------ ||
|| ngwf_gradient_coeffs                 :    16       64.91s   0.221%  ------ ||
|| sparse_embed_hotelling_invert_embed  :    31       98.40s   0.335%  ------ ||
|| finite_difference_derivative         :  1947      120.65s   0.411%  ------ ||
|| restart_ngwfs_tightbox_output        :    14      123.97s   0.422%  ------ ||
|| integrals_kinetic                    :    31      170.69s   0.581%  ------ ||
|| openbc_locps_on_grid                 :     2      208.87s   0.711%  ------ ||
|| projectors_gradient_batch            :   176      234.01s   0.797%  ------ ||
|| fourier_apply_cell_forward           :  1297      239.32s   0.815%  80.921 ||
|| basis_dot_function_with_box          : 13.21M     251.03s   0.855%  ------ ||
|| fourier_apply_cell_backward          :  1299      253.19s   0.862%  76.606 ||
|| sparse_trace                         :  5608      262.39s   0.893%  ------ ||
|| kernel_purify                        :   495      361.25s   1.230%  ------ ||
|| hamiltonian_energy_components        :     4      466.92s   1.590%  ------ ||
|| basis_add_function_to_box            : 27.45M     508.90s   1.733%  ------ ||
|| xc_energy_potential                  :   324      573.55s   1.953%  ------ ||
|| lnv_gradient_norm                    :   160      577.53s   1.966%  ------ ||
|| kernel_fix                           :   160      732.28s   2.493%  ------ ||
|| ngwf_gradient_build_batch            :   176      860.43s   2.930%  ------ ||
|| integrals_locpot_mat_els_batch       :  1859      949.50s   3.233%  ------ ||
|| cell_grid_deposit_box_real           : 54660      959.05s   3.265%  ------ ||
|| cell_grid_extract_box_real           : 51060     1062.53s   3.618%  ------ ||
|| ngwf_gradient_batch                  :   176     1159.34s   3.947%  ------ ||
|| density_batch_row_sums               :  3553     1169.12s   3.981%  ------ ||
|| ngwf_gradient_lnv                    :    16     1330.99s   4.532%  ------ ||
|| density_fftbox_deposit_to_cell       : 52649     1667.08s   5.676%  ------ ||
|| sparse_product                       :  6845     2299.31s   7.829%  ------ ||
|| multigrid_prepare_bound_cond         :   324     2639.25s   8.986%  ------ ||
|| potential_apply_to_ngwf_batch        :  1859     3669.77s  12.495%  ------ ||
|| fourier_apply_box                    : 182.0k    4083.10s  13.902% 945.119 ||
|| density_fftbox_interpolate_multiply  : 52649     4174.88s  14.215%  ------ ||
|| integrals_locpot_dbl_grid            :   169     4634.02s  15.778%  ------ ||
|| density_batch_interp_deposit         :  3553     6695.47s  22.797%  ------ ||
|| dl_mg_solver_calls                   :   324     7535.48s  25.657%  ------ ||
|| density_on_dbl_grid                  :   323     8324.91s  28.345%  ------ ||
|| multigrid_calculate_hartree          :   324    10337.91s  35.199%  ------ ||
|| hamiltonian_lhxc_calculate           :   319    19249.07s  65.541%  ------ ||
|| lnv_denskernel_optimise_cg           :    16    25202.51s  85.812%  ------ ||
|| ngwf_cg_optimise                     :     2    28489.82s  97.004%  ------ ||
|| total_time                           :     1    29369.61s 100.000%  ------ ||
================================================================================
Overhead of generating timer report: 
- 0 ms averaging over threads,
- 16 ms ensuring consistency across MPI ranks,
- 2 ms printing in order.

Job completed: 04-05-2020 08:53 (+0100)

