 +---------------------------------------------------------------+
 |                                                               |
 |        ####### #     # ####### ####### ####### ######         |
 |        #     # ##    # #          #    #       #     #        |
 |        #     # # #   # #          #    #       #     #        |
 |        #     # #  #  # #####      #    #####   ######         |
 |        #     # #   # # #          #    #       #              |
 |        #     # #    ## #          #    #       #              |
 |        ####### #     # #######    #    ####### #              |
 |                                                               |
 |        Linear-Scaling Ab Initio Total Energy Program          |
 |                                                               |
 |          Release for academic collaborators of ODG            |
 |                                             Version 5.3.2.6.  |
 |                                                               |
 +---------------------------------------------------------------+
 |                                                               |
 |  Authors:                                                     |
 |  Jacek Dziedzic, Peter D. Haynes, Nicholas D. M. Hine,        |
 |  Arash. A. Mostofi, Mike C. Payne and Chris-Kriton Skylaris   |
 |                                                               |
 |  Contributors:                                                |
 |  J. Aarons, L. Andrinopoulos, P. W. Avraam, R. A. Bell,       |
 |  A. Bhandari, G. A. Bramley, R. J. Charlton, S. J. Clark,     |
 |  R. J. Clements, G. C. Constantinescu, F. Corsetti,           |
 |  N. Corsini, O. Dieguez, S. M. M. Dubois, K. K. B. Duff,      |
 |  J. M. Escartin, A. Greco, H. Helal, Q. O. Hill, L. P. Lee,   |
 |  J.-H. Li, E. B. Linscott, G. Moynihan, D. D. O`Regan,        |
 |  O. K. Okan, M. J. S. Phipps, C. J. Pickard,                  |
 |  J. C. A. Prentice, M. I. J. Probert, L. E. Ratcliff,         |
 |  M. Robinson, A. Ruiz Serrano, J. S. Spencer, E. W. Tait,     |
 |  G. Teobaldi, D. Turban, V. Vitale, K. A. Wilkinson,          |
 |  C. Weber, J. C. Womack, N. Yeung and T. J. Zuehlsdorff       |
 |                                                               |
 |                                   Copyright (c) 2004-2019     |
 |                                                               |
 |  Please cite:                                                 |
 |  "Introducing ONETEP: Linear-scaling density functional       |
 |   simulations on parallel computers".                         |
 |   C.-K. Skylaris, P. D. Haynes, A. A. Mostofi, M. C. Payne.   |
 |   J. Chem. Phys. 122 084119 (2005).                           |
 |                                                               |
 |          in all publications arising from your use of ONETEP. |
 |                                                               |
 +---------------------------------------------------------------+
 |                                                               |
 |   ONETEP is based on developments described in the following  |
 |   publications:                                               |
 |                                                               |
 |  "Nonorthogonal generalized Wannier function pseudopotential  |
 |   plane-wave method".                                         |
 |   C.-K. Skylaris, A. A. Mostofi, P. D. Haynes, O. Dieguez,    |
 |   M. C. Payne.                                                |
 |   Phys. Rev. B 66 035119 (2002).                              |
 |                                                               |
 |  "Preconditioned iterative minimization for linear-scaling    |
 |   electronic structure calculations".                         |
 |   A. A. Mostofi, P. D. Haynes, C.-K. Skylaris, M. C. Payne.   |
 |   J. Chem. Phys. 119(17), pp.8842-8848 (2003).                |
 |                                                               |
 |  "Total-energy calculations on a real space grid with         |
 |   localized functions and a plane-wave basis".                |
 |   A. A. Mostofi, C.-K. Skylaris, P. D. Haynes, M. C. Payne.   |
 |   Comput. Phys. Commun. 147, pp.788-802 (2002).               |
 |                                                               |
 |  "Accurate kinetic energy evaluation in electronic structure  |
 |   calculations with localized functions on real space grids"  |
 |   C.-K. Skylaris, A. A. Mostofi, P. D. Haynes, C. J. Pickard, |
 |   M. C. Payne.                                                |
 |   Comput. Phys. Commun. 140, pp.315-322 (2001).               |
 |                                                               |
 |  "Accurate ionic forces and geometry optimization in linear-  |
 |   scaling density-functional theory with local orbitals"      |
 |   N. D. M. Hine, M. Robinson, P. D. Haynes, C.-K. Skylaris,   |
 |   M. C. Payne, and A. A. Mostofi.                             |
 |   Phys. Rev. B 83 195102 (2011).                              |
 |                                                               |
 +---------------------------------------------------------------+

Job started: 06-05-2020 06:52 (+0100)
 
Reading parameters from file "host_22901.dat" ...... done

If your calculation crashes here, before "Checking processes and threads..."
is displayed, then your stack size is insufficient.
If so, use "ulimit -s unlimited" at runtime.
You can disable this check with "check_stack_size F".

Checking processes and threads...
   Determining the default number of threads...
      No default threads set at compilation time: defaulting to 1.
      OpenMP library call suggests 4 threads.
      Hybrid MPI-OpenMP compilation detected.
      Number of MPI processes > 1.
      OMP_NUM_THREADS environment variable present and
      its value matches the one obtained from the OpenMP library call.
      Using this value as default.
      Default threads: 4
      Default applies to threads_max and threads_num_fftboxes.
      Settings in the input file override this default.
   ... done

   Running with 60 MPI processes.
   There are 6 MPI processes running on the same node as the root process.
   Each MPI process is using: 
               1 threads for simulation cell FFTs.
               1 threads for parallel FFT box operations.
               4 threads for loops over batched FFT box operations.
               4 threads in other parallel regions.
... done

Basic input checks...... done

Reading geometry and species blocks from file "host_22901.dat" ...
  <species_atomic_set> block not found: NGWF initialisation set to SOLVE
IS: Dielectric excluded regions:
    - NONE.
    
  Number of PPD points along a3 set to 1.  This is 
  the default value, it may have been provided also in the input file.
... done
 Writing xyz coordinates to file "host_22901.xyz" ... done


--------------------------------------------------------------------------------
---------------------------------- INPUT FILE ----------------------------------
--------------------------------------------------------------------------------

cutoff_energy       : 800 eV                                                    
xc_functional PBE                                                               
task SINGLEPOINT                                                                
write_xyz true                                                                  
output_detail VERBOSE                                                           
ngwf_threshold_orig : 0.000002                                                  
kernel_cutoff       : 1000                                                      
k_zero              : 3.5                                                       
elec_cg_max 0                                                                   
occ_mix 1.0                                                                     
dispersion 1                                                                    
maxit_ngwf_cg 40                                                                
minit_lnv 10                                                                    
maxit_lnv 10                                                                    
write_denskern T                                                                
write_tightbox_ngwfs T                                                          
charge 9                                                                        
is_implicit_solvent T                                                           
is_auto_solvation T                                                             
is_include_apolar T                                                             
is_smeared_ion_rep T                                                            
is_solvent_surf_tension 4.7624E-5 Ha/bohr**2                                    
is_apolar_scaling_factor 0.281075                                               
is_solvation_beta 1.3                                                           
is_density_threshold 0.00035                                                    
is_bulk_permittivity 78.54                                                      
is_dielectric_model fix_initial                                                 
is_smeared_ion_width 0.8                                                        
mg_defco_fd_order 8                                                             
is_bc_coarseness 10                                                             
is_bc_surface_coarseness 1                                                      
fine_grid_scale 2.0                                                             
%block species                                                                  
N   N   7 4 8.0                                                                 
H   H   1 1 8.0                                                                 
C   C   6 4 8.0                                                                 
S   S  16 9 8.0                                                                 
O   O   8 4 8.0                                                                 
%endblock species                                                               
%block species_pot                                                              
N   N_00.recpot                                                                 
H   H_04.recpot                                                                 
C   C_01.recpot                                                                 
S   S_00.recpot                                                                 
O   O_02.recpot                                                                 
%endblock species_pot                                                           
%block lattice_cart                                                             
142.669   0.000   0.000                                                         
0.000 146.65   0.000                                                            
0.000   0.000   162.396                                                         
%endblock lattice_cart                                                          
%block positions_abs                                                            
     Hash =  -000002485839914419500807
%endblock positions_abs                                                         

--------------------------------------------------------------------------------
-------------------------------- END INPUT FILE --------------------------------
--------------------------------------------------------------------------------


 
 ESDF WARNING(1): "kernelcutoff" (esdf_physical) has no units. Assume "bohr".
 ESDF WARNING(2): "kzero" (esdf_physical) has no units. Assume "1/bohr".
 ESDF WARNING(3
 ): "issmearedionwidth" (esdf_physical) has no units. Assume "bohr".
<<<<<<<<<<<<<<<<<<<<<<<<<<<<<<<<< Full system >>>>>>>>>>>>>>>>>>>>>>>>>>>>>>>>>>
<<<<<<<<<<<<<<<<<<<<<<<<< Pseudopotential information >>>>>>>>>>>>>>>>>>>>>>>>>>
File: N_00.recpot [ 2001 points up to Gmax=  52.9 (1/bohr)]
  Atomic number:  7;  ionic charge:  5.000000
    Shell 1: l = 0; rc = 1.48 bohr
File: H_04.recpot [ 2001 points up to Gmax=  52.9 (1/bohr)]
  Atomic number:  1;  ionic charge:  1.000000
    Local potential
File: C_01.recpot [ 2001 points up to Gmax=  52.9 (1/bohr)]
  Atomic number:  6;  ionic charge:  4.000000
    Shell 1: l = 0; rc = 1.48 bohr
File: S_00.recpot [ 2001 points up to Gmax=  52.9 (1/bohr)]
  Atomic number: 16;  ionic charge:  6.000000
    Shell 1: l = 0; rc = 1.90 bohr
    Shell 2: l = 2; rc = 1.84 bohr
File: O_02.recpot [ 2001 points up to Gmax=  52.9 (1/bohr)]
  Atomic number:  8;  ionic charge:  6.000000
    Shell 1: l = 0; rc = 1.31 bohr
<<<<<<<<<<<<<<<<<<<<<<<<<<<<<<<<<<<<<<<<>>>>>>>>>>>>>>>>>>>>>>>>>>>>>>>>>>>>>>>>

-------------------------- Atom counting information ---------------------------
Symbol    Natoms    Nngwfs    Nprojs
  N        236       944       236
  H       1311      1311         0
  C        810      3240       810
  S          6        54        36
  O        239       956       239
.......   ......    ......    ......
Totals:   2602      6505      1321
--------------------------------------------------------------------------------

=============================== PSINC grid sizes ===============================
                      Simulation cell:  286 x 294 x 320
                              FFT-box:  105 x 105 x  99
                                  PPD:   11 x   6 x   1
Grid space d1=  0.498842657343a0 (KE cutoff=  30.52649Eh = 830.66799eV)
Grid space d2=  0.498809523810a0 (KE cutoff=  30.53054Eh = 830.77835eV)
Grid space d3=  0.507487500000a0 (KE cutoff=  29.49533Eh = 802.60885eV)
================================================================================

********************* Fourier parallelisation information **********************
       Coarse grid (whole simulation cell) dimensions:    286   294   320
          Real-space ('12') slabs/node (min max mean):      5     6     5
         Recip-space ('23') slabs/node (min max mean):      2     3     2
********************************************************************************

********************* Fourier parallelisation information **********************
       Double grid (whole simulation cell) dimensions:    572   588   640
          Real-space ('12') slabs/node (min max mean):     10    11    10
         Recip-space ('23') slabs/node (min max mean):      4     5     4
********************************************************************************
ONETEP fine grid is 572 x 588 x 640 gridpoints, 142.6690 x 146.6500 x 162.3960 bohr.
FD multigrid is     569 x 585 x 633 gridpoints, 141.9207 x 145.9018 x 160.6198 bohr.


Calculating local pseudopotential in open BC on a radial grid ...
Discrepancy between calculated realspace psloc and -Z/x on [5a0,261.215a0]:
max |rel. diff| # avg |rel. diff| #  avg rel. diff #  f # pseudopotential file
 0.000261901569    0.000004963664   0.000000071970   55  'N_00.recpot'
 0.000422260137    0.000017549664  -0.000000063361   55  'H_04.recpot'
 0.000361991046    0.000016543264   0.000000134927   55  'C_01.recpot'
 0.000447743184    0.000019132268   0.000000438157   55  'S_00.recpot'
 0.000711628927    0.000028437426   0.000000135877   55  'O_02.recpot'
... done

Atom SCF Calculation for N  : Z (AE atom) =   7 : Z (PS atom) =   5
Config String:
Orbitals (num,occ):  2     2.00 3.00
Orbitals   (num,l):  2        0    1
Real-space Grid (nr,dr,rmax): 1203    0.0066555740    8.0000000000
Spherical Bessel Basis (nsws,lmax,cutoff):   47    1  176.3951722778
Confining potential (l,width,scale):  0    3.0000000000  100.0000000000
Confining potential (l,width,scale):  1    3.0000000000  100.0000000000
  1         -4.7312375307   -3.4155304497    7.0523828109   -1.9351020946
  2         -9.7309464766   -2.0532547791    8.2966052865   -2.2494486027
  3         -9.6627394379   -2.1124926340    8.2327997121   -2.2369778124
  4         -9.6814993499   -2.1215521045    8.2229805960   -2.2365178421
  5         -9.6843326483   -2.1250939529    8.2191374534   -2.2362718126
  6         -9.6859628709   -2.1267894855    8.2172963573   -2.2362066344
  7         -9.6867347035   -2.1276425665    8.2163697352   -2.2361903369
  8         -9.6870802100   -2.1280764625    8.2158983890   -2.2361891460
  9         -9.6872290423   -2.1282977424    8.2156580222   -2.2361920435
 10         -9.6872901988   -2.1284107021    8.2155353368   -2.2361953393
 11         -9.6873135296   -2.1284684031    8.2154726809   -2.2361979819
 12         -9.6873212476   -2.1284978948    8.2154406648   -2.2361998431
 13         -9.6873229586   -2.1285129774    8.2154242957   -2.2362010676
 14         -9.6873226456   -2.1285206957    8.2154159216   -2.2362018403
 15         -9.6873218534   -2.1285246479    8.2154116349   -2.2362023142
 16         -9.6873212599   -2.1285262679    8.2154098784   -2.2362025420
 17         -9.6873207834   -2.1285272564    8.2154088068   -2.2362026955
 18         -9.6873204210   -2.1285278596    8.2154081529   -2.2362027982
 19         -9.6873201550   -2.1285282280    8.2154077538   -2.2362028667
 20         -9.6873199645   -2.1285284529    8.2154075102   -2.2362029121
 21         -9.6873198305   -2.1285285903    8.2154073614   -2.2362029421
 22         -9.6873197377   -2.1285286742    8.2154072705   -2.2362029618
Atom SCF converged after  22 iterations to a total energy of     -9.68731974

Atom SCF Calculation for H  : Z (AE atom) =   1 : Z (PS atom) =   1
Config String:
Orbitals (num,occ):  1     1.00
Orbitals   (num,l):  1        0
Real-space Grid (nr,dr,rmax): 1203    0.0066555740    8.0000000000
Spherical Bessel Basis (nsws,lmax,cutoff):   47    0  176.3951722778
Confining potential (l,width,scale):  0    3.0000000000  100.0000000000
  1         -0.3194257691   -0.2393854593    0.2820953124   -0.2424203209
  2         -0.3951823392   -0.2377116493    0.2886404059   -0.2475147891
  3         -0.4317044583   -0.2352244387    0.2921333887   -0.2514046172
  4         -0.4470703708   -0.2341892222    0.2934391879   -0.2531009782
  5         -0.4532132900   -0.2338556667    0.2938388426   -0.2537313520
  6         -0.4556579251   -0.2337612552    0.2939448584   -0.2539550462
  7         -0.4566418315   -0.2337377355    0.2939680120   -0.2540342273
  8         -0.4570437922   -0.2337331116    0.2939708287   -0.2540627372
  9         -0.4572102946   -0.2337328328    0.2939698291   -0.2540732650
 10         -0.4572800424   -0.2337332404    0.2939687193   -0.2540772588
 11         -0.4573095100   -0.2337335791    0.2939680317   -0.2540788122
 12         -0.4573220379   -0.2337337762    0.2939676699   -0.2540794294
 13         -0.4573273880   -0.2337338775    0.2939674931   -0.2540796787
 14         -0.4573296803   -0.2337339266    0.2939674099   -0.2540797808
 15         -0.4573306647   -0.2337339495    0.2939673718   -0.2540798230
 16         -0.4573310882   -0.2337339601    0.2939673545   -0.2540798406
 17         -0.4573312706   -0.2337339649    0.2939673467   -0.2540798479
 18         -0.4573313493   -0.2337339670    0.2939673433   -0.2540798510
Atom SCF converged after  18 iterations to a total energy of     -0.45733135

Atom SCF Calculation for C  : Z (AE atom) =   6 : Z (PS atom) =   4
Config String:
Orbitals (num,occ):  2     2.00 2.00
Orbitals   (num,l):  2        0    1
Real-space Grid (nr,dr,rmax): 1203    0.0066555740    8.0000000000
Spherical Bessel Basis (nsws,lmax,cutoff):   47    1  176.3951722778
Confining potential (l,width,scale):  0    3.0000000000  100.0000000000
Confining potential (l,width,scale):  1    3.0000000000  100.0000000000
  1         -5.2976922011   -1.3069684169    4.5135249990   -1.4493313817
  2         -5.3721716256   -1.3429755895    4.4750154450   -1.4361613026
  3         -5.3809959565   -1.3617365618    4.4541655428   -1.4305930207
  4         -5.3918938866   -1.3667928461    4.4484735100   -1.4294652294
  5         -5.3956096428   -1.3688539142    4.4461376126   -1.4290734646
  6         -5.3968271862   -1.3696852393    4.4451910874   -1.4289366866
  7         -5.3972028401   -1.3700178062    4.4448112275   -1.4288900460
  8         -5.3973067903   -1.3701500158    4.4446598370   -1.4288749220
  9         -5.3973286940   -1.3702023868    4.4445997329   -1.4288704293
 10         -5.3973289850   -1.3702230869    4.4445759233   -1.4288693188
 11         -5.3973254264   -1.3702312560    4.4445665049   -1.4288691775
 12         -5.3973224003   -1.3702344755    4.4445627836   -1.4288692549
 13         -5.3973208708   -1.3702354890    4.4445616088   -1.4288693270
 14         -5.3973198783   -1.3702360102    4.4445610034   -1.4288693814
 15         -5.3973192535   -1.3702362780    4.4445606917   -1.4288694190
 16         -5.3973188684   -1.3702364155    4.4445605313   -1.4288694437
 17         -5.3973186349   -1.3702364860    4.4445604489   -1.4288694595
 18         -5.3973184951   -1.3702365221    4.4445604065   -1.4288694693
 19         -5.3973184122   -1.3702365405    4.4445603848   -1.4288694753
Atom SCF converged after  19 iterations to a total energy of     -5.39731841

Atom SCF Calculation for S  : Z (AE atom) =  16 : Z (PS atom) =   6
Config String:
Orbitals (num,occ):  3     2.00 4.00 0.00
Orbitals   (num,l):  3        0    1    2
Real-space Grid (nr,dr,rmax): 1203    0.0066555740    8.0000000000
Spherical Bessel Basis (nsws,lmax,cutoff):   47    2  176.3951722778
Confining potential (l,width,scale):  0    3.0000000000  100.0000000000
Confining potential (l,width,scale):  1    3.0000000000  100.0000000000
Confining potential (l,width,scale):  2    3.0000000000  100.0000000000
  1        -12.4735062396   -1.0328741412   10.1554312477   -2.4512393157
  2         -9.9458301913   -2.4607392455    8.3041325857   -2.0306994528
  3        -10.1450417646   -2.2931184565    8.4831893826   -2.0812538287
  4        -10.1528335592   -2.2733105793    8.5050388867   -2.0896035179
  5        -10.1571940363   -2.2633716629    8.5160794258   -2.0939370707
  6        -10.1594380571   -2.2584938667    8.5215163935   -2.0961289008
  7        -10.1605856507   -2.2561081821    8.5241804044   -2.0972291378
  8        -10.1611799191   -2.2549395235    8.5254868240   -2.0977806248
  9        -10.1614918752   -2.2543658586    8.5261285885   -2.0980571586
 10        -10.1616572884   -2.2540839121    8.5264441898   -2.0981959233
 11        -10.1617455602   -2.2539453058    8.5265994231   -2.0982656006
 12        -10.1617928447   -2.2538772062    8.5266757320   -2.0983006047
 13        -10.1618182292   -2.2538437891    8.5267131983   -2.0983181961
 14        -10.1618318741   -2.2538274201    8.5267315620   -2.0983270391
 15        -10.1618392144   -2.2538194197    8.5267405433   -2.0983314852
 16        -10.1618431651   -2.2538155200    8.5267449245   -2.0983337210
 17        -10.1618452923   -2.2538136252    8.5267470551   -2.0983348455
 18        -10.1618464380   -2.2538127080    8.5267480875   -2.0983354110
 19        -10.1618470552   -2.2538122659    8.5267485856   -2.0983356955
 20        -10.1618473878   -2.2538120540    8.5267488248   -2.0983358386
 21        -10.1618475670   -2.2538119530    8.5267489389   -2.0983359106
 22        -10.1618476637   -2.2538119053    8.5267489929   -2.0983359468
Atom SCF converged after  22 iterations to a total energy of    -10.16184766

Atom SCF Calculation for O  : Z (AE atom) =   8 : Z (PS atom) =   6
Config String:
Orbitals (num,occ):  2     2.00 4.00
Orbitals   (num,l):  2        0    1
Real-space Grid (nr,dr,rmax): 1203    0.0066555740    8.0000000000
Spherical Bessel Basis (nsws,lmax,cutoff):   47    1  176.3951722778
Confining potential (l,width,scale):  0    3.0000000000  100.0000000000
Confining potential (l,width,scale):  1    3.0000000000  100.0000000000
  1         -1.8735052164   -7.5539365035   10.1554312477   -2.4512393157
  2        -16.0318313751   -3.1285771268   13.6395848164   -3.2358799643
  3        -15.9524020423   -3.0762819706   13.6967272503   -3.2536856837
  4        -15.8521515939   -3.0781493909   13.6951909330   -3.2561700440
  5        -15.8357139793   -3.0748501933   13.6988803334   -3.2580493133
  6        -15.8246052853   -3.0740779781   13.6997881576   -3.2588327446
  7        -15.8189019501   -3.0737449687   13.7001869911   -3.2592378801
  8        -15.8159785510   -3.0736026016   13.7003615168   -3.2594475790
  9        -15.8144776168   -3.0735437994   13.7004360379   -3.2595560735
 10        -15.8137058024   -3.0735207882   13.7004667348   -3.2596122456
 11        -15.8133083127   -3.0735125946   13.7004786868   -3.2596413656
 12        -15.8131032938   -3.0735102195   13.7004828997   -3.2596564858
 13        -15.8129973902   -3.0735099286   13.7004840891   -3.2596643505
 14        -15.8129426040   -3.0735102506   13.7004842061   -3.2596684489
 15        -15.8129142203   -3.0735106556   13.7004840157   -3.2596705887
 16        -15.8128994940   -3.0735109855   13.7004837906   -3.2596717080
 17        -15.8128918425   -3.0735112169   13.7004836103   -3.2596722946
 18        -15.8128878614   -3.0735113674   13.7004834848   -3.2596726026
 19        -15.8128857871   -3.0735114608   13.7004834035   -3.2596727646
 20        -15.8128847048   -3.0735115170   13.7004833533   -3.2596728500
 21        -15.8128841394   -3.0735115501   13.7004833231   -3.2596728951
 22        -15.8128838436   -3.0735115693   13.7004833054   -3.2596729190
 23        -15.8128836887   -3.0735115802   13.7004832951   -3.2596729316
 24        -15.8128836074   -3.0735115864   13.7004832893   -3.2596729383
Atom SCF converged after  24 iterations to a total energy of    -15.81288361

========================== Calculation in vacuum ==============================
= Adjusting the following parameters: 
= is_implicit_solvent: F
= is_include_apolar: F
= write_denskern: T
= write_tightbox_ngwfs: T
= restart read filename prefix: ""
= restart write filename prefix: "vacuum_"
===============================================================================

Determining parallel strategy ...
... using space-filling curve
... NGWF load balancing: max    109;  min    108;  average    108
... Projector load balancing: max     25;  min     21;  average     22
... done
Calculating direct Ion-Ion energy ...
Ion-Ion Energy        :    822411.74853108054958
======================= Empirical dispersion information =======================
Model : Elstner
Dispersion Correction Energy: -0.32451232E+01 Hartree
================================================================================
Basis initialisation ...... NGWF spheres initialised
... Projector spheres initialised
... NGWF tight boxes initialised
... Tight-boxes gathered
... NGWF basis size (local,global):     978404  58634243
... Nonlocal pseudopotential projector initialisation
... done

========================== Sparse matrix information ===========================
                        Overlap matrix filling:   6.72%
                        Density kernel filling: 100.00%
              NGWF-Proj overlap matrix filling:   1.77%
                    Hamiltonian matrix filling:   7.58%
                  NGWF diagonal matrix filling:   0.05%
                             KS matrix filling: 100.00% 
                           KSKS matrix filling: 100.00% 
================================================================================

Sparse matrix initialisation ... done

Generating smeared ion density ... done
Smeared ion self correction:     -14457.169564
Smeared ion non-self correction: -822363.527092
NGWF initialisation ...... done
============ Calculation of NGWF S^-1 using Hotelling algorithm ================ 
         Iteration  |  Frobenius norm and Maximum abs value    (of I-S*S_n^-1)   
               1       0.78525021E+02     0.98288697E+00
               2       0.76706302E+02     0.96623914E+00
               3       0.73750358E+02     0.93427042E+00
               4       0.69529624E+02     0.87499444E+00
               5       0.64252271E+02     0.77307513E+00
               6       0.58302151E+02     0.70424583E+00
               7       0.52294160E+02     0.67065724E+00
               8       0.46741708E+02     0.64526377E+00
               9       0.40728904E+02     0.60585432E+00
              10       0.32556298E+02     0.53872214E+00
              11       0.22038580E+02     0.43494153E+00
              12       0.11381110E+02     0.29730880E+00
              13       0.38141415E+01     0.14201920E+00
              14       0.62216686E+00     0.34195137E-01
              15       0.32253738E-01     0.33074986E-02
              16       0.22163426E-03     0.33638965E-04
              17       0.19514939E-07     0.37712052E-08
              18       0.98231846E-13     0.64392935E-14
================================================================================
Calculating local pseudopotential in open BC on the fine real space grid ...
... done

MG BCs: +ve charge blocks (gridpoints):     20725 (   16276673).
MG BCs: -ve charge blocks (gridpoints):      8090 (    1096424).
MG BCs:     Elided blocks (gridpoints):    194507 (  193330448).
MG BCs: Computational effort saved:  99.9863%.
MG BCs: Charge after coarse-graining:           -9.0002287.
MG DL_MG: Calling solver with defect correction order = 8
MG DL_MG: Solver finished
MG Hartree energy from (\int phi*rho dr):              1462.357040
MG Hartree energy from (\int eps (grad phi)^2 dr):     1461.756659
MG Discrepancy due to finite box and discretization:     -0.600381 (  -0.04106%)
MG Correction to account for finite box:                  0.453696
MG Remaining discrepancy, due to discretization:         -0.146685 (  -0.01003%)
Up spin density kernel initialisation ... 
======= Optimisation of K by Palser-Manolopoulos canonical purification ======== 
         Iteration  |  Band structure energy |    c_n   
               1       -2561.40116017598120    0.5286760
               2       -2736.67391616364421    0.5182959
               3       -2918.60231440076222    0.5153641
               4       -3073.43619464279845    0.5271729
               5       -3171.33759538956929    0.5611568
               6       -3213.46558909683063    0.6067725
               7       -3227.74413967025839    0.6199054
               8       -3233.82468975515349    0.6175776
               9       -3236.77517901281954    0.6336884
              10       -3237.97511486309395    0.6623671
              11       -3238.42905134945158    0.6773822
              12       -3238.62952988954203    0.6721578
              13       -3238.73295381677690    0.6302794
              14       -3238.79470623553789    0.5407190
              15       -3238.83238335837495    0.4401260
              16       -3238.84044109651404    0.4089773
              17       -3238.84155657949987    0.3893742
              18       -3238.84215215502809    0.3943085
              19       -3238.84254308864820    0.4295308
              20       -3238.84290252780920    0.4675972
              21       -3238.84316619046967    0.4927845
              22       -3238.84327094320633    0.4996449
              23       -3238.84328342260233    0.4999992
              24       -3238.84328358070070    0.4999992
Termination criterion satisfied: band energy change below threshold.
Final occupancy bounds: [    0.00000000001942:    0.99999999999991]
Closest occupancy to 0.5:     0.99999999999745
================================================================================
... done

Writing density kernel to file "host_22901.vacuum_dkn" ... done

>>> Optimising kernel for current NGWFs:
   Initial electron number for spin 1:    7192.00000000
     Final electron number for spin 1:    7192.00000000

=================== Penalty functional idempotency correction ==================
 RMS occupancy error at iteration   1:  0.000000 (step -0.5000 Ne1=   7192.0000)
            Final RMS occupancy error   :  0.000000 (Ne1=   7192.0000)
               Final occupancy bounds   : [  0.0000,  1.0000]
================================================================================

................................................................................
<<<<<<<<<<<<<< LNV (Original version) density kernel optimisation >>>>>>>>>>>>>>
~~~~~~~~~~~~~~~~~~~~~~~~~~~~~~~~~~~~~~~~~~~~~~~~~~~~~~~~~~~~~~~~~~~~~~~~~~~~~~~~
   iter  |      energy (Eh)       | rms gradient |  commutator  |   dE (Eh)
MG BCs: +ve charge blocks (gridpoints):     31667 (   17421111).
MG BCs: -ve charge blocks (gridpoints):      8425 (    1129681).
MG BCs:     Elided blocks (gridpoints):    183552 (  192152753).
MG BCs: Computational effort saved:  99.9810%.
MG BCs: Charge after coarse-graining:           -9.0010112.
MG DL_MG: Calling solver with defect correction order = 8
MG DL_MG: Solver finished
MG Hartree energy from (\int phi*rho dr):              1417.283128
MG Hartree energy from (\int eps (grad phi)^2 dr):     1416.628325
MG Discrepancy due to finite box and discretization:     -0.654803 (  -0.04620%)
MG Correction to account for finite box:                  0.466446
MG Remaining discrepancy, due to discretization:         -0.188356 (  -0.01329%)
      ideal mu1:      -0.708401309746
             Q0:  -11507.387988238595
             G0:    -145.556335763886
   RMS gradient:       0.001854676871
MG BCs: +ve charge blocks (gridpoints):     31633 (   17499032).
MG BCs: -ve charge blocks (gridpoints):      8319 (    1109354).
MG BCs:     Elided blocks (gridpoints):    183588 (  192095159).
MG BCs: Computational effort saved:  99.9810%.
MG BCs: Charge after coarse-graining:           -9.0010341.
MG DL_MG: Calling solver with defect correction order = 8
MG DL_MG: Solver finished
MG Hartree energy from (\int phi*rho dr):              1441.956741
MG Hartree energy from (\int eps (grad phi)^2 dr):     1441.318697
MG Discrepancy due to finite box and discretization:     -0.638044 (  -0.04425%)
MG Correction to account for finite box:                  0.465225
MG Remaining discrepancy, due to discretization:         -0.172820 (  -0.01199%)
     Trial step:       0.500000000000
             Q1:  -11518.973346929066
 Quadratic coef:      61.192809191472
 Linear coef   :     -72.778167881943
           Qmin:  -11529.027220814432
Quadratic minimum step length (  0.297331372932) accepted
    Initial Ne1:    7192.00000000
      Final Ne1:    7192.00000000

=================== Penalty functional idempotency correction ==================
 RMS occupancy error at iteration   1:  0.003432 (step -0.4884 Ne1=   7192.0000)
 RMS occupancy error at iteration   2:  0.000027 (step -0.5001 Ne1=   7192.0000)
            Final RMS occupancy error   :  0.000000 (Ne1=   7192.0000)
               Final occupancy bounds   : [  0.0000,  1.0000]
================================================================================

    1        -1.150738798824E+04     1.8547E-03     1.6775E-03
MG BCs: +ve charge blocks (gridpoints):     31639 (   17469700).
MG BCs: -ve charge blocks (gridpoints):      8375 (    1117830).
MG BCs:     Elided blocks (gridpoints):    183582 (  192116015).
MG BCs: Computational effort saved:  99.9810%.
MG BCs: Charge after coarse-graining:           -9.0010240.
MG DL_MG: Calling solver with defect correction order = 8
MG DL_MG: Solver finished
MG Hartree energy from (\int phi*rho dr):              1424.000844
MG Hartree energy from (\int eps (grad phi)^2 dr):     1423.356946
MG Discrepancy due to finite box and discretization:     -0.643898 (  -0.04522%)
MG Correction to account for finite box:                  0.465597
MG Remaining discrepancy, due to discretization:         -0.178301 (  -0.01252%)
      ideal mu1:      -0.750876774441
             Q0:  -11529.435169690987
             G0:     -12.376259890157
   RMS gradient:       0.000537134310
MG BCs: +ve charge blocks (gridpoints):     31629 (   17486279).
MG BCs: -ve charge blocks (gridpoints):      8345 (    1112294).
MG BCs:     Elided blocks (gridpoints):    183591 (  192104972).
MG BCs: Computational effort saved:  99.9810%.
MG BCs: Charge after coarse-graining:           -9.0010280.
MG DL_MG: Calling solver with defect correction order = 8
MG DL_MG: Solver finished
MG Hartree energy from (\int phi*rho dr):              1429.148863
MG Hartree energy from (\int eps (grad phi)^2 dr):     1428.509022
MG Discrepancy due to finite box and discretization:     -0.639841 (  -0.04477%)
MG Correction to account for finite box:                  0.464640
MG Remaining discrepancy, due to discretization:         -0.175201 (  -0.01226%)
     Trial step:       0.385571895327
             Q1:  -11532.331471640151
 Quadratic coef:       1.875636033745
 Linear coef   :      -4.771937982909
           Qmin:  -11532.470325726466
Quadratic minimum step length (  0.490480332898) accepted
    Initial Ne1:    7191.99987808
      Final Ne1:    7192.00000000

=================== Penalty functional idempotency correction ==================
 RMS occupancy error at iteration   1:  0.001842 (step -0.4928 Ne1=   7192.0000)
 RMS occupancy error at iteration   2:  0.000014 (step -0.5004 Ne1=   7192.0000)
            Final RMS occupancy error   :  0.000000 (Ne1=   7192.0000)
               Final occupancy bounds   : [  0.0000,  1.0000]
================================================================================

    2        -1.152943516969E+04     5.3713E-04     4.8583E-04    -2.2047E+01
MG BCs: +ve charge blocks (gridpoints):     31633 (   17490714).
MG BCs: -ve charge blocks (gridpoints):      8332 (    1110874).
MG BCs:     Elided blocks (gridpoints):    183585 (  192101957).
MG BCs: Computational effort saved:  99.9810%.
MG BCs: Charge after coarse-graining:           -9.0010292.
MG DL_MG: Calling solver with defect correction order = 8
MG DL_MG: Solver finished
MG Hartree energy from (\int phi*rho dr):              1430.600690
MG Hartree energy from (\int eps (grad phi)^2 dr):     1429.961872
MG Discrepancy due to finite box and discretization:     -0.638818 (  -0.04465%)
MG Correction to account for finite box:                  0.464400
MG Remaining discrepancy, due to discretization:         -0.174418 (  -0.01219%)
      ideal mu1:      -0.774480078177
             Q0:  -11532.508678424638
             G0:      -1.963006434530
   RMS gradient:       0.000213990505
MG BCs: +ve charge blocks (gridpoints):     31624 (   17489944).
MG BCs: -ve charge blocks (gridpoints):      8344 (    1111994).
MG BCs:     Elided blocks (gridpoints):    183594 (  192101607).
MG BCs: Computational effort saved:  99.9810%.
MG BCs: Charge after coarse-graining:           -9.0010290.
MG DL_MG: Calling solver with defect correction order = 8
MG DL_MG: Solver finished
MG Hartree energy from (\int phi*rho dr):              1428.402779
MG Hartree energy from (\int eps (grad phi)^2 dr):     1427.764512
MG Discrepancy due to finite box and discretization:     -0.638267 (  -0.04468%)
MG Correction to account for finite box:                  0.464019
MG Remaining discrepancy, due to discretization:         -0.174248 (  -0.01220%)
     Trial step:       0.434874041047
             Q1:  -11533.011241567554
 Quadratic coef:       0.351097397868
 Linear coef   :      -0.853660540785
           Qmin:  -11533.027577399194
Quadratic minimum step length (  0.528677813204) accepted
    Initial Ne1:    7191.99985118
      Final Ne1:    7192.00000000

=================== Penalty functional idempotency correction ==================
 RMS occupancy error at iteration   1:  0.000653 (step -0.4968 Ne1=   7192.0000)
 RMS occupancy error at iteration   2:  0.000003 (step -0.5000 Ne1=   7192.0000)
            Final RMS occupancy error   :  0.000000 (Ne1=   7192.0000)
               Final occupancy bounds   : [  0.0000,  1.0000]
================================================================================

    3        -1.153250867842E+04     2.1399E-04     1.9355E-04    -3.0735E+00
MG BCs: +ve charge blocks (gridpoints):     31625 (   17489733).
MG BCs: -ve charge blocks (gridpoints):      8346 (    1112260).
MG BCs:     Elided blocks (gridpoints):    183593 (  192101552).
MG BCs: Computational effort saved:  99.9810%.
MG BCs: Charge after coarse-graining:           -9.0010290.
MG DL_MG: Calling solver with defect correction order = 8
MG DL_MG: Solver finished
MG Hartree energy from (\int phi*rho dr):              1427.938699
MG Hartree energy from (\int eps (grad phi)^2 dr):     1427.300539
MG Discrepancy due to finite box and discretization:     -0.638160 (  -0.04469%)
MG Correction to account for finite box:                  0.463939
MG Remaining discrepancy, due to discretization:         -0.174221 (  -0.01220%)
      ideal mu1:      -0.775697052999
             Q0:  -11533.032469129539
             G0:      -0.527854935753
   RMS gradient:       0.000111113996
MG BCs: +ve charge blocks (gridpoints):     31626 (   17490754).
MG BCs: -ve charge blocks (gridpoints):      8346 (    1112053).
MG BCs:     Elided blocks (gridpoints):    183592 (  192100738).
MG BCs: Computational effort saved:  99.9810%.
MG BCs: Charge after coarse-graining:           -9.0010292.
MG DL_MG: Calling solver with defect correction order = 8
MG DL_MG: Solver finished
MG Hartree energy from (\int phi*rho dr):              1429.169295
MG Hartree energy from (\int eps (grad phi)^2 dr):     1428.531185
MG Discrepancy due to finite box and discretization:     -0.638109 (  -0.04465%)
MG Correction to account for finite box:                  0.463789
MG Remaining discrepancy, due to discretization:         -0.174321 (  -0.01220%)
     Trial step:       0.479487494143
             Q1:  -11533.165665719775
 Quadratic coef:       0.119903250179
 Linear coef   :      -0.253099840415
           Qmin:  -11533.166034168691
Quadratic minimum step length (  0.506067216975) accepted
    Initial Ne1:    7191.99996172
      Final Ne1:    7192.00000000

=================== Penalty functional idempotency correction ==================
 RMS occupancy error at iteration   1:  0.000312 (step -0.4948 Ne1=   7192.0000)
 RMS occupancy error at iteration   2:  0.000004 (step -0.5000 Ne1=   7192.0000)
            Final RMS occupancy error   :  0.000000 (Ne1=   7192.0000)
               Final occupancy bounds   : [  0.0000,  1.0000]
================================================================================

    4        -1.153303246913E+04     1.1111E-04     1.0050E-04    -5.2379E-01
MG BCs: +ve charge blocks (gridpoints):     31626 (   17490815).
MG BCs: -ve charge blocks (gridpoints):      8346 (    1112049).
MG BCs:     Elided blocks (gridpoints):    183592 (  192100681).
MG BCs: Computational effort saved:  99.9810%.
MG BCs: Charge after coarse-graining:           -9.0010292.
MG DL_MG: Calling solver with defect correction order = 8
MG DL_MG: Solver finished
MG Hartree energy from (\int phi*rho dr):              1429.238185
MG Hartree energy from (\int eps (grad phi)^2 dr):     1428.600077
MG Discrepancy due to finite box and discretization:     -0.638107 (  -0.04465%)
MG Correction to account for finite box:                  0.463780
MG Remaining discrepancy, due to discretization:         -0.174327 (  -0.01220%)
      ideal mu1:      -0.775869665110
             Q0:  -11533.166698146379
             G0:      -0.210877737524
   RMS gradient:       0.000070433355
MG BCs: +ve charge blocks (gridpoints):     31627 (   17491010).
MG BCs: -ve charge blocks (gridpoints):      8345 (    1111897).
MG BCs:     Elided blocks (gridpoints):    183591 (  192100638).
MG BCs: Computational effort saved:  99.9810%.
MG BCs: Charge after coarse-graining:           -9.0010291.
MG DL_MG: Calling solver with defect correction order = 8
MG DL_MG: Solver finished
MG Hartree energy from (\int phi*rho dr):              1429.712098
MG Hartree energy from (\int eps (grad phi)^2 dr):     1429.073880
MG Discrepancy due to finite box and discretization:     -0.638218 (  -0.04464%)
MG Correction to account for finite box:                  0.463725
MG Remaining discrepancy, due to discretization:         -0.174493 (  -0.01220%)
     Trial step:       0.492598113816
             Q1:  -11533.235646653571
 Quadratic coef:       0.034929468557
 Linear coef   :      -0.103877975750
           Qmin:  -11533.243929738297
Quadratic minimum step length (  0.732477432895) accepted
    Initial Ne1:    7191.99997760
      Final Ne1:    7192.00000000

=================== Penalty functional idempotency correction ==================
 RMS occupancy error at iteration   1:  0.000596 (step -0.4678 Ne1=   7192.0000)
 RMS occupancy error at iteration   2:  0.000017 (step -0.5000 Ne1=   7192.0000)
            Final RMS occupancy error   :  0.000000 (Ne1=   7192.0000)
               Final occupancy bounds   : [  0.0000,  1.0000]
================================================================================

    5        -1.153316669815E+04     7.0433E-05     6.3705E-05    -1.3423E-01
MG BCs: +ve charge blocks (gridpoints):     31627 (   17491144).
MG BCs: -ve charge blocks (gridpoints):      8343 (    1111794).
MG BCs:     Elided blocks (gridpoints):    183592 (  192100607).
MG BCs: Computational effort saved:  99.9810%.
MG BCs: Charge after coarse-graining:           -9.0010291.
MG DL_MG: Calling solver with defect correction order = 8
MG DL_MG: Solver finished
MG Hartree energy from (\int phi*rho dr):              1429.941021
MG Hartree energy from (\int eps (grad phi)^2 dr):     1429.302748
MG Discrepancy due to finite box and discretization:     -0.638272 (  -0.04464%)
MG Correction to account for finite box:                  0.463698
MG Remaining discrepancy, due to discretization:         -0.174574 (  -0.01221%)
      ideal mu1:      -0.775881033849
             Q0:  -11533.242900860030
             G0:      -0.209206770445
   RMS gradient:       0.000070951312
MG BCs: +ve charge blocks (gridpoints):     31629 (   17490473).
MG BCs: -ve charge blocks (gridpoints):      8348 (    1112208).
MG BCs:     Elided blocks (gridpoints):    183590 (  192100864).
MG BCs: Computational effort saved:  99.9810%.
MG BCs: Charge after coarse-graining:           -9.0010288.
MG DL_MG: Calling solver with defect correction order = 8
MG DL_MG: Solver finished
MG Hartree energy from (\int phi*rho dr):              1428.487958
MG Hartree energy from (\int eps (grad phi)^2 dr):     1427.849693
MG Discrepancy due to finite box and discretization:     -0.638265 (  -0.04468%)
MG Correction to account for finite box:                  0.463701
MG Remaining discrepancy, due to discretization:         -0.174564 (  -0.01222%)
     Trial step:       0.600680449039
             Q1:  -11533.333460464259
 Quadratic coef:       0.035106812584
 Linear coef   :      -0.125666416813
           Qmin:  -11533.355358009741
Quadratic minimum step length (  1.075081360633) accepted
    Initial Ne1:    7191.99989360
      Final Ne1:    7192.00000000

=================== Penalty functional idempotency correction ==================
 RMS occupancy error at iteration   1:  0.003962 (step -0.3321 Ne1=   7192.0000)
 RMS occupancy error at iteration   2:  0.000314 (step -0.4906 Ne1=   7192.0000)
 RMS occupancy error at iteration   3:  0.000007 (step -0.5004 Ne1=   7192.0000)
            Final RMS occupancy error   :  0.000000 (Ne1=   7192.0000)
               Final occupancy bounds   : [  0.0000,  1.0000]
================================================================================

    6        -1.153324290086E+04     7.0951E-05     6.4174E-05    -7.6203E-02
MG BCs: +ve charge blocks (gridpoints):     31631 (   17489897).
MG BCs: -ve charge blocks (gridpoints):      8347 (    1112525).
MG BCs:     Elided blocks (gridpoints):    183588 (  192101123).
MG BCs: Computational effort saved:  99.9810%.
MG BCs: Charge after coarse-graining:           -9.0010287.
MG DL_MG: Calling solver with defect correction order = 8
MG DL_MG: Solver finished
MG Hartree energy from (\int phi*rho dr):              1427.360353
MG Hartree energy from (\int eps (grad phi)^2 dr):     1426.722090
MG Discrepancy due to finite box and discretization:     -0.638263 (  -0.04472%)
MG Correction to account for finite box:                  0.463706
MG Remaining discrepancy, due to discretization:         -0.174557 (  -0.01223%)
      ideal mu1:      -0.775589463559
             Q0:  -11533.340960956761
             G0:      -0.320710467334
   RMS gradient:       0.000087058116
MG BCs: +ve charge blocks (gridpoints):     31626 (   17491860).
MG BCs: -ve charge blocks (gridpoints):      8341 (    1111374).
MG BCs:     Elided blocks (gridpoints):    183592 (  192100311).
MG BCs: Computational effort saved:  99.9810%.
MG BCs: Charge after coarse-graining:           -9.0010296.
MG DL_MG: Calling solver with defect correction order = 8
MG DL_MG: Solver finished
MG Hartree energy from (\int phi*rho dr):              1430.129913
MG Hartree energy from (\int eps (grad phi)^2 dr):     1429.491854
MG Discrepancy due to finite box and discretization:     -0.638059 (  -0.04462%)
MG Correction to account for finite box:                  0.463716
MG Remaining discrepancy, due to discretization:         -0.174343 (  -0.01219%)
     Trial step:       0.803604600819
             Q1:  -11533.437242748565
 Quadratic coef:       0.161442615276
 Linear coef   :      -0.257724407081
           Qmin:  -11533.443817736385
Quadratic minimum step length (  0.641430761389) accepted
    Initial Ne1:    7191.99995987
      Final Ne1:    7192.00000000

=================== Penalty functional idempotency correction ==================
 RMS occupancy error at iteration   1:  0.000163 (step -0.4910 Ne1=   7192.0000)
 RMS occupancy error at iteration   2:  0.000001 (step -0.5000 Ne1=   7192.0000)
            Final RMS occupancy error   :  0.000000 (Ne1=   7192.0000)
               Final occupancy bounds   : [  0.0000,  1.0000]
================================================================================

    7        -1.153334096096E+04     8.7058E-05     7.8742E-05    -9.8060E-02
MG BCs: +ve charge blocks (gridpoints):     31627 (   17491477).
MG BCs: -ve charge blocks (gridpoints):      8344 (    1111596).
MG BCs:     Elided blocks (gridpoints):    183591 (  192100472).
MG BCs: Computational effort saved:  99.9810%.
MG BCs: Charge after coarse-graining:           -9.0010294.
MG DL_MG: Calling solver with defect correction order = 8
MG DL_MG: Solver finished
MG Hartree energy from (\int phi*rho dr):              1429.569003
MG Hartree energy from (\int eps (grad phi)^2 dr):     1428.930904
MG Discrepancy due to finite box and discretization:     -0.638098 (  -0.04464%)
MG Correction to account for finite box:                  0.463713
MG Remaining discrepancy, due to discretization:         -0.174385 (  -0.01220%)
      ideal mu1:      -0.776786904585
             Q0:  -11533.443944393308
             G0:      -0.227326148554
   RMS gradient:       0.000073252131
MG BCs: +ve charge blocks (gridpoints):     31628 (   17491136).
MG BCs: -ve charge blocks (gridpoints):      8347 (    1111683).
MG BCs:     Elided blocks (gridpoints):    183590 (  192100726).
MG BCs: Computational effort saved:  99.9810%.
MG BCs: Charge after coarse-graining:           -9.0010295.
MG DL_MG: Calling solver with defect correction order = 8
MG DL_MG: Solver finished
MG Hartree energy from (\int phi*rho dr):              1429.392739
MG Hartree energy from (\int eps (grad phi)^2 dr):     1428.754652
MG Discrepancy due to finite box and discretization:     -0.638087 (  -0.04464%)
MG Correction to account for finite box:                  0.463851
MG Remaining discrepancy, due to discretization:         -0.174236 (  -0.01219%)
     Trial step:       0.717953139807
             Q1:  -11533.536271869438
 Quadratic coef:       0.070882045984
 Linear coef   :      -0.163209522115
           Qmin:  -11533.537893953238
Quadratic minimum step length (  0.826561841027) accepted
    Initial Ne1:    7191.99996333
      Final Ne1:    7192.00000000

=================== Penalty functional idempotency correction ==================
 RMS occupancy error at iteration   1:  0.001127 (step -0.4414 Ne1=   7192.0000)
 RMS occupancy error at iteration   2:  0.000020 (step -0.4998 Ne1=   7192.0000)
            Final RMS occupancy error   :  0.000000 (Ne1=   7192.0000)
               Final occupancy bounds   : [  0.0000,  1.0000]
================================================================================

    8        -1.153344394439E+04     7.3252E-05     6.6255E-05    -1.0298E-01
MG BCs: +ve charge blocks (gridpoints):     31628 (   17491072).
MG BCs: -ve charge blocks (gridpoints):      8349 (    1111696).
MG BCs:     Elided blocks (gridpoints):    183590 (  192100777).
MG BCs: Computational effort saved:  99.9810%.
MG BCs: Charge after coarse-graining:           -9.0010295.
MG DL_MG: Calling solver with defect correction order = 8
MG DL_MG: Solver finished
MG Hartree energy from (\int phi*rho dr):              1429.368594
MG Hartree energy from (\int eps (grad phi)^2 dr):     1428.730510
MG Discrepancy due to finite box and discretization:     -0.638085 (  -0.04464%)
MG Correction to account for finite box:                  0.463871
MG Remaining discrepancy, due to discretization:         -0.174214 (  -0.01219%)
      ideal mu1:      -0.776516821091
             Q0:  -11533.536986817257
             G0:      -0.214450276868
   RMS gradient:       0.000071413604
MG BCs: +ve charge blocks (gridpoints):     31628 (   17490309).
MG BCs: -ve charge blocks (gridpoints):      8345 (    1112088).
MG BCs:     Elided blocks (gridpoints):    183590 (  192101148).
MG BCs: Computational effort saved:  99.9810%.
MG BCs: Charge after coarse-graining:           -9.0010293.
MG DL_MG: Calling solver with defect correction order = 8
MG DL_MG: Solver finished
MG Hartree energy from (\int phi*rho dr):              1428.168171
MG Hartree energy from (\int eps (grad phi)^2 dr):     1427.529959
MG Discrepancy due to finite box and discretization:     -0.638213 (  -0.04469%)
MG Correction to account for finite box:                  0.464083
MG Remaining discrepancy, due to discretization:         -0.174130 (  -0.01219%)
     Trial step:       0.770345811314
             Q1:  -11533.613357971306
 Quadratic coef:       0.088829718470
 Linear coef   :      -0.165200872520
           Qmin:  -11533.613794806608
Quadratic minimum step length (  0.716324459670) accepted
    Initial Ne1:    7192.00006128
      Final Ne1:    7192.00000000

=================== Penalty functional idempotency correction ==================
 RMS occupancy error at iteration   1:  0.002791 (step -0.3762 Ne1=   7192.0000)
 RMS occupancy error at iteration   2:  0.000090 (step -0.4987 Ne1=   7192.0000)
 RMS occupancy error at iteration   3:  0.000001 (step -0.5000 Ne1=   7192.0000)
            Final RMS occupancy error   :  0.000000 (Ne1=   7192.0000)
               Final occupancy bounds   : [  0.0000,  1.0000]
================================================================================

    9        -1.153353698682E+04     7.1414E-05     6.4592E-05    -9.3042E-02
MG BCs: +ve charge blocks (gridpoints):     31628 (   17490367).
MG BCs: -ve charge blocks (gridpoints):      8346 (    1112068).
MG BCs:     Elided blocks (gridpoints):    183590 (  192101110).
MG BCs: Computational effort saved:  99.9810%.
MG BCs: Charge after coarse-graining:           -9.0010293.
MG DL_MG: Calling solver with defect correction order = 8
MG DL_MG: Solver finished
MG Hartree energy from (\int phi*rho dr):              1428.255473
MG Hartree energy from (\int eps (grad phi)^2 dr):     1427.617264
MG Discrepancy due to finite box and discretization:     -0.638209 (  -0.04468%)
MG Correction to account for finite box:                  0.464074
MG Remaining discrepancy, due to discretization:         -0.174135 (  -0.01219%)
      ideal mu1:      -0.775499288481
   10        -1.153361667990E+04     6.0842E-05     5.5030E-05    -7.9693E-02
Finished density kernel iterations (  10)

Writing density kernel to file "host_22901.vacuum_dkn" ... done


>>> Density kernel optimised for the current NGWF basis:
     ~~~~~~~~~~~~~~~~~~~~~~~~~~~~~~~~~~~~~~~~~~~~~~~~~~~~~~~~~~~
     Total energy                =  -1.15336166799042E+04  Eh
     Estimated bandgap           =  -4.1901E-01  Eh
     RMS occupancy error         =   3.9351E-11
     [H,K] commutator            =   5.5030E-05
     Occupancy bounds            = [  0.000:  1.000]
     ~~~~~~~~~~~~~~~~~~~~~~~~~~~~~~~~~~~~~~~~~~~~~~~~~~~~~~~~~~~




################################################################################
########################### NGWF CG iteration  001 #############################
################################################################################
****** Reciprocal space K.E. preconditioning with k_zero =  3.5000 a0^-1 *******

>>> Checking for convergence of NGWFs:   NOT CONVERGED
  ========================================================================
         NGWF RMS gradient =  1.5628E-03 >  2.0000E-06  | above tolerance
  ========================================================================

>>> Improving NGWFs using line search:
============ Calculation of NGWF S^-1 using Hotelling algorithm ================ 
         Iteration  |  Frobenius norm and Maximum abs value    (of I-S*S_n^-1)   
               1       0.19248223E+00     0.50298500E-02
               2       0.86081092E-03     0.39609980E-04
               3       0.29360665E-07     0.25715002E-08
               4       0.12638698E-12     0.66613381E-14
================================================================================
MG BCs: +ve charge blocks (gridpoints):     31069 (   17429356).
MG BCs: -ve charge blocks (gridpoints):      8368 (    1111916).
MG BCs:     Elided blocks (gridpoints):    184150 (  192162273).
MG BCs: Computational effort saved:  99.9813%.
MG BCs: Charge after coarse-graining:           -9.0010272.
MG DL_MG: Calling solver with defect correction order = 8
MG DL_MG: Solver finished
MG Hartree energy from (\int phi*rho dr):              1397.016774
MG Hartree energy from (\int eps (grad phi)^2 dr):     1396.379341
MG Discrepancy due to finite box and discretization:     -0.637433 (  -0.04563%)
MG Correction to account for finite box:                  0.463969
MG Remaining discrepancy, due to discretization:         -0.173464 (  -0.01242%)
============ Calculation of NGWF S^-1 using Hotelling algorithm ================ 
         Iteration  |  Frobenius norm and Maximum abs value    (of I-S*S_n^-1)   
               1       0.18537255E+01     0.40504731E-01
               2       0.71482101E-01     0.23585327E-02
               3       0.14380746E-03     0.94121368E-05
               4       0.10933432E-08     0.15893376E-09
               5       0.10860020E-12     0.42188475E-14
================================================================================
------------------------------- NGWF line search -------------------------------
RMS gradient                =       0.00156275186032
Trial step length           =               0.122474
Gradient along search dir.  =       -269.81261334694
Functional at step 0        =  -11533.61667990416754
Functional at step 1        =  -11564.18710878002457
Functional predicted        =  -11643.92988194096870
Selected quadratic step     =               0.817702
--------------------------- NGWF line search finished --------------------------
                                               
Writing NGWFs to file "host_22901.vacuum_tightbox_ngwfs"....  done

>>> Optimising kernel for current NGWFs:
   Initial electron number for spin 1:    7226.28931725
     Final electron number for spin 1:    7192.00000000

=================== Penalty functional idempotency correction ==================
 RMS occupancy error at iteration   1:  0.004250 (step -0.4861 Ne1=   7192.0000)
 RMS occupancy error at iteration   2:  0.000071 (step -0.5003 Ne1=   7192.0000)
            Final RMS occupancy error   :  0.000000 (Ne1=   7192.0000)
               Final occupancy bounds   : [  0.0000,  1.0000]
================================================================================

................................................................................
<<<<<<<<<<<<<< LNV (Original version) density kernel optimisation >>>>>>>>>>>>>>
~~~~~~~~~~~~~~~~~~~~~~~~~~~~~~~~~~~~~~~~~~~~~~~~~~~~~~~~~~~~~~~~~~~~~~~~~~~~~~~~
   iter  |      energy (Eh)       | rms gradient |  commutator  |   dE (Eh)
MG BCs: +ve charge blocks (gridpoints):     25013 (   17159507).
MG BCs: -ve charge blocks (gridpoints):      8510 (    1095633).
MG BCs:     Elided blocks (gridpoints):    190219 (  192448405).
MG BCs: Computational effort saved:  99.9841%.
MG BCs: Charge after coarse-graining:           -9.0006706.
MG DL_MG: Calling solver with defect correction order = 8
MG DL_MG: Solver finished
MG Hartree energy from (\int phi*rho dr):              1242.043561
MG Hartree energy from (\int eps (grad phi)^2 dr):     1241.406091
MG Discrepancy due to finite box and discretization:     -0.637469 (  -0.05132%)
MG Correction to account for finite box:                  0.463456
MG Remaining discrepancy, due to discretization:         -0.174013 (  -0.01401%)
      ideal mu1:      -0.715096178351
             Q0:  -11643.114020441426
             G0:     -10.128865567452
   RMS gradient:       0.000489252555
MG BCs: +ve charge blocks (gridpoints):     25072 (   17175593).
MG BCs: -ve charge blocks (gridpoints):      8494 (    1091834).
MG BCs:     Elided blocks (gridpoints):    190160 (  192436118).
MG BCs: Computational effort saved:  99.9841%.
MG BCs: Charge after coarse-graining:           -9.0006667.
MG DL_MG: Calling solver with defect correction order = 8
MG DL_MG: Solver finished
MG Hartree energy from (\int phi*rho dr):              1258.660140
MG Hartree energy from (\int eps (grad phi)^2 dr):     1258.017571
MG Discrepancy due to finite box and discretization:     -0.642569 (  -0.05105%)
MG Correction to account for finite box:                  0.462501
MG Remaining discrepancy, due to discretization:         -0.180068 (  -0.01431%)
     Trial step:       0.742844227984
             Q1:  -11642.196791007882
 Quadratic coef:       8.441398756349
 Linear coef   :      -7.524169322806
           Qmin:  -11644.790671599378
Quadratic minimum step length (  0.331063957121) accepted
    Initial Ne1:    7191.99958097
      Final Ne1:    7192.00000000

=================== Penalty functional idempotency correction ==================
 RMS occupancy error at iteration   1:  0.000367 (step -0.4985 Ne1=   7192.0000)
 RMS occupancy error at iteration   2:  0.000000 (step -0.5000 Ne1=   7192.0000)
            Final RMS occupancy error   :  0.000000 (Ne1=   7192.0000)
               Final occupancy bounds   : [  0.0000,  1.0000]
================================================================================

    1        -1.164311402044E+04     4.8925E-04     4.4252E-04
MG BCs: +ve charge blocks (gridpoints):     25038 (   17166799).
MG BCs: -ve charge blocks (gridpoints):      8497 (    1093997).
MG BCs:     Elided blocks (gridpoints):    190194 (  192442749).
MG BCs: Computational effort saved:  99.9841%.
MG BCs: Charge after coarse-graining:           -9.0006688.
MG DL_MG: Calling solver with defect correction order = 8
MG DL_MG: Solver finished
MG Hartree energy from (\int phi*rho dr):              1248.435037
MG Hartree energy from (\int eps (grad phi)^2 dr):     1247.795403
MG Discrepancy due to finite box and discretization:     -0.639634 (  -0.05123%)
MG Correction to account for finite box:                  0.462999
MG Remaining discrepancy, due to discretization:         -0.176635 (  -0.01415%)
      ideal mu1:      -0.721461637715
             Q0:  -11644.762628186261
             G0:      -1.034841677361
   RMS gradient:       0.000157136426
MG BCs: +ve charge blocks (gridpoints):     25041 (   17166349).
MG BCs: -ve charge blocks (gridpoints):      8504 (    1094873).
MG BCs:     Elided blocks (gridpoints):    190191 (  192442323).
MG BCs: Computational effort saved:  99.9841%.
MG BCs: Charge after coarse-graining:           -9.0006688.
MG DL_MG: Calling solver with defect correction order = 8
MG DL_MG: Solver finished
MG Hartree energy from (\int phi*rho dr):              1249.543076
MG Hartree energy from (\int eps (grad phi)^2 dr):     1248.903187
MG Discrepancy due to finite box and discretization:     -0.639889 (  -0.05121%)
MG Correction to account for finite box:                  0.462872
MG Remaining discrepancy, due to discretization:         -0.177017 (  -0.01417%)
     Trial step:       0.495912239858
             Q1:  -11644.978093165439
 Quadratic coef:       0.297725674940
 Linear coef   :      -0.513190654118
           Qmin:  -11644.983775260265
Quadratic minimum step length (  0.427402720321) accepted
    Initial Ne1:    7191.99994418
      Final Ne1:    7192.00000000

=================== Penalty functional idempotency correction ==================
 RMS occupancy error at iteration   1:  0.000158 (step -0.4990 Ne1=   7192.0000)
 RMS occupancy error at iteration   2:  0.000000 (step -0.5000 Ne1=   7192.0000)
            Final RMS occupancy error   :  0.000000 (Ne1=   7192.0000)
               Final occupancy bounds   : [  0.0000,  1.0000]
================================================================================

    2        -1.164476262819E+04     1.5714E-04     1.4213E-04    -1.6486E+00
MG BCs: +ve charge blocks (gridpoints):     25041 (   17166400).
MG BCs: -ve charge blocks (gridpoints):      8503 (    1094780).
MG BCs:     Elided blocks (gridpoints):    190191 (  192442365).
MG BCs: Computational effort saved:  99.9841%.
MG BCs: Charge after coarse-graining:           -9.0006688.
MG DL_MG: Calling solver with defect correction order = 8
MG DL_MG: Solver finished
MG Hartree energy from (\int phi*rho dr):              1249.389778
MG Hartree energy from (\int eps (grad phi)^2 dr):     1248.749925
MG Discrepancy due to finite box and discretization:     -0.639852 (  -0.05121%)
MG Correction to account for finite box:                  0.462890
MG Remaining discrepancy, due to discretization:         -0.176963 (  -0.01416%)
      ideal mu1:      -0.722178836222
             Q0:  -11644.984280011500
             G0:      -0.176098623871
   RMS gradient:       0.000064438854
MG BCs: +ve charge blocks (gridpoints):     25042 (   17165825).
MG BCs: -ve charge blocks (gridpoints):      8504 (    1095155).
MG BCs:     Elided blocks (gridpoints):    190190 (  192442565).
MG BCs: Computational effort saved:  99.9841%.
MG BCs: Charge after coarse-graining:           -9.0006688.
MG DL_MG: Calling solver with defect correction order = 8
MG DL_MG: Solver finished
MG Hartree energy from (\int phi*rho dr):              1248.886411
MG Hartree energy from (\int eps (grad phi)^2 dr):     1248.246671
MG Discrepancy due to finite box and discretization:     -0.639740 (  -0.05122%)
MG Correction to account for finite box:                  0.462791
MG Remaining discrepancy, due to discretization:         -0.176949 (  -0.01417%)
     Trial step:       0.460384882849
             Q1:  -11645.040544808493
 Quadratic coef:       0.024808347327
 Linear coef   :      -0.081073144321
           Qmin:  -11645.050516333527
Quadratic minimum step length (  0.752263936775) accepted
    Initial Ne1:    7191.99998347
      Final Ne1:    7192.00000000

=================== Penalty functional idempotency correction ==================
 RMS occupancy error at iteration   1:  0.000194 (step -0.4899 Ne1=   7192.0000)
 RMS occupancy error at iteration   2:  0.000002 (step -0.5000 Ne1=   7192.0000)
            Final RMS occupancy error   :  0.000000 (Ne1=   7192.0000)
               Final occupancy bounds   : [  0.0000,  1.0000]
================================================================================

    3        -1.164498428001E+04     6.4439E-05     5.8283E-05    -2.2165E-01
MG BCs: +ve charge blocks (gridpoints):     25042 (   17165499).
MG BCs: -ve charge blocks (gridpoints):      8505 (    1095390).
MG BCs:     Elided blocks (gridpoints):    190190 (  192442656).
MG BCs: Computational effort saved:  99.9841%.
MG BCs: Charge after coarse-graining:           -9.0006688.
MG DL_MG: Calling solver with defect correction order = 8
MG DL_MG: Solver finished
MG Hartree energy from (\int phi*rho dr):              1248.567412
MG Hartree energy from (\int eps (grad phi)^2 dr):     1247.927744
MG Discrepancy due to finite box and discretization:     -0.639668 (  -0.05123%)
MG Correction to account for finite box:                  0.462727
MG Remaining discrepancy, due to discretization:         -0.176941 (  -0.01417%)
      ideal mu1:      -0.721017385922
             Q0:  -11645.050526257372
             G0:      -0.074447062948
   RMS gradient:       0.000041930249
MG BCs: +ve charge blocks (gridpoints):     25043 (   17165393).
MG BCs: -ve charge blocks (gridpoints):      8505 (    1095381).
MG BCs:     Elided blocks (gridpoints):    190189 (  192442771).
MG BCs: Computational effort saved:  99.9841%.
MG BCs: Charge after coarse-graining:           -9.0006688.
MG DL_MG: Calling solver with defect correction order = 8
MG DL_MG: Solver finished
MG Hartree energy from (\int phi*rho dr):              1248.590020
MG Hartree energy from (\int eps (grad phi)^2 dr):     1247.950596
MG Discrepancy due to finite box and discretization:     -0.639424 (  -0.05121%)
MG Correction to account for finite box:                  0.462614
MG Remaining discrepancy, due to discretization:         -0.176810 (  -0.01416%)
     Trial step:       0.588498890741
             Q1:  -11645.077200726257
 Quadratic coef:       0.017137545079
 Linear coef   :      -0.043812013964
           Qmin:  -11645.078527534082
Quadratic minimum step length (  0.752246646178) accepted
    Initial Ne1:    7191.99999251
      Final Ne1:    7192.00000000

=================== Penalty functional idempotency correction ==================
 RMS occupancy error at iteration   1:  0.000326 (step -0.4792 Ne1=   7192.0000)
 RMS occupancy error at iteration   2:  0.000004 (step -0.5000 Ne1=   7192.0000)
            Final RMS occupancy error   :  0.000000 (Ne1=   7192.0000)
               Final occupancy bounds   : [  0.0000,  1.0000]
================================================================================

    4        -1.164505052626E+04     4.1930E-05     3.7925E-05    -6.6246E-02
MG BCs: +ve charge blocks (gridpoints):     25043 (   17165368).
MG BCs: -ve charge blocks (gridpoints):      8504 (    1095378).
MG BCs:     Elided blocks (gridpoints):    190189 (  192442799).
MG BCs: Computational effort saved:  99.9841%.
MG BCs: Charge after coarse-graining:           -9.0006688.
MG DL_MG: Calling solver with defect correction order = 8
MG DL_MG: Solver finished
MG Hartree energy from (\int phi*rho dr):              1248.597613
MG Hartree energy from (\int eps (grad phi)^2 dr):     1247.958259
MG Discrepancy due to finite box and discretization:     -0.639355 (  -0.05121%)
MG Correction to account for finite box:                  0.462581
MG Remaining discrepancy, due to discretization:         -0.176774 (  -0.01416%)
      ideal mu1:      -0.721260108992
             Q0:  -11645.078516523470
             G0:      -0.068531044292
   RMS gradient:       0.000040201301
MG BCs: +ve charge blocks (gridpoints):     25043 (   17166717).
MG BCs: -ve charge blocks (gridpoints):      8500 (    1094944).
MG BCs:     Elided blocks (gridpoints):    190189 (  192441884).
MG BCs: Computational effort saved:  99.9841%.
MG BCs: Charge after coarse-graining:           -9.0006685.
MG DL_MG: Calling solver with defect correction order = 8
MG DL_MG: Solver finished
MG Hartree energy from (\int phi*rho dr):              1249.487007
MG Hartree energy from (\int eps (grad phi)^2 dr):     1248.847955
MG Discrepancy due to finite box and discretization:     -0.639052 (  -0.05115%)
MG Correction to account for finite box:                  0.462352
MG Remaining discrepancy, due to discretization:         -0.176700 (  -0.01414%)
     Trial step:       0.665354279192
             Q1:  -11645.105265140766
 Quadratic coef:       0.018848806281
 Linear coef   :      -0.045597423578
           Qmin:  -11645.106092872416
Quadratic minimum step length (  0.804784145071) accepted
    Initial Ne1:    7191.99999032
      Final Ne1:    7192.00000000

=================== Penalty functional idempotency correction ==================
 RMS occupancy error at iteration   1:  0.000924 (step -0.4464 Ne1=   7192.0000)
 RMS occupancy error at iteration   2:  0.000022 (step -0.4993 Ne1=   7192.0000)
            Final RMS occupancy error   :  0.000000 (Ne1=   7192.0000)
               Final occupancy bounds   : [ -0.0000,  1.0000]
================================================================================

    5        -1.164507851652E+04     4.0201E-05     3.6361E-05    -2.7990E-02
MG BCs: +ve charge blocks (gridpoints):     25040 (   17167052).
MG BCs: -ve charge blocks (gridpoints):      8500 (    1094813).
MG BCs:     Elided blocks (gridpoints):    190192 (  192441680).
MG BCs: Computational effort saved:  99.9841%.
MG BCs: Charge after coarse-graining:           -9.0006685.
MG DL_MG: Calling solver with defect correction order = 8
MG DL_MG: Solver finished
MG Hartree energy from (\int phi*rho dr):              1249.674776
MG Hartree energy from (\int eps (grad phi)^2 dr):     1249.035787
MG Discrepancy due to finite box and discretization:     -0.638989 (  -0.05113%)
MG Correction to account for finite box:                  0.462304
MG Remaining discrepancy, due to discretization:         -0.176684 (  -0.01414%)
      ideal mu1:      -0.722239892065
             Q0:  -11645.106435893336
             G0:      -0.058320407433
   RMS gradient:       0.000036554944
MG BCs: +ve charge blocks (gridpoints):     25042 (   17167067).
MG BCs: -ve charge blocks (gridpoints):      8499 (    1094886).
MG BCs:     Elided blocks (gridpoints):    190190 (  192441592).
MG BCs: Computational effort saved:  99.9841%.
MG BCs: Charge after coarse-graining:           -9.0006684.
MG DL_MG: Calling solver with defect correction order = 8
MG DL_MG: Solver finished
MG Hartree energy from (\int phi*rho dr):              1249.454583
MG Hartree energy from (\int eps (grad phi)^2 dr):     1248.815937
MG Discrepancy due to finite box and discretization:     -0.638647 (  -0.05111%)
MG Correction to account for finite box:                  0.461936
MG Remaining discrepancy, due to discretization:         -0.176711 (  -0.01414%)
     Trial step:       0.731755816341
             Q1:  -11645.133601361304
 Quadratic coef:       0.015510829384
 Linear coef   :      -0.042676297351
           Qmin:  -11645.135790647852
Quadratic minimum step length (  1.006671791473) accepted
    Initial Ne1:    7192.00030748
      Final Ne1:    7192.00000000

=================== Penalty functional idempotency correction ==================
 RMS occupancy error at iteration   1:  0.002098 (step -0.3987 Ne1=   7192.0000)
 RMS occupancy error at iteration   2:  0.000067 (step -0.4988 Ne1=   7192.0000)
 RMS occupancy error at iteration   3:  0.000000 (step -0.5000 Ne1=   7192.0000)
            Final RMS occupancy error   :  0.000000 (Ne1=   7192.0000)
               Final occupancy bounds   : [  0.0000,  1.0000]
================================================================================

    6        -1.164510643589E+04     3.6555E-05     3.3063E-05    -2.7919E-02
MG BCs: +ve charge blocks (gridpoints):     25042 (   17167046).
MG BCs: -ve charge blocks (gridpoints):      8499 (    1094916).
MG BCs:     Elided blocks (gridpoints):    190190 (  192441583).
MG BCs: Computational effort saved:  99.9841%.
MG BCs: Charge after coarse-graining:           -9.0006685.
MG DL_MG: Calling solver with defect correction order = 8
MG DL_MG: Solver finished
MG Hartree energy from (\int phi*rho dr):              1249.373747
MG Hartree energy from (\int eps (grad phi)^2 dr):     1248.735210
MG Discrepancy due to finite box and discretization:     -0.638537 (  -0.05111%)
MG Correction to account for finite box:                  0.461817
MG Remaining discrepancy, due to discretization:         -0.176720 (  -0.01414%)
      ideal mu1:      -0.722047335800
             Q0:  -11645.137155984761
             G0:      -0.060420756393
   RMS gradient:       0.000037787293
MG BCs: +ve charge blocks (gridpoints):     25044 (   17165209).
MG BCs: -ve charge blocks (gridpoints):      8502 (    1095467).
MG BCs:     Elided blocks (gridpoints):    190188 (  192442869).
MG BCs: Computational effort saved:  99.9841%.
MG BCs: Charge after coarse-graining:           -9.0006688.
MG DL_MG: Calling solver with defect correction order = 8
MG DL_MG: Solver finished
MG Hartree energy from (\int phi*rho dr):              1248.587784
MG Hartree energy from (\int eps (grad phi)^2 dr):     1247.949293
MG Discrepancy due to finite box and discretization:     -0.638491 (  -0.05114%)
MG Correction to account for finite box:                  0.461733
MG Remaining discrepancy, due to discretization:         -0.176758 (  -0.01416%)
     Trial step:       0.858276143533
             Q1:  -11645.152050806675
 Quadratic coef:       0.036962871873
 Linear coef   :      -0.051857693786
           Qmin:  -11645.155344644547
Quadratic minimum step length (  0.602066603332) accepted
    Initial Ne1:    7191.99999999
      Final Ne1:    7192.00000000

=================== Penalty functional idempotency correction ==================
 RMS occupancy error at iteration   1:  0.000037 (step -0.4977 Ne1=   7192.0000)
            Final RMS occupancy error   :  0.000000 (Ne1=   7192.0000)
               Final occupancy bounds   : [ -0.0000,  1.0000]
================================================================================

    7        -1.164513715598E+04     3.7787E-05     3.4178E-05    -3.0720E-02
MG BCs: +ve charge blocks (gridpoints):     25042 (   17165768).
MG BCs: -ve charge blocks (gridpoints):      8501 (    1095287).
MG BCs:     Elided blocks (gridpoints):    190190 (  192442490).
MG BCs: Computational effort saved:  99.9841%.
MG BCs: Charge after coarse-graining:           -9.0006687.
MG DL_MG: Calling solver with defect correction order = 8
MG DL_MG: Solver finished
MG Hartree energy from (\int phi*rho dr):              1248.820298
MG Hartree energy from (\int eps (grad phi)^2 dr):     1248.181790
MG Discrepancy due to finite box and discretization:     -0.638507 (  -0.05113%)
MG Correction to account for finite box:                  0.461761
MG Remaining discrepancy, due to discretization:         -0.176746 (  -0.01415%)
      ideal mu1:      -0.721546291371
             Q0:  -11645.155358846416
             G0:      -0.051250348963
   RMS gradient:       0.000034792484
MG BCs: +ve charge blocks (gridpoints):     25041 (   17165664).
MG BCs: -ve charge blocks (gridpoints):      8503 (    1095239).
MG BCs:     Elided blocks (gridpoints):    190191 (  192442642).
MG BCs: Computational effort saved:  99.9841%.
MG BCs: Charge after coarse-graining:           -9.0006688.
MG DL_MG: Calling solver with defect correction order = 8
MG DL_MG: Solver finished
MG Hartree energy from (\int phi*rho dr):              1248.614392
MG Hartree energy from (\int eps (grad phi)^2 dr):     1247.976093
MG Discrepancy due to finite box and discretization:     -0.638299 (  -0.05112%)
MG Correction to account for finite box:                  0.461483
MG Remaining discrepancy, due to discretization:         -0.176816 (  -0.01416%)
     Trial step:       0.718845882271
             Q1:  -11645.181418570690
 Quadratic coef:       0.010781378043
 Linear coef   :      -0.036841102317
[...]
MG Hartree energy from (\int phi*rho dr):              1207.436905
MG Hartree energy from (\int eps (grad phi)^2 dr):     1207.254743
MG Discrepancy due to finite box and discretization:     -0.182161 (  -0.01509%)
MG Correction to account for finite box:                  0.006230
MG Remaining discrepancy, due to discretization:         -0.175931 (  -0.01457%)
             Q2:  -11679.579437588574
  Cubic LS coeff:       0.987551659199
Predicted energy:  -11679.579437588651
Cubic minimum step length accepted
    Initial Ne1:    7192.00000000
      Final Ne1:    7192.00000000

=================== Penalty functional idempotency correction ==================
 RMS occupancy error at iteration   1:  0.000000 (step -0.5000 Ne1=   7192.0000)
            Final RMS occupancy error   :  0.000000 (Ne1=   7192.0000)
               Final occupancy bounds   : [  0.0000,  1.0000]
================================================================================

    7        -1.167957943759E+04     7.9094E-09     7.1539E-09    -1.5134E-09

Reusing previously generated solute cavity.
MG BCs: +ve charge blocks (gridpoints):     29052 (   19369808).
MG BCs: -ve charge blocks (gridpoints):      8500 (    1063386).
MG BCs:     Elided blocks (gridpoints):    186180 (  190270351).
MG BCs: Computational effort saved:  99.9822%.
MG BCs: Charge after coarse-graining:           -9.0009719.
MG DL_MG: Calling solver with defect correction order = 8
MG DL_MG: Solver finished
MG Hartree energy from (\int phi*rho dr):              1207.436901
MG Hartree energy from (\int eps (grad phi)^2 dr):     1207.254740
MG Discrepancy due to finite box and discretization:     -0.182161 (  -0.01509%)
MG Correction to account for finite box:                  0.006230
MG Remaining discrepancy, due to discretization:         -0.175931 (  -0.01457%)
      ideal mu1:      -0.481816220815
             Q0:  -11679.579437588691
             G0:      -0.000000003009
   RMS gradient:       0.000000007952

Reusing previously generated solute cavity.
MG BCs: +ve charge blocks (gridpoints):     29052 (   19369808).
MG BCs: -ve charge blocks (gridpoints):      8500 (    1063386).
MG BCs:     Elided blocks (gridpoints):    186180 (  190270351).
MG BCs: Computational effort saved:  99.9822%.
MG BCs: Charge after coarse-graining:           -9.0009719.
MG DL_MG: Calling solver with defect correction order = 8
MG DL_MG: Solver finished
MG Hartree energy from (\int phi*rho dr):              1207.436870
MG Hartree energy from (\int eps (grad phi)^2 dr):     1207.254709
MG Discrepancy due to finite box and discretization:     -0.182161 (  -0.01509%)
MG Correction to account for finite box:                  0.006230
MG Remaining discrepancy, due to discretization:         -0.175931 (  -0.01457%)
     Trial step:       0.656074562907
             Q1:  -11679.579437589156
 Quadratic coef:       0.000000001508
 Linear coef   :      -0.000000001974
           Qmin:  -11679.579437589337
Quadratic minimum step length (  0.429406065490) accepted
    Initial Ne1:    7192.00000000
      Final Ne1:    7192.00000000

=================== Penalty functional idempotency correction ==================
 RMS occupancy error at iteration   1:  0.000000 (step -0.5000 Ne1=   7192.0000)
            Final RMS occupancy error   :  0.000000 (Ne1=   7192.0000)
               Final occupancy bounds   : [  0.0000,  1.0000]
================================================================================

    8        -1.167957943759E+04     7.9518E-09     7.1922E-09    -2.5611E-09

Reusing previously generated solute cavity.
MG BCs: +ve charge blocks (gridpoints):     29052 (   19369808).
MG BCs: -ve charge blocks (gridpoints):      8500 (    1063386).
MG BCs:     Elided blocks (gridpoints):    186180 (  190270351).
MG BCs: Computational effort saved:  99.9822%.
MG BCs: Charge after coarse-graining:           -9.0009719.
MG DL_MG: Calling solver with defect correction order = 8
MG DL_MG: Solver finished
MG Hartree energy from (\int phi*rho dr):              1207.436881
MG Hartree energy from (\int eps (grad phi)^2 dr):     1207.254720
MG Discrepancy due to finite box and discretization:     -0.182161 (  -0.01509%)
MG Correction to account for finite box:                  0.006230
MG Remaining discrepancy, due to discretization:         -0.175931 (  -0.01457%)
      ideal mu1:      -0.481816195091
             Q0:  -11679.579437589273
             G0:      -0.000000001404
   RMS gradient:       0.000000004556

Reusing previously generated solute cavity.
MG BCs: +ve charge blocks (gridpoints):     29052 (   19369808).
MG BCs: -ve charge blocks (gridpoints):      8500 (    1063386).
MG BCs:     Elided blocks (gridpoints):    186180 (  190270351).
MG BCs: Computational effort saved:  99.9822%.
MG BCs: Charge after coarse-graining:           -9.0009719.
MG DL_MG: Calling solver with defect correction order = 8
MG DL_MG: Solver finished
MG Hartree energy from (\int phi*rho dr):              1207.436884
MG Hartree energy from (\int eps (grad phi)^2 dr):     1207.254722
MG Discrepancy due to finite box and discretization:     -0.182161 (  -0.01509%)
MG Correction to account for finite box:                  0.006230
MG Remaining discrepancy, due to discretization:         -0.175931 (  -0.01457%)
     Trial step:       0.530775278933
             Q1:  -11679.579437589040
 Quadratic coef:       0.000000000979
 Linear coef   :      -0.000000000745
           Qmin:  -11679.579437589415
Quadratic minimum step length (  0.202078120513) accepted
    Initial Ne1:    7192.00000000
      Final Ne1:    7192.00000000

=================== Penalty functional idempotency correction ==================
 RMS occupancy error at iteration   1:  0.000000 (step -0.5000 Ne1=   7192.0000)
            Final RMS occupancy error   :  0.000000 (Ne1=   7192.0000)
               Final occupancy bounds   : [  0.0000,  1.0000]
================================================================================

    9        -1.167957943759E+04     4.5561E-09     4.1209E-09    -5.8208E-10

Reusing previously generated solute cavity.
MG BCs: +ve charge blocks (gridpoints):     29052 (   19369808).
MG BCs: -ve charge blocks (gridpoints):      8500 (    1063386).
MG BCs:     Elided blocks (gridpoints):    186180 (  190270351).
MG BCs: Computational effort saved:  99.9822%.
MG BCs: Charge after coarse-graining:           -9.0009719.
MG DL_MG: Calling solver with defect correction order = 8
MG DL_MG: Solver finished
MG Hartree energy from (\int phi*rho dr):              1207.436882
MG Hartree energy from (\int eps (grad phi)^2 dr):     1207.254721
MG Discrepancy due to finite box and discretization:     -0.182161 (  -0.01509%)
MG Correction to account for finite box:                  0.006230
MG Remaining discrepancy, due to discretization:         -0.175931 (  -0.01457%)
      ideal mu1:      -0.481816192791
   10        -1.167957943759E+04     3.5210E-09     3.1847E-09     1.1642E-10
Finished density kernel iterations (  10)

Writing density kernel to file "host_22901.dkn" ... done


>>> Density kernel optimised for the current NGWF basis:
     ~~~~~~~~~~~~~~~~~~~~~~~~~~~~~~~~~~~~~~~~~~~~~~~~~~~~~~~~~~~
     Total energy                =  -1.16795794375892E+04  Eh
     Estimated bandgap           =   9.9324E-02  Eh
     RMS occupancy error         =   2.9753E-16
     [H,K] commutator            =   3.1847E-09
     Occupancy bounds            = [  0.000:  1.000]
     ~~~~~~~~~~~~~~~~~~~~~~~~~~~~~~~~~~~~~~~~~~~~~~~~~~~~~~~~~~~




################################################################################
########################### NGWF CG iteration  004 #############################
################################################################################
****** Reciprocal space K.E. preconditioning with k_zero =  3.5000 a0^-1 *******

>>> Checking for convergence of NGWFs: 
           ........................................................
           |         *** NGWF optimisation converged ***          |
           | RMS NGWF gradient =    0.00000199674529              |
           | Criteria satisfied:                                  |
           | -> RMS NGWF gradient lower than set threshold.       |
           ========================================================

Reusing previously generated solute cavity.
MG BCs: +ve charge blocks (gridpoints):     29052 (   19369808).
MG BCs: -ve charge blocks (gridpoints):      8500 (    1063386).
MG BCs:     Elided blocks (gridpoints):    186180 (  190270351).
MG BCs: Computational effort saved:  99.9822%.
MG BCs: Charge after coarse-graining:           -9.0009719.
MG DL_MG: Calling solver with defect correction order = 8
MG DL_MG: Solver finished
MG Hartree energy from (\int phi*rho dr):              1207.436882
MG Hartree energy from (\int eps (grad phi)^2 dr):     1207.254721
MG Discrepancy due to finite box and discretization:     -0.182161 (  -0.01509%)
MG Correction to account for finite box:                  0.006230
MG Remaining discrepancy, due to discretization:         -0.175931 (  -0.01457%)

================================================================================
           ---------------- ENERGY COMPONENTS (Eh) ----------------
           | Kinetic                    :     8536.05660816386262 |
           | Pseudo. (local,OBC,corr'd) :    -5055.64689872004965 |
           | Pseudopotential (non-local):     1402.75119680224452 |
           | Hartree (molecular)        :     1207.43688208275898 |
           | Exchange-correlation       :    -3358.64026766251800 |
           | Ion-ion (open BC)          :   822411.74853108054958 |
           | Dispersion Correction      :       -3.24512316932337 |
           | Smeared ion non-self corr. :  -822363.52709160232916 |
           | Smeared ion self corr.     :   -14457.16956389741972 |
           | Solvent cavitation energy  :        2.33492602693586 |
           | Solute-solvent dis-rep en. :       -1.67863669391487 |
           | Total                      :   -11679.57943758920192 |
           --------------------------------------------------------
           ------ LOCAL ENERGY COMPONENTS FROM MATRIX TRACES ------
           | Pseudopotential (local)    :    -5055.64689872006693 |
           | Hartree                    :    -1992.85432606487348 |
           --------------------------------------------------------
           Integrated density           :     7191.99999999883312
           Integrated density tr(KS)    :     7191.99999999999909
================================================================================


                        <<<<< CALCULATION SUMMARY >>>>>                         
|ITER|    RMS GRADIENT   |     TOTAL ENERGY    |   step   |     Epredicted              
   0     0.00003941919486 -11679.51663267775439   0.632175 -11679.57089583996458        
   1     0.00001004272660 -11679.57881263562012   0.093567 -11679.57933392226187        
   2     0.00000445315668 -11679.57941604848020   0.017244 -11679.57943493844687        
   3     0.00000199674529 -11679.57943758915644  <-- CG                                 

=================== Finished the calculation in solvent ========================
= Adjusting the following parameters: 
= read_denskern: F
= read_tightbox_ngwfs: F
= maxit_pen: 0 (restored to user-specified value)
= restart read filename prefix: ""
= restart write filename prefix: ""
================================================================================

================================================================================
IS: Calculation in solvent completed (NGWFs converged).      

Individual components of total energy in solvent:     hartree           kcal/mol
- Usual non-electrostatic DFT terms:    -12887.67260900493602    -8087136.485323
- Electrostatic fixed charge energy:      1207.43688208275898      757678.066402
- Apolar cavitation energy:                  2.33492602693586        1465.188171
- Apolar dispersion-repulsion energy:       -1.67863669391487       -1053.360406
 -------------------------------------------------------------------------------
- Total energy in solvent:              -11679.57943758915644    -7329046.591155

Components of total energy in solvent:                hartree           kcal/mol
- Usual non-electrostatic DFT terms:    -12887.67260900493602    -8087136.485323
- Electrostatic energy:                   1207.43688208275898      757678.066402
- Apolar energy terms:                       0.65628933302100         411.827765
 -------------------------------------------------------------------------------
- Total energy in solvent:              -11679.57943758915644    -7329046.591155

Calculation of free energy of solvation:              hartree           kcal/mol
- Total energy in solvent:         (+)  -11679.57943758915644    -7329046.591155
- Total energy in vacuum:          (-)  -11675.73429396678694    -7326633.727156
 -------------------------------------------------------------------------------
- Total free energy of solvation:           -3.84514362236951       -2412.864000

Components of polar term in f.e. of solvation:        hartree           kcal/mol
- Electrostatic:                            -4.70754668034056       -2954.030077
- Change in nonelectrostatic DFT terms:      0.20611372495114         129.338312
 -------------------------------------------------------------------------------
- Polar term in f.e. of solvation:          -4.50143295538942       -2824.691765

Components of free energy of solvation:               hartree           kcal/mol
- Polar term in f.e. of solvation: (+)      -4.50143295538942       -2824.691765
- Apolar (cavitation, dis., rep.): (+)       0.65628933302100         411.827765
 -------------------------------------------------------------------------------
- Total free energy of solvation:           -3.84514362236842       -2412.864000
================================================================================


------------------------------ TIMING INFORMATION ------------------------------
AVERAGE TIME:   31158.928s on     60 node(s)                                    
TOTAL TIME:     31158.929s on     60 node(s)                                    
================= AVERAGE TIMINGS FROM ALL NODES (CUMULATIVE) ==================
|| TAG                                    #calls    cpu time   %total  Gflops ||
|| work_imbalance                       :     1        0.00s   0.000%  ------ ||
|| sparse_set_to_garbage                :   164        0.03s   0.000%  ------ ||
|| parallel_prepare_fd_halos_request    :  1827        0.03s   0.000%  ------ ||
|| parallel_prepare_fd_halos_alloc      :  1827        0.09s   0.000%  ------ ||
|| ngwfs_initialise_from_radial         :     1        0.11s   0.000%  ------ ||
|| basis_extract_function_from_box      :  3360        0.15s   0.000%  ------ ||
|| parallel_prepare_fd_halos_satisfy    :  1827        0.56s   0.002%  ------ ||
|| pseudopotentials_nonlocal_mat        :    28        1.02s   0.003%  ------ ||
|| openbc_locps_radial                  :     1        3.08s   0.010%  ------ ||
|| density_init_guess_real              :     1        3.78s   0.012%  ------ ||
|| restart_kernel_read                  :     1        4.48s   0.014%  ------ ||
|| parallel_prepare_fd_halos_comms_imbal:  1827        8.80s   0.028%  ------ ||
|| restart_ngwfs_tightbox_input         :     1       10.30s   0.033%  ------ ||
|| parallel_prepare_fd_halos_clear      :  1827       19.25s   0.062%  ------ ||
|| sparse_init                          :     2       22.02s   0.071%  ------ ||
|| function_ops_brappd_ketppd           :    28       26.08s   0.084%  ------ ||
|| projectors_func_ovlp_box             :    28       26.30s   0.084%  ------ ||
|| parallel_prepare_fd_halos_comms_wait :  1827       26.97s   0.087%  ------ ||
|| projectors_init_fftbox_recip         :   133       27.51s   0.088%  ------ ||
|| palser_mano_kernel_optimise          :     1       31.45s   0.101%  ------ ||
|| basis_copy_function_to_box           : 54533       42.28s   0.136%  ------ ||
|| ngwf_gradient_coeffs                 :    15       46.26s   0.148%  ------ ||
|| fourier_apply_box_pair               :  4776       52.84s   0.170% 593.699 ||
|| pseudo_make_structure_factor         :     2       54.80s   0.176%  ------ ||
|| parallel_prepare_fd_halos            :  1827       55.72s   0.179%  ------ ||
|| sparse_embed_hotelling_invert_embed  :    28       73.00s   0.234%  ------ ||
|| finite_difference_derivative         :  1827      131.25s   0.421%  ------ ||
|| restart_kernel_write                 :    16      134.21s   0.431%  ------ ||
|| integrals_kinetic                    :    28      137.78s   0.442%  ------ ||
|| basis_dot_function_with_box          : 8.270M     156.66s   0.503%  ------ ||
|| projectors_gradient_batch            :   105      170.68s   0.548%  ------ ||
|| sparse_trace                         :  5264      179.86s   0.577%  ------ ||
|| fourier_apply_cell_backward          :  1219      185.25s   0.595%  98.254 ||
|| fourier_apply_cell_forward           :  1217      212.86s   0.683%  85.367 ||
|| kernel_purify                        :   464      282.84s   0.908%  ------ ||
|| openbc_locps_on_grid                 :     2      283.06s   0.908%  ------ ||
|| basis_add_function_to_box            : 17.20M     370.70s   1.190%  ------ ||
|| lnv_gradient_norm                    :   150      419.63s   1.347%  ------ ||
|| xc_energy_potential                  :   304      465.00s   1.492%  ------ ||
|| hamiltonian_energy_components        :     4      512.75s   1.646%  ------ ||
|| kernel_fix                           :   150      553.61s   1.777%  ------ ||
|| integrals_locpot_mat_els_batch       :  1113      660.30s   2.119%  ------ ||
|| ngwf_gradient_build_batch            :   105      776.66s   2.493%  ------ ||
|| ngwf_gradient_batch                  :   105     1052.83s   3.379%  ------ ||
|| cell_grid_deposit_box_real           : 34897     1114.86s   3.578%  ------ ||
|| density_batch_row_sums               :  2121     1121.95s   3.601%  ------ ||
|| ngwf_gradient_lnv                    :    15     1179.61s   3.786%  ------ ||
|| restart_ngwfs_tightbox_output        :    13     1248.92s   4.008%  ------ ||
|| density_fftbox_deposit_to_cell       : 33027     1721.54s   5.525%  ------ ||
|| sparse_product                       :  6419     1804.60s   5.792%  ------ ||
|| cell_grid_extract_box_real           : 38581     1907.88s   6.123%  ------ ||
|| potential_apply_to_ngwf_batch        :  1113     3623.53s  11.629%  ------ ||
|| density_fftbox_interpolate_multiply  : 33027     3961.78s  12.715%  ------ ||
|| integrals_locpot_dbl_grid            :   159     4304.90s  13.816%  ------ ||
|| fourier_apply_box                    : 113.8k    4747.89s  15.238% 763.024 ||
|| multigrid_prepare_bound_cond         :   304     4860.44s  15.599%  ------ ||
|| density_batch_interp_deposit         :  2121     6533.55s  20.968%  ------ ||
|| dl_mg_solver_calls                   :   304     7368.38s  23.648%  ------ ||
|| density_on_dbl_grid                  :   303     7932.93s  25.460%  ------ ||
|| multigrid_calculate_hartree          :   304    12406.07s  39.815%  ------ ||
|| hamiltonian_lhxc_calculate           :   299    20762.70s  66.635%  ------ ||
|| lnv_denskernel_optimise_cg           :    15    25972.39s  83.355%  ------ ||
|| ngwf_cg_optimise                     :     2    30180.61s  96.860%  ------ ||
|| total_time                           :     1    31158.93s 100.000%  ------ ||
================================================================================
Overhead of generating timer report: 
- 0 ms averaging over threads,
- 15 ms ensuring consistency across MPI ranks,
- 0 ms printing in order.

Job completed: 06-05-2020 15:31 (+0100)

Application 40501587 resources: utime ~6351268s, stime ~315520s, Rss ~4216288, inblocks ~320665227, outblocks ~63948889
