 +---------------------------------------------------------------+
 |                                                               |
 |        ####### #     # ####### ####### ####### ######         |
 |        #     # ##    # #          #    #       #     #        |
 |        #     # # #   # #          #    #       #     #        |
 |        #     # #  #  # #####      #    #####   ######         |
 |        #     # #   # # #          #    #       #              |
 |        #     # #    ## #          #    #       #              |
 |        ####### #     # #######    #    ####### #              |
 |                                                               |
 |        Linear-Scaling Ab Initio Total Energy Program          |
 |                                                               |
 |          Release for academic collaborators of ODG            |
 |                                             Version 5.3.2.6.  |
 |                                                               |
 +---------------------------------------------------------------+
 |                                                               |
 |  Authors:                                                     |
 |  Jacek Dziedzic, Peter D. Haynes, Nicholas D. M. Hine,        |
 |  Arash. A. Mostofi, Mike C. Payne and Chris-Kriton Skylaris   |
 |                                                               |
 |  Contributors:                                                |
 |  J. Aarons, L. Andrinopoulos, P. W. Avraam, R. A. Bell,       |
 |  A. Bhandari, G. A. Bramley, R. J. Charlton, S. J. Clark,     |
 |  R. J. Clements, G. C. Constantinescu, F. Corsetti,           |
 |  N. Corsini, O. Dieguez, S. M. M. Dubois, K. K. B. Duff,      |
 |  J. M. Escartin, A. Greco, H. Helal, Q. O. Hill, L. P. Lee,   |
 |  J.-H. Li, E. B. Linscott, G. Moynihan, D. D. O`Regan,        |
 |  O. K. Okan, M. J. S. Phipps, C. J. Pickard,                  |
 |  J. C. A. Prentice, M. I. J. Probert, L. E. Ratcliff,         |
 |  M. Robinson, A. Ruiz Serrano, J. S. Spencer, E. W. Tait,     |
 |  G. Teobaldi, D. Turban, V. Vitale, K. A. Wilkinson,          |
 |  C. Weber, J. C. Womack, N. Yeung and T. J. Zuehlsdorff       |
 |                                                               |
 |                                   Copyright (c) 2004-2019     |
 |                                                               |
 |  Please cite:                                                 |
 |  "Introducing ONETEP: Linear-scaling density functional       |
 |   simulations on parallel computers".                         |
 |   C.-K. Skylaris, P. D. Haynes, A. A. Mostofi, M. C. Payne.   |
 |   J. Chem. Phys. 122 084119 (2005).                           |
 |                                                               |
 |          in all publications arising from your use of ONETEP. |
 |                                                               |
 +---------------------------------------------------------------+
 |                                                               |
 |   ONETEP is based on developments described in the following  |
 |   publications:                                               |
 |                                                               |
 |  "Nonorthogonal generalized Wannier function pseudopotential  |
 |   plane-wave method".                                         |
 |   C.-K. Skylaris, A. A. Mostofi, P. D. Haynes, O. Dieguez,    |
 |   M. C. Payne.                                                |
 |   Phys. Rev. B 66 035119 (2002).                              |
 |                                                               |
 |  "Preconditioned iterative minimization for linear-scaling    |
 |   electronic structure calculations".                         |
 |   A. A. Mostofi, P. D. Haynes, C.-K. Skylaris, M. C. Payne.   |
 |   J. Chem. Phys. 119(17), pp.8842-8848 (2003).                |
 |                                                               |
 |  "Total-energy calculations on a real space grid with         |
 |   localized functions and a plane-wave basis".                |
 |   A. A. Mostofi, C.-K. Skylaris, P. D. Haynes, M. C. Payne.   |
 |   Comput. Phys. Commun. 147, pp.788-802 (2002).               |
 |                                                               |
 |  "Accurate kinetic energy evaluation in electronic structure  |
 |   calculations with localized functions on real space grids"  |
 |   C.-K. Skylaris, A. A. Mostofi, P. D. Haynes, C. J. Pickard, |
 |   M. C. Payne.                                                |
 |   Comput. Phys. Commun. 140, pp.315-322 (2001).               |
 |                                                               |
 |  "Accurate ionic forces and geometry optimization in linear-  |
 |   scaling density-functional theory with local orbitals"      |
 |   N. D. M. Hine, M. Robinson, P. D. Haynes, C.-K. Skylaris,   |
 |   M. C. Payne, and A. A. Mostofi.                             |
 |   Phys. Rev. B 83 195102 (2011).                              |
 |                                                               |
 +---------------------------------------------------------------+

Job started: 27-03-2020 21:58 (-0000)
 
Reading parameters from file "complex_30121.dat" ...... done

If your calculation crashes here, before "Checking processes and threads..."
is displayed, then your stack size is insufficient.
If so, use "ulimit -s unlimited" at runtime.
You can disable this check with "check_stack_size F".

Checking processes and threads...
   Determining the default number of threads...
      No default threads set at compilation time: defaulting to 1.
      OpenMP library call suggests 4 threads.
      Hybrid MPI-OpenMP compilation detected.
      Number of MPI processes > 1.
      OMP_NUM_THREADS environment variable present and
      its value matches the one obtained from the OpenMP library call.
      Using this value as default.
      Default threads: 4
      Default applies to threads_max and threads_num_fftboxes.
      Settings in the input file override this default.
   ... done

   Running with 60 MPI processes.
   There are 6 MPI processes running on the same node as the root process.
   Each MPI process is using: 
               1 threads for simulation cell FFTs.
               1 threads for parallel FFT box operations.
               4 threads for loops over batched FFT box operations.
               4 threads in other parallel regions.
... done

Basic input checks...... done

Reading geometry and species blocks from file "complex_30121.dat" ...
  <species_atomic_set> block not found: NGWF initialisation set to SOLVE
IS: Dielectric excluded regions:
    - NONE.
    
  Number of PPD points along a3 set to 1.  This is 
  the default value, it may have been provided also in the input file.
... done
 Writing xyz coordinates to file "complex_30121.xyz" ... done


--------------------------------------------------------------------------------
---------------------------------- INPUT FILE ----------------------------------
--------------------------------------------------------------------------------

cutoff_energy       : 800 eV                                                    
xc_functional VV10                                                              
task SINGLEPOINT                                                                
write_xyz true                                                                  
output_detail VERBOSE                                                           
ngwf_threshold_orig : 0.000002                                                  
kernel_cutoff       : 1000                                                      
k_zero              : 3.5                                                       
elec_cg_max 0                                                                   
occ_mix 1.0                                                                     
dispersion 0                                                                    
maxit_ngwf_cg 40                                                                
minit_lnv 10                                                                    
maxit_lnv 10                                                                    
write_denskern T                                                                
write_tightbox_ngwfs T                                                          
charge 9                                                                        
is_implicit_solvent T                                                           
is_auto_solvation T                                                             
is_include_apolar T                                                             
is_smeared_ion_rep T                                                            
is_solvent_surf_tension 4.7624E-5 Ha/bohr**2                                    
is_apolar_scaling_factor 0.281075                                               
is_solvation_beta 1.3                                                           
is_density_threshold 0.00035                                                    
is_bulk_permittivity 78.54                                                      
is_dielectric_model fix_initial                                                 
is_smeared_ion_width 0.8                                                        
mg_defco_fd_order 8                                                             
is_bc_coarseness 10                                                             
is_bc_surface_coarseness 1                                                      
fine_grid_scale 2.0                                                             
%block species                                                                  
N   N   7 4 8.0                                                                 
H   H   1 1 8.0                                                                 
C   C   6 4 8.0                                                                 
S   S  16 9 8.0                                                                 
O   O   8 4 8.0                                                                 
%endblock species                                                               
%block species_pot                                                              
N   N_00.recpot                                                                 
H   H_04.recpot                                                                 
C   C_01.recpot                                                                 
S   S_00.recpot                                                                 
O   O_02.recpot                                                                 
%endblock species_pot                                                           
%block lattice_cart                                                             
139.252   0.000   0.000                                                         
0.000 142.425   0.000                                                           
0.000   0.000   162.84                                                          
%endblock lattice_cart                                                          
%block positions_abs                                                            
     Hash =   000006056211789616228820
%endblock positions_abs                                                         

--------------------------------------------------------------------------------
-------------------------------- END INPUT FILE --------------------------------
--------------------------------------------------------------------------------


 
 ESDF WARNING(1): "kernelcutoff" (esdf_physical) has no units. Assume "bohr".
 ESDF WARNING(2): "kzero" (esdf_physical) has no units. Assume "1/bohr".
 ESDF WARNING(3
 ): "issmearedionwidth" (esdf_physical) has no units. Assume "bohr".
<<<<<<<<<<<<<<<<<<<<<<<<<<<<<<<<< Full system >>>>>>>>>>>>>>>>>>>>>>>>>>>>>>>>>>
<<<<<<<<<<<<<<<<<<<<<<<<< Pseudopotential information >>>>>>>>>>>>>>>>>>>>>>>>>>
File: N_00.recpot [ 2001 points up to Gmax=  52.9 (1/bohr)]
  Atomic number:  7;  ionic charge:  5.000000
    Shell 1: l = 0; rc = 1.48 bohr
File: H_04.recpot [ 2001 points up to Gmax=  52.9 (1/bohr)]
  Atomic number:  1;  ionic charge:  1.000000
    Local potential
File: C_01.recpot [ 2001 points up to Gmax=  52.9 (1/bohr)]
  Atomic number:  6;  ionic charge:  4.000000
    Shell 1: l = 0; rc = 1.48 bohr
File: S_00.recpot [ 2001 points up to Gmax=  52.9 (1/bohr)]
  Atomic number: 16;  ionic charge:  6.000000
    Shell 1: l = 0; rc = 1.90 bohr
    Shell 2: l = 2; rc = 1.84 bohr
File: O_02.recpot [ 2001 points up to Gmax=  52.9 (1/bohr)]
  Atomic number:  8;  ionic charge:  6.000000
    Shell 1: l = 0; rc = 1.31 bohr
<<<<<<<<<<<<<<<<<<<<<<<<<<<<<<<<<<<<<<<<>>>>>>>>>>>>>>>>>>>>>>>>>>>>>>>>>>>>>>>>

-------------------------- Atom counting information ---------------------------
Symbol    Natoms    Nngwfs    Nprojs
  N        237       948       237
  H       1318      1318         0
  C        816      3264       816
  S          6        54        36
  O        240       960       240
.......   ......    ......    ......
Totals:   2617      6544      1329
--------------------------------------------------------------------------------

=============================== PSINC grid sizes ===============================
                      Simulation cell:  275 x 280 x 320
                              FFT-box:   99 x  99 x  99
                                  PPD:    5 x   5 x   1
Grid space d1=  0.506370909091a0 (KE cutoff=  29.62556Eh = 806.15239eV)
Grid space d2=  0.508660714286a0 (KE cutoff=  29.35943Eh = 798.91072eV)
Grid space d3=  0.508875000000a0 (KE cutoff=  29.33471Eh = 798.23802eV)
================================================================================

********************* Fourier parallelisation information **********************
       Coarse grid (whole simulation cell) dimensions:    275   280   320
          Real-space ('12') slabs/node (min max mean):      5     6     5
         Recip-space ('23') slabs/node (min max mean):      2     3     2
********************************************************************************

********************* Fourier parallelisation information **********************
       Double grid (whole simulation cell) dimensions:    550   560   640
          Real-space ('12') slabs/node (min max mean):     10    11    10
         Recip-space ('23') slabs/node (min max mean):      4     5     4
********************************************************************************
ONETEP fine grid is 550 x 560 x 640 gridpoints, 139.2520 x 142.4250 x 162.8400 bohr.
FD multigrid is     545 x 553 x 633 gridpoints, 137.9861 x 140.6447 x 161.0589 bohr.


Calculating local pseudopotential in open BC on a radial grid ...
Discrepancy between calculated realspace psloc and -Z/x on [5a0,257.280a0]:
max |rel. diff| # avg |rel. diff| #  avg rel. diff #  f # pseudopotential file
 0.000256370913    0.000003612608   0.000000072509   55  'N_00.recpot'
 0.000395389207    0.000016224277  -0.000000076597   55  'H_04.recpot'
 0.000377360759    0.000017565724   0.000000149252   55  'C_01.recpot'
 0.000469715301    0.000020587835   0.000000455518   55  'S_00.recpot'
 0.000665442002    0.000026079317   0.000000158685   55  'O_02.recpot'
... done

Atom SCF Calculation for N  : Z (AE atom) =   7 : Z (PS atom) =   5
Config String:
Orbitals (num,occ):  2     2.00 3.00
Orbitals   (num,l):  2        0    1
Real-space Grid (nr,dr,rmax): 1203    0.0066555740    8.0000000000
Spherical Bessel Basis (nsws,lmax,cutoff):   47    1  176.3951722778
Confining potential (l,width,scale):  0    3.0000000000  100.0000000000
Confining potential (l,width,scale):  1    3.0000000000  100.0000000000
  1         -4.7366890484   -3.4501654188    7.0523828109   -1.9619316308
  2         -9.7225420322   -2.0763080851    8.3068355706   -2.2908832437
  3         -9.7134243553   -2.1270543915    8.2534567806   -2.2819809971
  4         -9.7235185949   -2.1427582218    8.2369947390   -2.2802814234
  5         -9.7258373845   -2.1477905863    8.2317116314   -2.2798536235
  6         -9.7268932325   -2.1503512400    8.2290229806   -2.2796830099
  7         -9.7273189469   -2.1516634231    8.2276451699   -2.2796169657
  8         -9.7274675212   -2.1523365544    8.2269384796   -2.2795940092
  9         -9.7275041773   -2.1526817003    8.2265762312   -2.2795881371
 10         -9.7275008637   -2.1528585007    8.2263907413   -2.2795884060
 11         -9.7274868305   -2.1529489544    8.2262958841   -2.2795903922
 12         -9.7274755655   -2.1529859230    8.2262571347   -2.2795920452
 13         -9.7274662327   -2.1530083995    8.2262335832   -2.2795934369
 14         -9.7274589439   -2.1530220534    8.2262192809   -2.2795945372
 15         -9.7274534633   -2.1530303399    8.2262106039   -2.2795953734
 16         -9.7274494492   -2.1530353634    8.2262053452   -2.2795959920
 17         -9.7274465654   -2.1530384053    8.2262021621   -2.2795964406
 18         -9.7274445237   -2.1530402447    8.2262002378   -2.2795967611
 19         -9.7274430947   -2.1530413553    8.2261990762   -2.2795969874
 20         -9.7274421038   -2.1530420249    8.2261983762   -2.2795971458
 21         -9.7274414219   -2.1530424277    8.2261979551   -2.2795972557
 22         -9.7274409555   -2.1530426696    8.2261977024   -2.2795973315
 23         -9.7274406382   -2.1530428144    8.2261975510   -2.2795973835
 24         -9.7274404232   -2.1530429010    8.2261974606   -2.2795974190
 25         -9.7274402783   -2.1530429525    8.2261974067   -2.2795974432
 26         -9.7274401808   -2.1530429831    8.2261973748   -2.2795974596
Atom SCF converged after  26 iterations to a total energy of     -9.72744018

Atom SCF Calculation for H  : Z (AE atom) =   1 : Z (PS atom) =   1
Config String:
Orbitals (num,occ):  1     1.00
Orbitals   (num,l):  1        0
Real-space Grid (nr,dr,rmax): 1203    0.0066555740    8.0000000000
Spherical Bessel Basis (nsws,lmax,cutoff):   47    0  176.3951722778
Confining potential (l,width,scale):  0    3.0000000000  100.0000000000
  1         -0.3178661827   -0.2469879004    0.2820953124   -0.2487802071
  2         -0.3961824611   -0.2455070831    0.2902209900   -0.2567664324
  3         -0.4406462424   -0.2424227551    0.2948173255   -0.2622129794
  4         -0.4569739054   -0.2416771342    0.2960118236   -0.2639986016
  5         -0.4627745219   -0.2416114401    0.2961916694   -0.2644992007
  6         -0.4648634749   -0.2416666130    0.2961598921   -0.2646237065
  7         -0.4656347011   -0.2417155160    0.2961132802   -0.2646490719
  8         -0.4659271144   -0.2417438448    0.2960836537   -0.2646515522
  9         -0.4660407254   -0.2417580788    0.2960682004   -0.2646501482
 10         -0.4660857867   -0.2417647566    0.2960608087   -0.2646488305
 11         -0.4661039568   -0.2417677717    0.2960574330   -0.2646480606
 12         -0.4661113773   -0.2417691018    0.2960559329   -0.2646476727
 13         -0.4661144368   -0.2417696800    0.2960552775   -0.2646474903
 14         -0.4661157072   -0.2417699291    0.2960549942   -0.2646474079
 15         -0.4661162374   -0.2417700356    0.2960548727   -0.2646473715
 16         -0.4661164596   -0.2417700810    0.2960548208   -0.2646473556
 17         -0.4661165529   -0.2417701003    0.2960547987   -0.2646473488
Atom SCF converged after  17 iterations to a total energy of     -0.46611655

Atom SCF Calculation for C  : Z (AE atom) =   6 : Z (PS atom) =   4
Config String:
Orbitals (num,occ):  2     2.00 2.00
Orbitals   (num,l):  2        0    1
Real-space Grid (nr,dr,rmax): 1203    0.0066555740    8.0000000000
Spherical Bessel Basis (nsws,lmax,cutoff):   47    1  176.3951722778
Confining potential (l,width,scale):  0    3.0000000000  100.0000000000
Confining potential (l,width,scale):  1    3.0000000000  100.0000000000
  1         -5.2812238291   -1.3293161250    4.5135249990   -1.4716766231
  2         -5.3996591362   -1.3542148509    4.4876064308   -1.4645117417
  3         -5.4111847148   -1.3757224423    4.4645718036   -1.4593107263
  4         -5.4199203659   -1.3833334895    4.4563636676   -1.4579885221
  5         -5.4226876204   -1.3865104950    4.4529090432   -1.4575385943
  6         -5.4235070726   -1.3878131251    4.4514866831   -1.4573882877
  7         -5.4237271252   -1.3883401868    4.4509094528   -1.4573411661
  8         -5.4237693051   -1.3885521813    4.4506766230   -1.4573281030
  9         -5.4237656430   -1.3886371046    4.4505830704   -1.4573255254
 10         -5.4237547927   -1.3886709976    4.4505456041   -1.4573257244
 11         -5.4237478594   -1.3886817763    4.4505336403   -1.4573262476
 12         -5.4237429748   -1.3886873440    4.4505274417   -1.4573266921
 13         -5.4237397042   -1.3886902144    4.4505242350   -1.4573270222
 14         -5.4237375865   -1.3886916908    4.4505225792   -1.4573272507
 15         -5.4237362473   -1.3886924482    4.4505217259   -1.4573274021
 16         -5.4237354152   -1.3886928356    4.4505212873   -1.4573274996
 17         -5.4237349050   -1.3886930331    4.4505210623   -1.4573275610
 18         -5.4237345954   -1.3886931333    4.4505209473   -1.4573275991
 19         -5.4237344092   -1.3886931840    4.4505208887   -1.4573276224
 20         -5.4237342980   -1.3886932094    4.4505208590   -1.4573276366
 21         -5.4237342320   -1.3886932221    4.4505208440   -1.4573276451
Atom SCF converged after  21 iterations to a total energy of     -5.42373423

Atom SCF Calculation for S  : Z (AE atom) =  16 : Z (PS atom) =   6
Config String:
Orbitals (num,occ):  3     2.00 4.00 0.00
Orbitals   (num,l):  3        0    1    2
Real-space Grid (nr,dr,rmax): 1203    0.0066555740    8.0000000000
Spherical Bessel Basis (nsws,lmax,cutoff):   47    2  176.3951722778
Confining potential (l,width,scale):  0    3.0000000000  100.0000000000
Confining potential (l,width,scale):  1    3.0000000000  100.0000000000
Confining potential (l,width,scale):  2    3.0000000000  100.0000000000
  1        -12.4916237786   -1.0485914554   10.1554312477   -2.4822447765
  2         -9.9747083603   -2.4807597367    8.3138131863   -2.0618837268
  3        -10.1811370131   -2.3153496392    8.4906092179   -2.1137756843
  4        -10.1856385898   -2.2984912006    8.5093862195   -2.1218167101
  5        -10.1891317560   -2.2894783333    8.5195006030   -2.1261392389
  6        -10.1911142562   -2.2849160124    8.5246320974   -2.1283733378
  7        -10.1921506977   -2.2826473329    8.5271859473   -2.1295140514
  8        -10.1926851273   -2.2815219985    8.5284534218   -2.1300957983
  9        -10.1929632671   -2.2809620806    8.5290843811   -2.1303933136
 10        -10.1931100895   -2.2806822783    8.5293998452   -2.1305460626
 11        -10.1931885828   -2.2805418782    8.5295582201   -2.1306248009
 12        -10.1932309625   -2.2804711729    8.5296380158   -2.1306655459
 13        -10.1932540142   -2.2804354512    8.5296783476   -2.1306867097
 14        -10.1932666242   -2.2804173494    8.5296987927   -2.1306977435
 15        -10.1932735535   -2.2804081489    8.5297091868   -2.1307035175
 16        -10.1932773756   -2.2804034581    8.5297144867   -2.1307065505
 17        -10.1932794908   -2.2804010586    8.5297171976   -2.1307081499
 18        -10.1932806648   -2.2803998268    8.5297185890   -2.1307089965
 19        -10.1932813181   -2.2803991920    8.5297193057   -2.1307094466
 20        -10.1932816826   -2.2803988634    8.5297196763   -2.1307096867
 21        -10.1932818864   -2.2803986926    8.5297198688   -2.1307098154
 22        -10.1932820006   -2.2803986034    8.5297199692   -2.1307098847
 23        -10.1932820648   -2.2803985565    8.5297200219   -2.1307099221
Atom SCF converged after  23 iterations to a total energy of    -10.19328206

Atom SCF Calculation for O  : Z (AE atom) =   8 : Z (PS atom) =   6
Config String:
Orbitals (num,occ):  2     2.00 4.00
Orbitals   (num,l):  2        0    1
Real-space Grid (nr,dr,rmax): 1203    0.0066555740    8.0000000000
Spherical Bessel Basis (nsws,lmax,cutoff):   47    1  176.3951722778
Confining potential (l,width,scale):  0    3.0000000000  100.0000000000
Confining potential (l,width,scale):  1    3.0000000000  100.0000000000
  1         -1.9497477053   -7.5870966769   10.1554312477   -2.4822447765
  2        -15.9466298225   -3.1778351734   13.6353006614   -3.2931224232
  3        -16.0387051750   -3.0909030611   13.7305651010   -3.3194522996
  4        -15.9025031450   -3.1083023605   13.7128101414   -3.3180850501
  5        -15.8912953362   -3.1033022259   13.7185404266   -3.3206942093
  6        -15.8793912992   -3.1043100674   13.7175820250   -3.3209366960
  7        -15.8748748605   -3.1043975610   13.7175531476   -3.3211845618
  8        -15.8725354084   -3.1044655610   13.7175148333   -3.3213149154
  9        -15.8713193866   -3.1045129589   13.7174824743   -3.3213832909
 10        -15.8706863385   -3.1045436851   13.7174593895   -3.3214192053
 11        -15.8703562731   -3.1045627330   13.7174442347   -3.3214381098
 12        -15.8701839150   -3.1045741887   13.7174347673   -3.3214480859
 13        -15.8700937727   -3.1045809294   13.7174290448   -3.3214533647
 14        -15.8700465571   -3.1045848305   13.7174256662   -3.3214561658
 15        -15.8700217888   -3.1045870593   13.7174237063   -3.3214576563
 16        -15.8700087767   -3.1045883194   13.7174225849   -3.3214584516
 17        -15.8700019307   -3.1045890258   13.7174219502   -3.3214588771
 18        -15.8699983237   -3.1045894190   13.7174215942   -3.3214591053
 19        -15.8699964206   -3.1045896366   13.7174213960   -3.3214592281
 20        -15.8699954151   -3.1045897563   13.7174212864   -3.3214592942
 21        -15.8699948832   -3.1045898219   13.7174212260   -3.3214593299
 22        -15.8699946014   -3.1045898577   13.7174211930   -3.3214593493
 23        -15.8699944520   -3.1045898771   13.7174211750   -3.3214593597
 24        -15.8699943726   -3.1045898877   13.7174211652   -3.3214593654
Atom SCF converged after  24 iterations to a total energy of    -15.86999437

========================== Calculation in vacuum ==============================
= Adjusting the following parameters: 
= is_implicit_solvent: F
= is_include_apolar: F
= write_denskern: T
= write_tightbox_ngwfs: T
= restart read filename prefix: ""
= restart write filename prefix: "vacuum_"
===============================================================================

Determining parallel strategy ...
... using space-filling curve
... NGWF load balancing: max    110;  min    109;  average    109
... Projector load balancing: max     26;  min     21;  average     22
... done
Calculating direct Ion-Ion energy ...
Ion-Ion Energy        :    837150.82153532851953
Basis initialisation ...... NGWF spheres initialised
... Projector spheres initialised
... NGWF tight boxes initialised
... Tight-boxes gathered
... NGWF basis size (local,global):    1387131  83212680
... Nonlocal pseudopotential projector initialisation
... done

========================== Sparse matrix information ===========================
                        Overlap matrix filling:   6.78%
                        Density kernel filling: 100.00%
              NGWF-Proj overlap matrix filling:   1.78%
                    Hamiltonian matrix filling:   7.68%
                  NGWF diagonal matrix filling:   0.05%
                             KS matrix filling: 100.00% 
                           KSKS matrix filling: 100.00% 
================================================================================

Sparse matrix initialisation ... done

Generating smeared ion density ... done
Smeared ion self correction:     -14538.952731
Smeared ion non-self correction: -837102.465053
NGWF initialisation ...... done
============ Calculation of NGWF S^-1 using Hotelling algorithm ================ 
         Iteration  |  Frobenius norm and Maximum abs value    (of I-S*S_n^-1)   
               1       0.78672862E+02     0.98220267E+00
               2       0.76783883E+02     0.96485437E+00
               3       0.73731943E+02     0.93143795E+00
               4       0.69407730E+02     0.86983361E+00
               5       0.64041406E+02     0.76452781E+00
               6       0.58036617E+02     0.70006962E+00
               7       0.52028884E+02     0.66894567E+00
               8       0.46468953E+02     0.64293590E+00
               9       0.40320810E+02     0.60258444E+00
              10       0.31929352E+02     0.53323185E+00
              11       0.21282125E+02     0.42187906E+00
              12       0.10750467E+02     0.27118345E+00
              13       0.34924535E+01     0.12785671E+00
              14       0.54290792E+00     0.34749830E-01
              15       0.25747849E-01     0.30697663E-02
              16       0.14625025E-03     0.29387909E-04
              17       0.11140406E-07     0.30052562E-08
              18       0.89573102E-13     0.55511151E-14
================================================================================
Calculating local pseudopotential in open BC on the fine real space grid ...
... done

MG BCs: +ve charge blocks (gridpoints):     19934 (   15644329).
MG BCs: -ve charge blocks (gridpoints):      8009 (    1063134).
MG BCs:     Elided blocks (gridpoints):    177186 (  174069242).
MG BCs: Computational effort saved:  99.9854%.
MG BCs: Charge after coarse-graining:           -9.0002229.
MG DL_MG: Calling solver with defect correction order = 8
MG DL_MG: Solver finished
MG Hartree energy from (\int phi*rho dr):              1461.438516
MG Hartree energy from (\int eps (grad phi)^2 dr):     1460.811333
MG Discrepancy due to finite box and discretization:     -0.627182 (  -0.04292%)
MG Correction to account for finite box:                  0.463275
MG Remaining discrepancy, due to discretization:         -0.163907 (  -0.01122%)
Up spin density kernel initialisation ... 
======= Optimisation of K by Palser-Manolopoulos canonical purification ======== 
         Iteration  |  Band structure energy |    c_n   
               1       -2589.54552802734997    0.5271227
               2       -2766.54110201526873    0.5174458
               3       -2948.05214382330905    0.5160358
               4       -3099.46164319894888    0.5300466
               5       -3192.37836287160553    0.5665862
               6       -3231.20609123714985    0.6118191
               7       -3244.45123460337254    0.6239839
               8       -3250.23620520219902    0.6238146
               9       -3253.06060300004128    0.6403830
              10       -3254.23914080616851    0.6600805
              11       -3254.72145693480616    0.6638467
              12       -3254.94879730162029    0.6540375
              13       -3255.06345357970440    0.6168714
              14       -3255.12620923157010    0.5607217
              15       -3255.15739491553813    0.5358692
              16       -3255.16619322972201    0.5749849
              17       -3255.16776703129608    0.6340771
              18       -3255.16816240557682    0.6647281
              19       -3255.16825791748352    0.6654749
              20       -3255.16830252506497    0.6625465
              21       -3255.16833285227585    0.6583828
              22       -3255.16835841048669    0.6516782
              23       -3255.16838457660015    0.6405423
              24       -3255.16841447062870    0.6224367
              25       -3255.16844945729190    0.5948922
              26       -3255.16848861512563    0.5585046
              27       -3255.16852760533493    0.5226887
              28       -3255.16855860926717    0.5033774
              29       -3255.16857449556937    0.5000713
              30       -3255.16857777763516    0.5000000
              31       -3255.16857789296046    0.5000000
Termination criterion satisfied: band energy change below threshold.
Final occupancy bounds: [    0.00000000000197:    0.99999999998366]
Closest occupancy to 0.5:     0.99999999998700
================================================================================
... done

Writing density kernel to file "complex_30121.vacuum_dkn" ... done

>>> Optimising kernel for current NGWFs:
   Initial electron number for spin 1:    7234.00000000
     Final electron number for spin 1:    7234.00000000

=================== Penalty functional idempotency correction ==================
 RMS occupancy error at iteration   1:  0.000000 (step -0.5000 Ne1=   7234.0000)
            Final RMS occupancy error   :  0.000000 (Ne1=   7234.0000)
               Final occupancy bounds   : [  0.0000,  1.0000]
================================================================================

................................................................................
<<<<<<<<<<<<<< LNV (Original version) density kernel optimisation >>>>>>>>>>>>>>
~~~~~~~~~~~~~~~~~~~~~~~~~~~~~~~~~~~~~~~~~~~~~~~~~~~~~~~~~~~~~~~~~~~~~~~~~~~~~~~~
   iter  |      energy (Eh)       | rms gradient |  commutator  |   dE (Eh)
MG BCs: +ve charge blocks (gridpoints):     30701 (   16887875).
MG BCs: -ve charge blocks (gridpoints):      8306 (    1092082).
MG BCs:     Elided blocks (gridpoints):    166411 (  172796748).
MG BCs: Computational effort saved:  99.9796%.
MG BCs: Charge after coarse-graining:           -9.0009592.
MG DL_MG: Calling solver with defect correction order = 8
MG DL_MG: Solver finished
MG Hartree energy from (\int phi*rho dr):              1424.894026
MG Hartree energy from (\int eps (grad phi)^2 dr):     1424.210605
MG Discrepancy due to finite box and discretization:     -0.683421 (  -0.04796%)
MG Correction to account for finite box:                  0.474245
MG Remaining discrepancy, due to discretization:         -0.209176 (  -0.01468%)
      ideal mu1:      -0.702643554931
             Q0:  -11586.406136276782
             G0:    -147.928968106106
   RMS gradient:       0.001858588832
MG BCs: +ve charge blocks (gridpoints):     30712 (   16968252).
MG BCs: -ve charge blocks (gridpoints):      8222 (    1074883).
MG BCs:     Elided blocks (gridpoints):    166402 (  172733570).
MG BCs: Computational effort saved:  99.9796%.
MG BCs: Charge after coarse-graining:           -9.0009807.
MG DL_MG: Calling solver with defect correction order = 8
MG DL_MG: Solver finished
MG Hartree energy from (\int phi*rho dr):              1444.964176
MG Hartree energy from (\int eps (grad phi)^2 dr):     1444.299252
MG Discrepancy due to finite box and discretization:     -0.664924 (  -0.04602%)
MG Correction to account for finite box:                  0.472940
MG Remaining discrepancy, due to discretization:         -0.191985 (  -0.01329%)
     Trial step:       0.500000000000
             Q1:  -11598.109802573686
 Quadratic coef:      62.260817756149
 Linear coef   :     -73.964484053053
           Qmin:  -11608.373181917996
Quadratic minimum step length (  0.296994509222) accepted
    Initial Ne1:    7234.00000000
      Final Ne1:    7234.00000000

=================== Penalty functional idempotency correction ==================
 RMS occupancy error at iteration   1:  0.003511 (step -0.4880 Ne1=   7234.0000)
 RMS occupancy error at iteration   2:  0.000029 (step -0.5001 Ne1=   7234.0000)
            Final RMS occupancy error   :  0.000000 (Ne1=   7234.0000)
               Final occupancy bounds   : [  0.0000,  1.0000]
================================================================================

    1        -1.158640613628E+04     1.8586E-03     1.6813E-03
MG BCs: +ve charge blocks (gridpoints):     30708 (   16937143).
MG BCs: -ve charge blocks (gridpoints):      8263 (    1082151).
MG BCs:     Elided blocks (gridpoints):    166405 (  172757411).
MG BCs: Computational effort saved:  99.9796%.
MG BCs: Charge after coarse-graining:           -9.0009720.
MG DL_MG: Calling solver with defect correction order = 8
MG DL_MG: Solver finished
MG Hartree energy from (\int phi*rho dr):              1428.663593
MG Hartree energy from (\int eps (grad phi)^2 dr):     1427.992242
MG Discrepancy due to finite box and discretization:     -0.671351 (  -0.04699%)
MG Correction to account for finite box:                  0.473327
MG Remaining discrepancy, due to discretization:         -0.198023 (  -0.01386%)
      ideal mu1:      -0.744843510603
             Q0:  -11608.807561405818
             G0:     -12.265838987081
   RMS gradient:       0.000531380908
MG BCs: +ve charge blocks (gridpoints):     30716 (   16954152).
MG BCs: -ve charge blocks (gridpoints):      8239 (    1077612).
MG BCs:     Elided blocks (gridpoints):    166398 (  172744941).
MG BCs: Computational effort saved:  99.9796%.
MG BCs: Charge after coarse-graining:           -9.0009758.
MG DL_MG: Calling solver with defect correction order = 8
MG DL_MG: Solver finished
MG Hartree energy from (\int phi*rho dr):              1432.950114
MG Hartree energy from (\int eps (grad phi)^2 dr):     1432.282964
MG Discrepancy due to finite box and discretization:     -0.667150 (  -0.04656%)
MG Correction to account for finite box:                  0.472534
MG Remaining discrepancy, due to discretization:         -0.194616 (  -0.01358%)
     Trial step:       0.385353415206
             Q1:  -11611.706151529914
 Quadratic coef:       1.828092819946
 Linear coef   :      -4.726682944042
           Qmin:  -11611.862867379581
Quadratic minimum step length (  0.498181327340) accepted
    Initial Ne1:    7233.99986863
      Final Ne1:    7234.00000000

=================== Penalty functional idempotency correction ==================
 RMS occupancy error at iteration   1:  0.001888 (step -0.4925 Ne1=   7234.0000)
 RMS occupancy error at iteration   2:  0.000014 (step -0.5003 Ne1=   7234.0000)
            Final RMS occupancy error   :  0.000000 (Ne1=   7234.0000)
               Final occupancy bounds   : [  0.0000,  1.0000]
================================================================================

    2        -1.160880756141E+04     5.3138E-04     4.8070E-04    -2.2401E+01
MG BCs: +ve charge blocks (gridpoints):     30722 (   16958911).
MG BCs: -ve charge blocks (gridpoints):      8236 (    1076301).
MG BCs:     Elided blocks (gridpoints):    166392 (  172741493).
MG BCs: Computational effort saved:  99.9796%.
MG BCs: Charge after coarse-graining:           -9.0009771.
MG DL_MG: Calling solver with defect correction order = 8
MG DL_MG: Solver finished
MG Hartree energy from (\int phi*rho dr):              1434.255586
MG Hartree energy from (\int eps (grad phi)^2 dr):     1433.589577
MG Discrepancy due to finite box and discretization:     -0.666009 (  -0.04644%)
MG Correction to account for finite box:                  0.472319
MG Remaining discrepancy, due to discretization:         -0.193690 (  -0.01350%)
      ideal mu1:      -0.769229263915
             Q0:  -11611.901626041625
             G0:      -1.977363264418
   RMS gradient:       0.000213521560
MG BCs: +ve charge blocks (gridpoints):     30721 (   16958675).
MG BCs: -ve charge blocks (gridpoints):      8239 (    1077186).
MG BCs:     Elided blocks (gridpoints):    166392 (  172740844).
MG BCs: Computational effort saved:  99.9796%.
MG BCs: Charge after coarse-graining:           -9.0009769.
MG DL_MG: Calling solver with defect correction order = 8
MG DL_MG: Solver finished
MG Hartree energy from (\int phi*rho dr):              1432.512066
MG Hartree energy from (\int eps (grad phi)^2 dr):     1431.846564
MG Discrepancy due to finite box and discretization:     -0.665502 (  -0.04646%)
MG Correction to account for finite box:                  0.471967
MG Remaining discrepancy, due to discretization:         -0.193534 (  -0.01351%)
     Trial step:       0.438150517383
             Q1:  -11612.407736432506
 Quadratic coef:       0.360272346477
 Linear coef   :      -0.866382737358
           Qmin:  -11612.422495222212
Quadratic minimum step length (  0.526832059602) accepted
    Initial Ne1:    7233.99988508
      Final Ne1:    7234.00000000

=================== Penalty functional idempotency correction ==================
 RMS occupancy error at iteration   1:  0.000663 (step -0.4969 Ne1=   7234.0000)
 RMS occupancy error at iteration   2:  0.000003 (step -0.5000 Ne1=   7234.0000)
            Final RMS occupancy error   :  0.000000 (Ne1=   7234.0000)
               Final occupancy bounds   : [  0.0000,  1.0000]
================================================================================

    3        -1.161190162604E+04     2.1352E-04     1.9316E-04    -3.0941E+00
MG BCs: +ve charge blocks (gridpoints):     30720 (   16958613).
MG BCs: -ve charge blocks (gridpoints):      8240 (    1077390).
MG BCs:     Elided blocks (gridpoints):    166393 (  172740702).
MG BCs: Computational effort saved:  99.9796%.
MG BCs: Charge after coarse-graining:           -9.0009769.
MG DL_MG: Calling solver with defect correction order = 8
MG DL_MG: Solver finished
MG Hartree energy from (\int phi*rho dr):              1432.167359
MG Hartree energy from (\int eps (grad phi)^2 dr):     1431.501948
MG Discrepancy due to finite box and discretization:     -0.665411 (  -0.04646%)
MG Correction to account for finite box:                  0.471897
MG Remaining discrepancy, due to discretization:         -0.193514 (  -0.01351%)
      ideal mu1:      -0.770656642037
             Q0:  -11612.427713254583
             G0:      -0.530807302177
   RMS gradient:       0.000110715444
MG BCs: +ve charge blocks (gridpoints):     30723 (   16959632).
MG BCs: -ve charge blocks (gridpoints):      8241 (    1077156).
MG BCs:     Elided blocks (gridpoints):    166390 (  172739917).
MG BCs: Computational effort saved:  99.9796%.
MG BCs: Charge after coarse-graining:           -9.0009771.
MG DL_MG: Calling solver with defect correction order = 8
MG DL_MG: Solver finished
MG Hartree energy from (\int phi*rho dr):              1433.353053
MG Hartree energy from (\int eps (grad phi)^2 dr):     1432.687705
MG Discrepancy due to finite box and discretization:     -0.665348 (  -0.04642%)
MG Correction to account for finite box:                  0.471730
MG Remaining discrepancy, due to discretization:         -0.193618 (  -0.01351%)
     Trial step:       0.480449518148
             Q1:  -11612.556530301226
 Quadratic coef:       0.126209065917
 Linear coef   :      -0.255026112560
           Qmin:  -11612.556543774037
Quadratic minimum step length (  0.485413516077) accepted
    Initial Ne1:    7233.99997156
      Final Ne1:    7234.00000000

=================== Penalty functional idempotency correction ==================
 RMS occupancy error at iteration   1:  0.000286 (step -0.4962 Ne1=   7234.0000)
 RMS occupancy error at iteration   2:  0.000003 (step -0.5000 Ne1=   7234.0000)
            Final RMS occupancy error   :  0.000000 (Ne1=   7234.0000)
               Final occupancy bounds   : [  0.0000,  1.0000]
================================================================================

    4        -1.161242771325E+04     1.1072E-04     1.0016E-04    -5.2609E-01
MG BCs: +ve charge blocks (gridpoints):     30723 (   16959639).
MG BCs: -ve charge blocks (gridpoints):      8241 (    1077160).
MG BCs:     Elided blocks (gridpoints):    166390 (  172739906).
MG BCs: Computational effort saved:  99.9796%.
MG BCs: Charge after coarse-graining:           -9.0009771.
MG DL_MG: Calling solver with defect correction order = 8
MG DL_MG: Solver finished
MG Hartree energy from (\int phi*rho dr):              1433.365799
MG Hartree energy from (\int eps (grad phi)^2 dr):     1432.700452
MG Discrepancy due to finite box and discretization:     -0.665348 (  -0.04642%)
MG Correction to account for finite box:                  0.471729
MG Remaining discrepancy, due to discretization:         -0.193619 (  -0.01351%)
      ideal mu1:      -0.770824151079
             Q0:  -11612.557232471881
             G0:      -0.185016124000
   RMS gradient:       0.000065566602
MG BCs: +ve charge blocks (gridpoints):     30726 (   16959864).
MG BCs: -ve charge blocks (gridpoints):      8243 (    1076929).
MG BCs:     Elided blocks (gridpoints):    166387 (  172739912).
MG BCs: Computational effort saved:  99.9796%.
MG BCs: Charge after coarse-graining:           -9.0009770.
MG DL_MG: Calling solver with defect correction order = 8
MG DL_MG: Solver finished
MG Hartree energy from (\int phi*rho dr):              1433.731554
MG Hartree energy from (\int eps (grad phi)^2 dr):     1433.066085
MG Discrepancy due to finite box and discretization:     -0.665469 (  -0.04642%)
MG Correction to account for finite box:                  0.471679
MG Remaining discrepancy, due to discretization:         -0.193790 (  -0.01352%)
     Trial step:       0.482925139024
             Q1:  -11612.616812075488
 Quadratic coef:       0.029769333798
 Linear coef   :      -0.089348937404
           Qmin:  -11612.624274891015
Quadratic minimum step length (  0.724719745334) accepted
    Initial Ne1:    7233.99998509
      Final Ne1:    7234.00000000

=================== Penalty functional idempotency correction ==================
 RMS occupancy error at iteration   1:  0.000464 (step -0.4722 Ne1=   7234.0000)
 RMS occupancy error at iteration   2:  0.000011 (step -0.5000 Ne1=   7234.0000)
            Final RMS occupancy error   :  0.000000 (Ne1=   7234.0000)
               Final occupancy bounds   : [  0.0000,  1.0000]
================================================================================

    5        -1.161255723247E+04     6.5567E-05     5.9313E-05    -1.2952E-01
MG BCs: +ve charge blocks (gridpoints):     30730 (   16959984).
MG BCs: -ve charge blocks (gridpoints):      8242 (    1076825).
MG BCs:     Elided blocks (gridpoints):    166383 (  172739896).
MG BCs: Computational effort saved:  99.9796%.
MG BCs: Charge after coarse-graining:           -9.0009769.
MG DL_MG: Calling solver with defect correction order = 8
MG DL_MG: Solver finished
MG Hartree energy from (\int phi*rho dr):              1433.912210
MG Hartree energy from (\int eps (grad phi)^2 dr):     1433.246682
MG Discrepancy due to finite box and discretization:     -0.665528 (  -0.04641%)
MG Correction to account for finite box:                  0.471652
MG Remaining discrepancy, due to discretization:         -0.193876 (  -0.01352%)
      ideal mu1:      -0.770774811804
             Q0:  -11612.623540094704
             G0:      -0.177032701605
   RMS gradient:       0.000064764133
MG BCs: +ve charge blocks (gridpoints):     30731 (   16959139).
MG BCs: -ve charge blocks (gridpoints):      8244 (    1077251).
MG BCs:     Elided blocks (gridpoints):    166382 (  172740315).
MG BCs: Computational effort saved:  99.9796%.
MG BCs: Charge after coarse-graining:           -9.0009767.
MG DL_MG: Calling solver with defect correction order = 8
MG DL_MG: Solver finished
MG Hartree energy from (\int phi*rho dr):              1432.612639
MG Hartree energy from (\int eps (grad phi)^2 dr):     1431.947200
MG Discrepancy due to finite box and discretization:     -0.665439 (  -0.04645%)
MG Correction to account for finite box:                  0.471564
MG Remaining discrepancy, due to discretization:         -0.193875 (  -0.01353%)
     Trial step:       0.591595625211
             Q1:  -11612.704748291755
 Quadratic coef:       0.023523574739
 Linear coef   :      -0.104731771789
           Qmin:  -11612.740111918331
Quadratic minimum step length (  1.316952433871) accepted
    Initial Ne1:    7233.99994169
      Final Ne1:    7234.00000000

=================== Penalty functional idempotency correction ==================
 RMS occupancy error at iteration   1:  0.004762 (step -0.2900 Ne1=   7234.0000)
 RMS occupancy error at iteration   2:  0.000361 (step -0.4852 Ne1=   7234.0000)
 RMS occupancy error at iteration   3:  0.000008 (step -0.5002 Ne1=   7234.0000)
            Final RMS occupancy error   :  0.000000 (Ne1=   7234.0000)
               Final occupancy bounds   : [  0.0000,  1.0000]
================================================================================

    6        -1.161262354009E+04     6.4764E-05     5.8587E-05    -6.6308E-02
MG BCs: +ve charge blocks (gridpoints):     30726 (   16958173).
MG BCs: -ve charge blocks (gridpoints):      8246 (    1077791).
MG BCs:     Elided blocks (gridpoints):    166387 (  172740741).
MG BCs: Computational effort saved:  99.9796%.
MG BCs: Charge after coarse-graining:           -9.0009763.
MG DL_MG: Calling solver with defect correction order = 8
MG DL_MG: Solver finished
MG Hartree energy from (\int phi*rho dr):              1431.043179
MG Hartree energy from (\int eps (grad phi)^2 dr):     1430.377844
MG Discrepancy due to finite box and discretization:     -0.665335 (  -0.04649%)
MG Correction to account for finite box:                  0.471459
MG Remaining discrepancy, due to discretization:         -0.193877 (  -0.01355%)
      ideal mu1:      -0.770098539070
             Q0:  -11612.706031889305
             G0:      -0.395562980345
   RMS gradient:       0.000096109104
MG BCs: +ve charge blocks (gridpoints):     30726 (   16961379).
MG BCs: -ve charge blocks (gridpoints):      8238 (    1076184).
MG BCs:     Elided blocks (gridpoints):    166387 (  172739142).
MG BCs: Computational effort saved:  99.9796%.
MG BCs: Charge after coarse-graining:           -9.0009776.
MG DL_MG: Calling solver with defect correction order = 8
MG DL_MG: Solver finished
MG Hartree energy from (\int phi*rho dr):              1435.203468
MG Hartree energy from (\int eps (grad phi)^2 dr):     1434.538555
MG Discrepancy due to finite box and discretization:     -0.664913 (  -0.04633%)
MG Correction to account for finite box:                  0.471314
MG Remaining discrepancy, due to discretization:         -0.193599 (  -0.01349%)
     Trial step:       0.882668283383
             Q1:  -11612.799566165428
 Quadratic coef:       0.255616620709
 Linear coef   :      -0.349150896831
           Qmin:  -11612.825259610512
Quadratic minimum step length (  0.602825477258) accepted
    Initial Ne1:    7233.99996130
      Final Ne1:    7234.00000000

=================== Penalty functional idempotency correction ==================
 RMS occupancy error at iteration   1:  0.000200 (step -0.4856 Ne1=   7234.0000)
 RMS occupancy error at iteration   2:  0.000002 (step -0.5000 Ne1=   7234.0000)
            Final RMS occupancy error   :  0.000000 (Ne1=   7234.0000)
               Final occupancy bounds   : [  0.0000,  1.0000]
================================================================================

    7        -1.161270603189E+04     9.6109E-05     8.6942E-05    -8.2492E-02
MG BCs: +ve charge blocks (gridpoints):     30726 (   16960365).
MG BCs: -ve charge blocks (gridpoints):      8239 (    1076686).
MG BCs:     Elided blocks (gridpoints):    166387 (  172739654).
MG BCs: Computational effort saved:  99.9796%.
MG BCs: Charge after coarse-graining:           -9.0009772.
MG DL_MG: Calling solver with defect correction order = 8
MG DL_MG: Solver finished
MG Hartree energy from (\int phi*rho dr):              1433.877050
MG Hartree energy from (\int eps (grad phi)^2 dr):     1433.212003
MG Discrepancy due to finite box and discretization:     -0.665046 (  -0.04638%)
MG Correction to account for finite box:                  0.471362
MG Remaining discrepancy, due to discretization:         -0.193685 (  -0.01351%)
      ideal mu1:      -0.771462426435
             Q0:  -11612.825705450261
             G0:      -0.251277440256
   RMS gradient:       0.000076489526
MG BCs: +ve charge blocks (gridpoints):     30728 (   16960221).
MG BCs: -ve charge blocks (gridpoints):      8239 (    1076750).
MG BCs:     Elided blocks (gridpoints):    166385 (  172739734).
MG BCs: Computational effort saved:  99.9796%.
MG BCs: Charge after coarse-graining:           -9.0009773.
MG DL_MG: Calling solver with defect correction order = 8
MG DL_MG: Solver finished
MG Hartree energy from (\int phi*rho dr):              1433.730764
MG Hartree energy from (\int eps (grad phi)^2 dr):     1433.066072
MG Discrepancy due to finite box and discretization:     -0.664692 (  -0.04636%)
MG Correction to account for finite box:                  0.471228
MG Remaining discrepancy, due to discretization:         -0.193464 (  -0.01349%)
     Trial step:       0.729448373218
             Q1:  -11612.921482071630
 Quadratic coef:       0.087517298653
 Linear coef   :      -0.183293920021
           Qmin:  -11612.921676937138
Quadratic minimum step length (  0.763868708465) accepted
    Initial Ne1:    7233.99996860
      Final Ne1:    7234.00000000

=================== Penalty functional idempotency correction ==================
 RMS occupancy error at iteration   1:  0.001135 (step -0.4272 Ne1=   7234.0000)
 RMS occupancy error at iteration   2:  0.000037 (step -0.4982 Ne1=   7234.0000)
            Final RMS occupancy error   :  0.000000 (Ne1=   7234.0000)
               Final occupancy bounds   : [ -0.0000,  1.0000]
================================================================================

    8        -1.161282570545E+04     7.6490E-05     6.9194E-05    -1.1967E-01
MG BCs: +ve charge blocks (gridpoints):     30728 (   16960247).
MG BCs: -ve charge blocks (gridpoints):      8239 (    1076746).
MG BCs:     Elided blocks (gridpoints):    166385 (  172739712).
MG BCs: Computational effort saved:  99.9796%.
MG BCs: Charge after coarse-graining:           -9.0009773.
MG DL_MG: Calling solver with defect correction order = 8
MG DL_MG: Solver finished
MG Hartree energy from (\int phi*rho dr):              1433.725592
MG Hartree energy from (\int eps (grad phi)^2 dr):     1433.060915
MG Discrepancy due to finite box and discretization:     -0.664677 (  -0.04636%)
MG Correction to account for finite box:                  0.471223
MG Remaining discrepancy, due to discretization:         -0.193455 (  -0.01349%)
      ideal mu1:      -0.771097434245
             Q0:  -11612.922123400727
             G0:      -0.190333323515
   RMS gradient:       0.000066266190
MG BCs: +ve charge blocks (gridpoints):     30724 (   16959124).
MG BCs: -ve charge blocks (gridpoints):      8241 (    1077266).
MG BCs:     Elided blocks (gridpoints):    166389 (  172740315).
MG BCs: Computational effort saved:  99.9796%.
MG BCs: Charge after coarse-graining:           -9.0009770.
MG DL_MG: Calling solver with defect correction order = 8
MG DL_MG: Solver finished
MG Hartree energy from (\int phi*rho dr):              1432.293367
MG Hartree energy from (\int eps (grad phi)^2 dr):     1431.628894
MG Discrepancy due to finite box and discretization:     -0.664473 (  -0.04639%)
MG Correction to account for finite box:                  0.471097
MG Remaining discrepancy, due to discretization:         -0.193376 (  -0.01350%)
     Trial step:       0.746460170901
             Q1:  -11612.986601360491
 Quadratic coef:       0.077598285436
 Linear coef   :      -0.142076245200
           Qmin:  -11612.987155956976
Quadratic minimum step length (  0.683354391641) accepted
    Initial Ne1:    7234.00093255
      Final Ne1:    7234.00000000

=================== Penalty functional idempotency correction ==================
 RMS occupancy error at iteration   1:  0.002060 (step -0.3859 Ne1=   7234.0000)
 RMS occupancy error at iteration   2:  0.000107 (step -0.4943 Ne1=   7234.0000)
 RMS occupancy error at iteration   3:  0.000001 (step -0.5000 Ne1=   7234.0000)
            Final RMS occupancy error   :  0.000000 (Ne1=   7234.0000)
               Final occupancy bounds   : [  0.0000,  1.0000]
================================================================================

    9        -1.161292212340E+04     6.6266E-05     5.9945E-05    -9.6418E-02
MG BCs: +ve charge blocks (gridpoints):     30724 (   16959202).
MG BCs: -ve charge blocks (gridpoints):      8241 (    1077210).
MG BCs:     Elided blocks (gridpoints):    166389 (  172740293).
MG BCs: Computational effort saved:  99.9796%.
MG BCs: Charge after coarse-graining:           -9.0009770.
MG DL_MG: Calling solver with defect correction order = 8
MG DL_MG: Solver finished
MG Hartree energy from (\int phi*rho dr):              1432.414427
MG Hartree energy from (\int eps (grad phi)^2 dr):     1431.749931
MG Discrepancy due to finite box and discretization:     -0.664496 (  -0.04639%)
MG Correction to account for finite box:                  0.471117
MG Remaining discrepancy, due to discretization:         -0.193379 (  -0.01350%)
      ideal mu1:      -0.770203508755
   10        -1.161299050018E+04     5.1462E-05     4.6554E-05    -6.8377E-02
Finished density kernel iterations (  10)

Writing density kernel to file "complex_30121.vacuum_dkn" ... done


>>> Density kernel optimised for the current NGWF basis:
     ~~~~~~~~~~~~~~~~~~~~~~~~~~~~~~~~~~~~~~~~~~~~~~~~~~~~~~~~~~~
     Total energy                =  -1.16129905001805E+04  Eh
     Estimated bandgap           =  -4.2480E-01  Eh
     RMS occupancy error         =   6.6243E-11
     [H,K] commutator            =   4.6554E-05
     Occupancy bounds            = [  0.000:  1.000]
     ~~~~~~~~~~~~~~~~~~~~~~~~~~~~~~~~~~~~~~~~~~~~~~~~~~~~~~~~~~~




################################################################################
########################### NGWF CG iteration  001 #############################
################################################################################
****** Reciprocal space K.E. preconditioning with k_zero =  3.5000 a0^-1 *******

>>> Checking for convergence of NGWFs:   NOT CONVERGED
  ========================================================================
         NGWF RMS gradient =  1.6484E-03 >  2.0000E-06  | above tolerance
  ========================================================================

>>> Improving NGWFs using line search:
============ Calculation of NGWF S^-1 using Hotelling algorithm ================ 
         Iteration  |  Frobenius norm and Maximum abs value    (of I-S*S_n^-1)   
               1       0.20890345E+00     0.55608399E-02
               2       0.10187676E-02     0.47208470E-04
               3       0.41986524E-07     0.35020680E-08
               4       0.12809548E-12     0.62172489E-14
================================================================================
MG BCs: +ve charge blocks (gridpoints):     30263 (   16893136).
MG BCs: -ve charge blocks (gridpoints):      8252 (    1076648).
MG BCs:     Elided blocks (gridpoints):    166854 (  172806921).
MG BCs: Computational effort saved:  99.9798%.
MG BCs: Charge after coarse-graining:           -9.0009826.
MG DL_MG: Calling solver with defect correction order = 8
MG DL_MG: Solver finished
MG Hartree energy from (\int phi*rho dr):              1399.402433
MG Hartree energy from (\int eps (grad phi)^2 dr):     1398.738950
MG Discrepancy due to finite box and discretization:     -0.663483 (  -0.04741%)
MG Correction to account for finite box:                  0.471041
MG Remaining discrepancy, due to discretization:         -0.192442 (  -0.01375%)
============ Calculation of NGWF S^-1 using Hotelling algorithm ================ 
         Iteration  |  Frobenius norm and Maximum abs value    (of I-S*S_n^-1)   
               1       0.18716120E+01     0.42073184E-01
               2       0.73038019E-01     0.24959236E-02
               3       0.15295699E-03     0.10030148E-04
               4       0.12754996E-08     0.16828117E-09
               5       0.11136418E-12     0.47739590E-14
================================================================================
------------------------------- NGWF line search -------------------------------
RMS gradient                =       0.00164838155327
Trial step length           =               0.122474
Gradient along search dir.  =       -290.94392506284
Functional at step 0        =  -11612.99050018051639
Functional at step 1        =  -11645.81378101429436
Functional predicted        =  -11725.95833120348834
Selected quadratic step     =               0.776561
--------------------------- NGWF line search finished --------------------------
                                               
Writing NGWFs to file "complex_30121.vacuum_tightbox_ngwfs"....  done

>>> Optimising kernel for current NGWFs:
   Initial electron number for spin 1:    7270.18039357
     Final electron number for spin 1:    7234.00000000

=================== Penalty functional idempotency correction ==================
 RMS occupancy error at iteration   1:  0.004426 (step -0.4850 Ne1=   7234.0000)
 RMS occupancy error at iteration   2:  0.000076 (step -0.5003 Ne1=   7234.0000)
            Final RMS occupancy error   :  0.000000 (Ne1=   7234.0000)
               Final occupancy bounds   : [  0.0000,  1.0000]
================================================================================

................................................................................
<<<<<<<<<<<<<< LNV (Original version) density kernel optimisation >>>>>>>>>>>>>>
~~~~~~~~~~~~~~~~~~~~~~~~~~~~~~~~~~~~~~~~~~~~~~~~~~~~~~~~~~~~~~~~~~~~~~~~~~~~~~~~
   iter  |      energy (Eh)       | rms gradient |  commutator  |   dE (Eh)
MG BCs: +ve charge blocks (gridpoints):     24487 (   16543197).
MG BCs: -ve charge blocks (gridpoints):      8379 (    1058472).
MG BCs:     Elided blocks (gridpoints):    172633 (  173175036).
MG BCs: Computational effort saved:  99.9828%.
MG BCs: Charge after coarse-graining:           -9.0006913.
MG DL_MG: Calling solver with defect correction order = 8
MG DL_MG: Solver finished
MG Hartree energy from (\int phi*rho dr):              1245.599916
MG Hartree energy from (\int eps (grad phi)^2 dr):     1244.936983
MG Discrepancy due to finite box and discretization:     -0.662933 (  -0.05322%)
MG Correction to account for finite box:                  0.470693
MG Remaining discrepancy, due to discretization:         -0.192239 (  -0.01543%)
      ideal mu1:      -0.710904774070
             Q0:  -11725.024808840128
             G0:      -9.830997930217
   RMS gradient:       0.000479132369
MG BCs: +ve charge blocks (gridpoints):     24540 (   16565937).
MG BCs: -ve charge blocks (gridpoints):      8343 (    1052053).
MG BCs:     Elided blocks (gridpoints):    172580 (  173158715).
MG BCs: Computational effort saved:  99.9828%.
MG BCs: Charge after coarse-graining:           -9.0006851.
MG DL_MG: Calling solver with defect correction order = 8
MG DL_MG: Solver finished
MG Hartree energy from (\int phi*rho dr):              1265.718575
MG Hartree energy from (\int eps (grad phi)^2 dr):     1265.050243
MG Discrepancy due to finite box and discretization:     -0.668332 (  -0.05280%)
MG Correction to account for finite box:                  0.470102
MG Remaining discrepancy, due to discretization:         -0.198230 (  -0.01566%)
     Trial step:       0.714210638377
             Q1:  -11724.530840136576
 Quadratic coef:       7.515372011174
 Linear coef   :      -7.021403307623
           Qmin:  -11726.664784357474
Quadratic minimum step length (  0.333633580027) accepted
    Initial Ne1:    7233.99950104
      Final Ne1:    7234.00000000

=================== Penalty functional idempotency correction ==================
 RMS occupancy error at iteration   1:  0.000358 (step -0.4986 Ne1=   7234.0000)
 RMS occupancy error at iteration   2:  0.000000 (step -0.5000 Ne1=   7234.0000)
            Final RMS occupancy error   :  0.000000 (Ne1=   7234.0000)
               Final occupancy bounds   : [  0.0000,  1.0000]
================================================================================

    1        -1.172502480884E+04     4.7913E-04     4.3343E-04
MG BCs: +ve charge blocks (gridpoints):     24508 (   16553957).
MG BCs: -ve charge blocks (gridpoints):      8360 (    1055467).
MG BCs:     Elided blocks (gridpoints):    172612 (  173167281).
MG BCs: Computational effort saved:  99.9828%.
MG BCs: Charge after coarse-graining:           -9.0006883.
MG DL_MG: Calling solver with defect correction order = 8
MG DL_MG: Solver finished
MG Hartree energy from (\int phi*rho dr):              1254.075393
MG Hartree energy from (\int eps (grad phi)^2 dr):     1253.410040
MG Discrepancy due to finite box and discretization:     -0.665352 (  -0.05306%)
MG Correction to account for finite box:                  0.470392
MG Remaining discrepancy, due to discretization:         -0.194961 (  -0.01555%)
      ideal mu1:      -0.719162211338
             Q0:  -11726.639397058520
             G0:      -1.009294887809
   RMS gradient:       0.000154152316
MG BCs: +ve charge blocks (gridpoints):     24512 (   16554646).
MG BCs: -ve charge blocks (gridpoints):      8356 (    1055744).
MG BCs:     Elided blocks (gridpoints):    172608 (  173166315).
MG BCs: Computational effort saved:  99.9828%.
MG BCs: Charge after coarse-graining:           -9.0006881.
MG DL_MG: Calling solver with defect correction order = 8
MG DL_MG: Solver finished
MG Hartree energy from (\int phi*rho dr):              1255.725801
MG Hartree energy from (\int eps (grad phi)^2 dr):     1255.060198
MG Discrepancy due to finite box and discretization:     -0.665602 (  -0.05301%)
MG Correction to account for finite box:                  0.470316
MG Remaining discrepancy, due to discretization:         -0.195286 (  -0.01555%)
     Trial step:       0.488144089562
             Q1:  -11726.850403263117
 Quadratic coef:       0.281675129512
 Linear coef   :      -0.492681334110
           Qmin:  -11726.854835760367
Quadratic minimum step length (  0.426909329375) accepted
    Initial Ne1:    7233.99993390
      Final Ne1:    7234.00000000

=================== Penalty functional idempotency correction ==================
 RMS occupancy error at iteration   1:  0.000149 (step -0.4993 Ne1=   7234.0000)
 RMS occupancy error at iteration   2:  0.000000 (step -0.5000 Ne1=   7234.0000)
            Final RMS occupancy error   :  0.000000 (Ne1=   7234.0000)
               Final occupancy bounds   : [  0.0000,  1.0000]
================================================================================

    2        -1.172663939706E+04     1.5415E-04     1.3945E-04    -1.6146E+00
MG BCs: +ve charge blocks (gridpoints):     24512 (   16554528).
MG BCs: -ve charge blocks (gridpoints):      8357 (    1055731).
MG BCs:     Elided blocks (gridpoints):    172608 (  173166446).
MG BCs: Computational effort saved:  99.9828%.
MG BCs: Charge after coarse-graining:           -9.0006882.
MG DL_MG: Calling solver with defect correction order = 8
MG DL_MG: Solver finished
MG Hartree energy from (\int phi*rho dr):              1255.518364
MG Hartree energy from (\int eps (grad phi)^2 dr):     1254.852795
MG Discrepancy due to finite box and discretization:     -0.665569 (  -0.05301%)
MG Correction to account for finite box:                  0.470325
MG Remaining discrepancy, due to discretization:         -0.195244 (  -0.01555%)
      ideal mu1:      -0.720454669549
             Q0:  -11726.855299661169
             G0:      -0.173378628673
   RMS gradient:       0.000063563660
MG BCs: +ve charge blocks (gridpoints):     24512 (   16553577).
MG BCs: -ve charge blocks (gridpoints):      8361 (    1056182).
MG BCs:     Elided blocks (gridpoints):    172608 (  173166946).
MG BCs: Computational effort saved:  99.9828%.
MG BCs: Charge after coarse-graining:           -9.0006883.
MG DL_MG: Calling solver with defect correction order = 8
MG DL_MG: Solver finished
MG Hartree energy from (\int phi*rho dr):              1254.883932
MG Hartree energy from (\int eps (grad phi)^2 dr):     1254.218474
MG Discrepancy due to finite box and discretization:     -0.665458 (  -0.05303%)
MG Correction to account for finite box:                  0.470242
MG Remaining discrepancy, due to discretization:         -0.195217 (  -0.01556%)
     Trial step:       0.456501112719
             Q1:  -11726.909699036973
 Quadratic coef:       0.024748161108
 Linear coef   :      -0.079147536911
           Qmin:  -11726.918580449706
Quadratic minimum step length (  0.729972188871) accepted
    Initial Ne1:    7233.99998078
      Final Ne1:    7234.00000000

=================== Penalty functional idempotency correction ==================
 RMS occupancy error at iteration   1:  0.000140 (step -0.4945 Ne1=   7234.0000)
 RMS occupancy error at iteration   2:  0.000001 (step -0.5000 Ne1=   7234.0000)
            Final RMS occupancy error   :  0.000000 (Ne1=   7234.0000)
               Final occupancy bounds   : [  0.0000,  1.0000]
================================================================================

    3        -1.172685529966E+04     6.3564E-05     5.7501E-05    -2.1590E-01
MG BCs: +ve charge blocks (gridpoints):     24511 (   16553001).
MG BCs: -ve charge blocks (gridpoints):      8363 (    1056497).
MG BCs:     Elided blocks (gridpoints):    172609 (  173167207).
MG BCs: Computational effort saved:  99.9828%.
MG BCs: Charge after coarse-graining:           -9.0006883.
MG DL_MG: Calling solver with defect correction order = 8
MG DL_MG: Solver finished
MG Hartree energy from (\int phi*rho dr):              1254.503657
MG Hartree energy from (\int eps (grad phi)^2 dr):     1253.838265
MG Discrepancy due to finite box and discretization:     -0.665392 (  -0.05304%)
MG Correction to account for finite box:                  0.470191
MG Remaining discrepancy, due to discretization:         -0.195201 (  -0.01556%)
      ideal mu1:      -0.719544215703
             Q0:  -11726.918664701865
             G0:      -0.063259568968
   RMS gradient:       0.000038390769
MG BCs: +ve charge blocks (gridpoints):     24510 (   16553175).
MG BCs: -ve charge blocks (gridpoints):      8363 (    1056472).
MG BCs:     Elided blocks (gridpoints):    172610 (  173167058).
MG BCs: Computational effort saved:  99.9828%.
MG BCs: Charge after coarse-graining:           -9.0006883.
MG DL_MG: Calling solver with defect correction order = 8
MG DL_MG: Solver finished
MG Hartree energy from (\int phi*rho dr):              1254.612956
MG Hartree energy from (\int eps (grad phi)^2 dr):     1253.947797
MG Discrepancy due to finite box and discretization:     -0.665158 (  -0.05302%)
MG Correction to account for finite box:                  0.470097
MG Remaining discrepancy, due to discretization:         -0.195061 (  -0.01555%)
     Trial step:       0.577263472319
             Q1:  -11726.940520628938
 Quadratic coef:       0.014661511368
 Linear coef   :      -0.036517438440
           Qmin:  -11726.941403205365
Quadratic minimum step length (  0.718895302974) accepted
    Initial Ne1:    7233.99999298
      Final Ne1:    7234.00000000

=================== Penalty functional idempotency correction ==================
 RMS occupancy error at iteration   1:  0.000200 (step -0.4873 Ne1=   7234.0000)
 RMS occupancy error at iteration   2:  0.000002 (step -0.5000 Ne1=   7234.0000)
            Final RMS occupancy error   :  0.000000 (Ne1=   7234.0000)
               Final occupancy bounds   : [  0.0000,  1.0000]
================================================================================

    4        -1.172691866470E+04     3.8391E-05     3.4729E-05    -6.3365E-02
MG BCs: +ve charge blocks (gridpoints):     24510 (   16553217).
MG BCs: -ve charge blocks (gridpoints):      8362 (    1056452).
MG BCs:     Elided blocks (gridpoints):    172610 (  173167036).
MG BCs: Computational effort saved:  99.9828%.
MG BCs: Charge after coarse-graining:           -9.0006883.
MG DL_MG: Calling solver with defect correction order = 8
MG DL_MG: Solver finished
MG Hartree energy from (\int phi*rho dr):              1254.640558
MG Hartree energy from (\int eps (grad phi)^2 dr):     1253.975458
MG Discrepancy due to finite box and discretization:     -0.665101 (  -0.05301%)
MG Correction to account for finite box:                  0.470073
MG Remaining discrepancy, due to discretization:         -0.195027 (  -0.01554%)
      ideal mu1:      -0.720139630974
             Q0:  -11726.941389816464
             G0:      -0.055163046602
   RMS gradient:       0.000035888670
MG BCs: +ve charge blocks (gridpoints):     24509 (   16554373).
MG BCs: -ve charge blocks (gridpoints):      8358 (    1056042).
MG BCs:     Elided blocks (gridpoints):    172611 (  173166290).
MG BCs: Computational effort saved:  99.9828%.
MG BCs: Charge after coarse-graining:           -9.0006880.
MG DL_MG: Calling solver with defect correction order = 8
MG DL_MG: Solver finished
MG Hartree energy from (\int phi*rho dr):              1255.420472
MG Hartree energy from (\int eps (grad phi)^2 dr):     1254.755632
MG Discrepancy due to finite box and discretization:     -0.664839 (  -0.05296%)
MG Correction to account for finite box:                  0.469898
MG Remaining discrepancy, due to discretization:         -0.194941 (  -0.01553%)
     Trial step:       0.644198726193
             Q1:  -11726.963601255324
 Quadratic coef:       0.013324525495
 Linear coef   :      -0.035535964354
           Qmin:  -11726.965083057230
Quadratic minimum step length (  0.859025823464) accepted
    Initial Ne1:    7233.99999226
      Final Ne1:    7234.00000000

=================== Penalty functional idempotency correction ==================
 RMS occupancy error at iteration   1:  0.000705 (step -0.4561 Ne1=   7234.0000)
 RMS occupancy error at iteration   2:  0.000015 (step -0.4994 Ne1=   7234.0000)
            Final RMS occupancy error   :  0.000000 (Ne1=   7234.0000)
               Final occupancy bounds   : [ -0.0000,  1.0000]
================================================================================

    5        -1.172694138982E+04     3.5889E-05     3.2466E-05    -2.2725E-02
MG BCs: +ve charge blocks (gridpoints):     24510 (   16554748).
MG BCs: -ve charge blocks (gridpoints):      8358 (    1055901).
MG BCs:     Elided blocks (gridpoints):    172610 (  173166056).
MG BCs: Computational effort saved:  99.9828%.
MG BCs: Charge after coarse-graining:           -9.0006880.
MG DL_MG: Calling solver with defect correction order = 8
MG DL_MG: Solver finished
MG Hartree energy from (\int phi*rho dr):              1255.681945
MG Hartree energy from (\int eps (grad phi)^2 dr):     1255.017190
MG Discrepancy due to finite box and discretization:     -0.664755 (  -0.05294%)
MG Correction to account for finite box:                  0.469842
MG Remaining discrepancy, due to discretization:         -0.194913 (  -0.01552%)
      ideal mu1:      -0.721672781071
             Q0:  -11726.965073160129
             G0:      -0.052491239893
   RMS gradient:       0.000034819133
MG BCs: +ve charge blocks (gridpoints):     24510 (   16554475).
MG BCs: -ve charge blocks (gridpoints):      8360 (    1056109).
MG BCs:     Elided blocks (gridpoints):    172610 (  173166121).
MG BCs: Computational effort saved:  99.9828%.
MG BCs: Charge after coarse-graining:           -9.0006880.
MG DL_MG: Calling solver with defect correction order = 8
MG DL_MG: Solver finished
MG Hartree energy from (\int phi*rho dr):              1255.334956
MG Hartree energy from (\int eps (grad phi)^2 dr):     1254.670399
MG Discrepancy due to finite box and discretization:     -0.664557 (  -0.05294%)
MG Correction to account for finite box:                  0.469634
MG Remaining discrepancy, due to discretization:         -0.194923 (  -0.01553%)
     Trial step:       0.743897399674
             Q1:  -11726.989588617231
 Quadratic coef:       0.014532639760
 Linear coef   :      -0.039048096862
           Qmin:  -11726.991302976146
Quadratic minimum step length (  0.999397845080) accepted
    Initial Ne1:    7234.00020005
      Final Ne1:    7234.00000000

=================== Penalty functional idempotency correction ==================
 RMS occupancy error at iteration   1:  0.001928 (step -0.3989 Ne1=   7234.0000)
 RMS occupancy error at iteration   2:  0.000082 (step -0.4964 Ne1=   7234.0000)
 RMS occupancy error at iteration   3:  0.000001 (step -0.5000 Ne1=   7234.0000)
            Final RMS occupancy error   :  0.000000 (Ne1=   7234.0000)
               Final occupancy bounds   : [  0.0000,  1.0000]
================================================================================

    6        -1.172696507316E+04     3.4819E-05     3.1498E-05    -2.3683E-02
MG BCs: +ve charge blocks (gridpoints):     24511 (   16554331).
MG BCs: -ve charge blocks (gridpoints):      8360 (    1056221).
MG BCs:     Elided blocks (gridpoints):    172609 (  173166153).
MG BCs: Computational effort saved:  99.9828%.
MG BCs: Charge after coarse-graining:           -9.0006880.
MG DL_MG: Calling solver with defect correction order = 8
MG DL_MG: Solver finished
MG Hartree energy from (\int phi*rho dr):              1255.217763
MG Hartree energy from (\int eps (grad phi)^2 dr):     1254.553262
MG Discrepancy due to finite box and discretization:     -0.664501 (  -0.05294%)
MG Correction to account for finite box:                  0.469574
MG Remaining discrepancy, due to discretization:         -0.194927 (  -0.01553%)
      ideal mu1:      -0.722015027276
             Q0:  -11726.992492448888
             G0:      -0.050630146032
   RMS gradient:       0.000034384388
MG BCs: +ve charge blocks (gridpoints):     24510 (   16553438).
MG BCs: -ve charge blocks (gridpoints):      8360 (    1056389).
MG BCs:     Elided blocks (gridpoints):    172610 (  173166878).
MG BCs: Computational effort saved:  99.9828%.
MG BCs: Charge after coarse-graining:           -9.0006882.
MG DL_MG: Calling solver with defect correction order = 8
MG DL_MG: Solver finished
MG Hartree energy from (\int phi*rho dr):              1254.755635
MG Hartree energy from (\int eps (grad phi)^2 dr):     1254.091033
MG Discrepancy due to finite box and discretization:     -0.664602 (  -0.05297%)
MG Correction to account for finite box:                  0.469620
MG Remaining discrepancy, due to discretization:         -0.194981 (  -0.01554%)
     Trial step:       0.862235152494
             Q1:  -11727.005533721182
 Quadratic coef:       0.030613819390
 Linear coef   :      -0.043655091684
           Qmin:  -11727.008055412509
Quadratic minimum step length (  0.614770639299) accepted
    Initial Ne1:    7233.99999998
      Final Ne1:    7234.00000000

=================== Penalty functional idempotency correction ==================
 RMS occupancy error at iteration   1:  0.000026 (step -0.4983 Ne1=   7234.0000)
            Final RMS occupancy error   :  0.000000 (Ne1=   7234.0000)
               Final occupancy bounds   : [ -0.0000,  1.0000]
================================================================================

    7        -1.172699249245E+04     3.4384E-05     3.1105E-05    -2.7419E-02
MG BCs: +ve charge blocks (gridpoints):     24511 (   16553691).
MG BCs: -ve charge blocks (gridpoints):      8360 (    1056329).
MG BCs:     Elided blocks (gridpoints):    172609 (  173166685).
MG BCs: Computational effort saved:  99.9828%.
MG BCs: Charge after coarse-graining:           -9.0006882.
MG DL_MG: Calling solver with defect correction order = 8
MG DL_MG: Solver finished
MG Hartree energy from (\int phi*rho dr):              1254.886684
MG Hartree energy from (\int eps (grad phi)^2 dr):     1254.222110
MG Discrepancy due to finite box and discretization:     -0.664573 (  -0.05296%)
MG Correction to account for finite box:                  0.469608
MG Remaining discrepancy, due to discretization:         -0.194965 (  -0.01554%)
      ideal mu1:      -0.721592267951
             Q0:  -11727.008057778468
             G0:      -0.040231984233
   RMS gradient:       0.000030645008
MG BCs: +ve charge blocks (gridpoints):     24512 (   16553559).
MG BCs: -ve charge blocks (gridpoints):      8362 (    1056342).
MG BCs:     Elided blocks (gridpoints):    172608 (  173166804).
MG BCs: Computational effort saved:  99.9828%.
[...]
MG Hartree energy from (\int phi*rho dr):              1210.447190
MG Hartree energy from (\int eps (grad phi)^2 dr):     1210.246436
MG Discrepancy due to finite box and discretization:     -0.200754 (  -0.01659%)
MG Correction to account for finite box:                  0.006522
MG Remaining discrepancy, due to discretization:         -0.194232 (  -0.01605%)
             Q2:  -11761.565987966373
  Cubic LS coeff:       0.847734274227
Predicted energy:  -11761.565987966389
Cubic minimum step length accepted
    Initial Ne1:    7234.00000000
      Final Ne1:    7234.00000000

=================== Penalty functional idempotency correction ==================
 RMS occupancy error at iteration   1:  0.000000 (step -0.5000 Ne1=   7234.0000)
            Final RMS occupancy error   :  0.000000 (Ne1=   7234.0000)
               Final occupancy bounds   : [  0.0000,  1.0000]
================================================================================

    7        -1.176156598796E+04     8.9760E-09     8.1199E-09    -1.5134E-09

Reusing previously generated solute cavity.
MG BCs: +ve charge blocks (gridpoints):     28816 (   18734696).
MG BCs: -ve charge blocks (gridpoints):      8356 (    1026391).
MG BCs:     Elided blocks (gridpoints):    168304 (  171015618).
MG BCs: Computational effort saved:  99.9805%.
MG BCs: Charge after coarse-graining:           -9.0009675.
MG DL_MG: Calling solver with defect correction order = 8
MG DL_MG: Solver finished
MG Hartree energy from (\int phi*rho dr):              1210.447185
MG Hartree energy from (\int eps (grad phi)^2 dr):     1210.246432
MG Discrepancy due to finite box and discretization:     -0.200754 (  -0.01659%)
MG Correction to account for finite box:                  0.006522
MG Remaining discrepancy, due to discretization:         -0.194232 (  -0.01605%)
      ideal mu1:      -0.485669370942
             Q0:  -11761.565987966605
             G0:      -0.000000003516
   RMS gradient:       0.000000007578

Reusing previously generated solute cavity.
MG BCs: +ve charge blocks (gridpoints):     28816 (   18734696).
MG BCs: -ve charge blocks (gridpoints):      8356 (    1026391).
MG BCs:     Elided blocks (gridpoints):    168304 (  171015618).
MG BCs: Computational effort saved:  99.9805%.
MG BCs: Charge after coarse-graining:           -9.0009675.
MG DL_MG: Calling solver with defect correction order = 8
MG DL_MG: Solver finished
MG Hartree energy from (\int phi*rho dr):              1210.447170
MG Hartree energy from (\int eps (grad phi)^2 dr):     1210.246416
MG Discrepancy due to finite box and discretization:     -0.200754 (  -0.01659%)
MG Correction to account for finite box:                  0.006522
MG Remaining discrepancy, due to discretization:         -0.194232 (  -0.01605%)
     Trial step:       0.576802377677
             Q1:  -11761.565987968002
 Quadratic coef:       0.000000000631
 Linear coef   :      -0.000000002028
           Qmin:  -11761.565987968233
Quadratic minimum step length (  0.926570804184) accepted
    Initial Ne1:    7234.00000000
      Final Ne1:    7234.00000000

=================== Penalty functional idempotency correction ==================
 RMS occupancy error at iteration   1:  0.000000 (step -0.5000 Ne1=   7234.0000)
            Final RMS occupancy error   :  0.000000 (Ne1=   7234.0000)
               Final occupancy bounds   : [ -0.0000,  1.0000]
================================================================================

    8        -1.176156598797E+04     7.5778E-09     6.8550E-09    -3.2596E-09

Reusing previously generated solute cavity.
MG BCs: +ve charge blocks (gridpoints):     28816 (   18734696).
MG BCs: -ve charge blocks (gridpoints):      8356 (    1026391).
MG BCs:     Elided blocks (gridpoints):    168304 (  171015618).
MG BCs: Computational effort saved:  99.9805%.
MG BCs: Charge after coarse-graining:           -9.0009675.
MG DL_MG: Calling solver with defect correction order = 8
MG DL_MG: Solver finished
MG Hartree energy from (\int phi*rho dr):              1210.447160
MG Hartree energy from (\int eps (grad phi)^2 dr):     1210.246406
MG Discrepancy due to finite box and discretization:     -0.200754 (  -0.01659%)
MG Correction to account for finite box:                  0.006522
MG Remaining discrepancy, due to discretization:         -0.194232 (  -0.01605%)
      ideal mu1:      -0.485669361375
             Q0:  -11761.565987968468
             G0:      -0.000000002109
   RMS gradient:       0.000000005735

Reusing previously generated solute cavity.
MG BCs: +ve charge blocks (gridpoints):     28816 (   18734696).
MG BCs: -ve charge blocks (gridpoints):      8356 (    1026391).
MG BCs:     Elided blocks (gridpoints):    168304 (  171015618).
MG BCs: Computational effort saved:  99.9805%.
MG BCs: Charge after coarse-graining:           -9.0009675.
MG DL_MG: Calling solver with defect correction order = 8
MG DL_MG: Solver finished
MG Hartree energy from (\int phi*rho dr):              1210.447183
MG Hartree energy from (\int eps (grad phi)^2 dr):     1210.246430
MG Discrepancy due to finite box and discretization:     -0.200754 (  -0.01659%)
MG Correction to account for finite box:                  0.006522
MG Remaining discrepancy, due to discretization:         -0.194232 (  -0.01605%)
     Trial step:       0.731059671258
             Q1:  -11761.565987969167
 Quadratic coef:       0.000000000844
 Linear coef   :      -0.000000001542
           Qmin:  -11761.565987969172
Quadratic minimum step length (  0.667840088596) accepted
    Initial Ne1:    7234.00000000
      Final Ne1:    7234.00000000

=================== Penalty functional idempotency correction ==================
 RMS occupancy error at iteration   1:  0.000000 (step -0.5000 Ne1=   7234.0000)
            Final RMS occupancy error   :  0.000000 (Ne1=   7234.0000)
               Final occupancy bounds   : [  0.0000,  1.0000]
================================================================================

    9        -1.176156598797E+04     5.7349E-09     5.1879E-09    -1.8626E-09

Reusing previously generated solute cavity.
MG BCs: +ve charge blocks (gridpoints):     28816 (   18734696).
MG BCs: -ve charge blocks (gridpoints):      8356 (    1026391).
MG BCs:     Elided blocks (gridpoints):    168304 (  171015618).
MG BCs: Computational effort saved:  99.9805%.
MG BCs: Charge after coarse-graining:           -9.0009675.
MG DL_MG: Calling solver with defect correction order = 8
MG DL_MG: Solver finished
MG Hartree energy from (\int phi*rho dr):              1210.447181
MG Hartree energy from (\int eps (grad phi)^2 dr):     1210.246428
MG Discrepancy due to finite box and discretization:     -0.200754 (  -0.01659%)
MG Correction to account for finite box:                  0.006522
MG Remaining discrepancy, due to discretization:         -0.194232 (  -0.01605%)
      ideal mu1:      -0.485669374966
   10        -1.176156598797E+04     3.3814E-09     3.0589E-09    -6.9849E-10
Finished density kernel iterations (  10)

Writing density kernel to file "complex_30121.dkn" ... done


>>> Density kernel optimised for the current NGWF basis:
     ~~~~~~~~~~~~~~~~~~~~~~~~~~~~~~~~~~~~~~~~~~~~~~~~~~~~~~~~~~~
     Total energy                =  -1.17615659879692E+04  Eh
     Estimated bandgap           =   8.5247E-02  Eh
     RMS occupancy error         =   3.4234E-16
     [H,K] commutator            =   3.0589E-09
     Occupancy bounds            = [ -0.000:  1.000]
     ~~~~~~~~~~~~~~~~~~~~~~~~~~~~~~~~~~~~~~~~~~~~~~~~~~~~~~~~~~~




################################################################################
########################### NGWF CG iteration  004 #############################
################################################################################
****** Reciprocal space K.E. preconditioning with k_zero =  3.5000 a0^-1 *******

>>> Checking for convergence of NGWFs: 
           ........................................................
           |         *** NGWF optimisation converged ***          |
           | RMS NGWF gradient =    0.00000184847673              |
           | Criteria satisfied:                                  |
           | -> RMS NGWF gradient lower than set threshold.       |
           ========================================================

Reusing previously generated solute cavity.
MG BCs: +ve charge blocks (gridpoints):     28816 (   18734696).
MG BCs: -ve charge blocks (gridpoints):      8356 (    1026391).
MG BCs:     Elided blocks (gridpoints):    168304 (  171015618).
MG BCs: Computational effort saved:  99.9805%.
MG BCs: Charge after coarse-graining:           -9.0009675.
MG DL_MG: Calling solver with defect correction order = 8
MG DL_MG: Solver finished
MG Hartree energy from (\int phi*rho dr):              1210.447181
MG Hartree energy from (\int eps (grad phi)^2 dr):     1210.246428
MG Discrepancy due to finite box and discretization:     -0.200754 (  -0.01659%)
MG Correction to account for finite box:                  0.006522
MG Remaining discrepancy, due to discretization:         -0.194232 (  -0.01605%)

================================================================================
           ---------------- ENERGY COMPONENTS (Eh) ----------------
           | Kinetic                    :     8603.71335753479980 |
           | Pseudo. (local,OBC,corr'd) :    -5096.65631072324777 |
           | Pseudopotential (non-local):     1412.45502892164723 |
           | Hartree (molecular)        :     1210.44718131591321 |
           | Exchange-correlation       :    -3401.56406339041405 |
           | Ion-ion (open BC)          :   837150.82153532851953 |
           | Smeared ion non-self corr. :  -837102.46505285333842 |
           | Smeared ion self corr.     :   -14538.95273137971526 |
           | Solvent cavitation energy  :        2.25942284716634 |
           | Solute-solvent dis-rep en. :       -1.62435557039906 |
           | Total                      :   -11761.56598796905564 |
           --------------------------------------------------------
           ------ LOCAL ENERGY COMPONENTS FROM MATRIX TRACES ------
           | Pseudopotential (local)    :    -5096.65631072325596 |
           | Hartree                    :    -2015.62218776465625 |
           --------------------------------------------------------
           Integrated density           :     7233.99999999898318
           Integrated density tr(KS)    :     7233.99999999999818
================================================================================


                        <<<<< CALCULATION SUMMARY >>>>>                         
|ITER|    RMS GRADIENT   |     TOTAL ENERGY    |   step   |     Epredicted              
   0     0.00004238981962 -11761.49687254114542   0.622789 -11761.55678648395406        
   1     0.00000912149047 -11761.56562123971526   0.068164 -11761.56592487375201        
   2     0.00000409254956 -11761.56597472331487   0.013006 -11761.56598638554533        
   3     0.00000184847673 -11761.56598796916660  <-- CG                                 

=================== Finished the calculation in solvent ========================
= Adjusting the following parameters: 
= read_denskern: F
= read_tightbox_ngwfs: F
= maxit_pen: 0 (restored to user-specified value)
= restart read filename prefix: ""
= restart write filename prefix: ""
================================================================================

================================================================================
IS: Calculation in solvent completed (NGWFs converged).      

Individual components of total energy in solvent:     hartree           kcal/mol
- Usual non-electrostatic DFT terms:    -12972.64823656184672    -8140459.495522
- Electrostatic fixed charge energy:      1210.44718131591321      759567.057650
- Apolar cavitation energy:                  2.25942284716634        1417.809212
- Apolar dispersion-repulsion energy:       -1.62435557039906       -1019.298488
 -------------------------------------------------------------------------------
- Total energy in solvent:              -11761.56598796916660    -7380493.927148

Components of total energy in solvent:                hartree           kcal/mol
- Usual non-electrostatic DFT terms:    -12972.64823656184672    -8140459.495522
- Electrostatic energy:                   1210.44718131591321      759567.057650
- Apolar energy terms:                       0.63506727676728         398.510724
 -------------------------------------------------------------------------------
- Total energy in solvent:              -11761.56598796916660    -7380493.927148

Calculation of free energy of solvation:              hartree           kcal/mol
- Total energy in solvent:         (+)  -11761.56598796916660    -7380493.927148
- Total energy in vacuum:          (-)  -11757.65473272663075    -7378039.577481
 -------------------------------------------------------------------------------
- Total free energy of solvation:           -3.91125524253584       -2454.349667

Components of polar term in f.e. of solvation:        hartree           kcal/mol
- Electrostatic:                            -4.47583865482420       -2808.631099
- Change in nonelectrostatic DFT terms:     -0.07048386447786         -44.229292
 -------------------------------------------------------------------------------
- Polar term in f.e. of solvation:          -4.54632251930207       -2852.860391

Components of free energy of solvation:               hartree           kcal/mol
- Polar term in f.e. of solvation: (+)      -4.54632251930207       -2852.860391
- Apolar (cavitation, dis., rep.): (+)       0.63506727676728         398.510724
 -------------------------------------------------------------------------------
- Total free energy of solvation:           -3.91125524253479       -2454.349667
================================================================================


------------------------------ TIMING INFORMATION ------------------------------
AVERAGE TIME:   32315.848s on     60 node(s)                                    
TOTAL TIME:     32315.849s on     60 node(s)                                    
================= AVERAGE TIMINGS FROM ALL NODES (CUMULATIVE) ==================
|| TAG                                    #calls    cpu time   %total  Gflops ||
|| work_imbalance                       :     1        0.00s   0.000%  ------ ||
|| sparse_set_to_garbage                :   164        0.03s   0.000%  ------ ||
|| parallel_prepare_fd_halos_request    :  1827        0.03s   0.000%  ------ ||
|| ngwfs_initialise_from_radial         :     1        0.09s   0.000%  ------ ||
|| basis_extract_function_from_box      :  3381        0.15s   0.000%  ------ ||
|| parallel_prepare_fd_halos_alloc      :  1827        0.20s   0.001%  ------ ||
|| parallel_prepare_fd_halos_satisfy    :  1827        0.61s   0.002%  ------ ||
|| pseudopotentials_nonlocal_mat        :    28        2.21s   0.007%  ------ ||
|| restart_kernel_read                  :     1        4.16s   0.013%  ------ ||
|| openbc_locps_radial                  :     1        4.64s   0.014%  ------ ||
|| parallel_prepare_fd_halos_comms_imbal:  1827       10.91s   0.034%  ------ ||
|| restart_ngwfs_tightbox_input         :     1       12.06s   0.037%  ------ ||
|| density_init_guess_real              :     1       13.40s   0.041%  ------ ||
|| parallel_prepare_fd_halos_clear      :  1827       17.90s   0.055%  ------ ||
|| parallel_prepare_fd_halos_comms_wait :  1827       21.89s   0.068%  ------ ||
|| sparse_init                          :     2       23.07s   0.071%  ------ ||
|| projectors_func_ovlp_box             :    28       24.48s   0.076%  ------ ||
|| function_ops_brappd_ketppd           :    28       26.54s   0.082%  ------ ||
|| projectors_init_fftbox_recip         :   133       30.44s   0.094%  ------ ||
|| basis_copy_function_to_box           : 54860       39.05s   0.121%  ------ ||
|| palser_mano_kernel_optimise          :     1       41.58s   0.129%  ------ ||
|| ngwf_gradient_coeffs                 :    15       49.23s   0.152%  ------ ||
|| fourier_apply_box_pair               :  4812       49.68s   0.154% 560.713 ||
|| parallel_prepare_fd_halos            :  1827       51.55s   0.160%  ------ ||
|| pseudo_make_structure_factor         :     2       55.51s   0.172%  ------ ||
|| restart_kernel_write                 :    16       74.01s   0.229%  ------ ||
|| sparse_embed_hotelling_invert_embed  :    28       78.27s   0.242%  ------ ||
|| finite_difference_derivative         :  1827      132.45s   0.410%  ------ ||
|| integrals_kinetic                    :    28      140.53s   0.435%  ------ ||
|| projectors_gradient_batch            :   105      142.74s   0.442%  ------ ||
|| sparse_trace                         :  5273      181.35s   0.561%  ------ ||
|| basis_dot_function_with_box          : 8.445M     186.50s   0.577%  ------ ||
|| openbc_locps_on_grid                 :     2      263.68s   0.816%  ------ ||
|| kernel_purify                        :   464      291.25s   0.901%  ------ ||
|| basis_add_function_to_box            : 17.56M     406.23s   1.257%  ------ ||
|| lnv_gradient_norm                    :   150      433.21s   1.341%  ------ ||
|| hamiltonian_energy_components        :     4      528.55s   1.636%  ------ ||
|| kernel_fix                           :   150      570.25s   1.765%  ------ ||
|| integrals_locpot_mat_els_batch       :  1113      698.53s   2.162%  ------ ||
|| ngwf_gradient_build_batch            :   105      713.83s   2.209%  ------ ||
|| density_batch_row_sums               :  2121      970.31s   3.003%  ------ ||
|| ngwf_gradient_batch                  :   105      995.41s   3.080%  ------ ||
|| restart_ngwfs_tightbox_output        :    13     1112.54s   3.443%  ------ ||
|| ngwf_gradient_lnv                    :    15     1140.36s   3.529%  ------ ||
|| cell_grid_deposit_box_real           : 35200     1282.99s   3.970%  ------ ||
|| fourier_apply_cell_forward           :  8513     1305.20s   4.039%  88.782 ||
|| fourier_apply_cell_backward          :  9123     1449.14s   4.484%  85.693 ||
|| cell_grid_extract_box_real           : 38596     1462.28s   4.525%  ------ ||
|| density_fftbox_deposit_to_cell       : 33330     1874.36s   5.800%  ------ ||
|| sparse_product                       :  6425     1880.12s   5.818%  ------ ||
|| potential_apply_to_ngwf_batch        :  1113     3410.40s  10.553%  ------ ||
|| density_fftbox_interpolate_multiply  : 33330     3428.11s  10.608%  ------ ||
|| xc_energy_potential                  :   304     3632.55s  11.241%  ------ ||
|| integrals_locpot_dbl_grid            :   159     4123.56s  12.760%  ------ ||
|| multigrid_prepare_bound_cond         :   304     4201.44s  13.001%  ------ ||
|| fourier_apply_box                    : 114.7k    4236.60s  13.110% 760.171 ||
|| nlxc_vdw_energy                      :   608     5968.87s  18.470%  ------ ||
|| density_batch_interp_deposit         :  2121     6185.40s  19.140%  ------ ||
|| dl_mg_solver_calls                   :   304     6856.62s  21.218%  ------ ||
|| density_on_dbl_grid                  :   303     7514.03s  23.252%  ------ ||
|| multigrid_calculate_hartree          :   304    11239.05s  34.779%  ------ ||
|| hamiltonian_lhxc_calculate           :   299    22247.14s  68.843%  ------ ||
|| lnv_denskernel_optimise_cg           :    15    27202.20s  84.176%  ------ ||
|| ngwf_cg_optimise                     :     2    31346.43s  97.000%  ------ ||
|| total_time                           :     1    32315.85s 100.000%  ------ ||
================================================================================
Overhead of generating timer report: 
- 0 ms averaging over threads,
- 15 ms ensuring consistency across MPI ranks,
- 1 ms printing in order.

Job completed: 28-03-2020 06:56 (-0000)

Application 39979730 resources: utime ~6469986s, stime ~223532s, Rss ~3692528, inblocks ~314839988, outblocks ~62020124
