 +---------------------------------------------------------------+
 |                                                               |
 |        ####### #     # ####### ####### ####### ######         |
 |        #     # ##    # #          #    #       #     #        |
 |        #     # # #   # #          #    #       #     #        |
 |        #     # #  #  # #####      #    #####   ######         |
 |        #     # #   # # #          #    #       #              |
 |        #     # #    ## #          #    #       #              |
 |        ####### #     # #######    #    ####### #              |
 |                                                               |
 |        Linear-Scaling Ab Initio Total Energy Program          |
 |                                                               |
 |          Release for academic collaborators of ODG            |
 |                                             Version 5.3.2.6.  |
 |                                                               |
 +---------------------------------------------------------------+
 |                                                               |
 |  Authors:                                                     |
 |  Jacek Dziedzic, Peter D. Haynes, Nicholas D. M. Hine,        |
 |  Arash. A. Mostofi, Mike C. Payne and Chris-Kriton Skylaris   |
 |                                                               |
 |  Contributors:                                                |
 |  J. Aarons, L. Andrinopoulos, P. W. Avraam, R. A. Bell,       |
 |  A. Bhandari, G. A. Bramley, R. J. Charlton, S. J. Clark,     |
 |  R. J. Clements, G. C. Constantinescu, F. Corsetti,           |
 |  N. Corsini, O. Dieguez, S. M. M. Dubois, K. K. B. Duff,      |
 |  J. M. Escartin, A. Greco, H. Helal, Q. O. Hill, L. P. Lee,   |
 |  J.-H. Li, E. B. Linscott, G. Moynihan, D. D. O`Regan,        |
 |  O. K. Okan, M. J. S. Phipps, C. J. Pickard,                  |
 |  J. C. A. Prentice, M. I. J. Probert, L. E. Ratcliff,         |
 |  M. Robinson, A. Ruiz Serrano, J. S. Spencer, E. W. Tait,     |
 |  G. Teobaldi, D. Turban, V. Vitale, K. A. Wilkinson,          |
 |  C. Weber, J. C. Womack, N. Yeung and T. J. Zuehlsdorff       |
 |                                                               |
 |                                   Copyright (c) 2004-2019     |
 |                                                               |
 |  Please cite:                                                 |
 |  "Introducing ONETEP: Linear-scaling density functional       |
 |   simulations on parallel computers".                         |
 |   C.-K. Skylaris, P. D. Haynes, A. A. Mostofi, M. C. Payne.   |
 |   J. Chem. Phys. 122 084119 (2005).                           |
 |                                                               |
 |          in all publications arising from your use of ONETEP. |
 |                                                               |
 +---------------------------------------------------------------+
 |                                                               |
 |   ONETEP is based on developments described in the following  |
 |   publications:                                               |
 |                                                               |
 |  "Nonorthogonal generalized Wannier function pseudopotential  |
 |   plane-wave method".                                         |
 |   C.-K. Skylaris, A. A. Mostofi, P. D. Haynes, O. Dieguez,    |
 |   M. C. Payne.                                                |
 |   Phys. Rev. B 66 035119 (2002).                              |
 |                                                               |
 |  "Preconditioned iterative minimization for linear-scaling    |
 |   electronic structure calculations".                         |
 |   A. A. Mostofi, P. D. Haynes, C.-K. Skylaris, M. C. Payne.   |
 |   J. Chem. Phys. 119(17), pp.8842-8848 (2003).                |
 |                                                               |
 |  "Total-energy calculations on a real space grid with         |
 |   localized functions and a plane-wave basis".                |
 |   A. A. Mostofi, C.-K. Skylaris, P. D. Haynes, M. C. Payne.   |
 |   Comput. Phys. Commun. 147, pp.788-802 (2002).               |
 |                                                               |
 |  "Accurate kinetic energy evaluation in electronic structure  |
 |   calculations with localized functions on real space grids"  |
 |   C.-K. Skylaris, A. A. Mostofi, P. D. Haynes, C. J. Pickard, |
 |   M. C. Payne.                                                |
 |   Comput. Phys. Commun. 140, pp.315-322 (2001).               |
 |                                                               |
 |  "Accurate ionic forces and geometry optimization in linear-  |
 |   scaling density-functional theory with local orbitals"      |
 |   N. D. M. Hine, M. Robinson, P. D. Haynes, C.-K. Skylaris,   |
 |   M. C. Payne, and A. A. Mostofi.                             |
 |   Phys. Rev. B 83 195102 (2011).                              |
 |                                                               |
 +---------------------------------------------------------------+

Job started: 20-02-2020 12:04 (-0000)
 
Reading parameters from file "complex_23281.dat" ...... done

If your calculation crashes here, before "Checking processes and threads..."
is displayed, then your stack size is insufficient.
If so, use "ulimit -s unlimited" at runtime.
You can disable this check with "check_stack_size F".

Checking processes and threads...
   Determining the default number of threads...
      No default threads set at compilation time: defaulting to 1.
      OpenMP library call suggests 4 threads.
      Hybrid MPI-OpenMP compilation detected.
      Number of MPI processes > 1.
      OMP_NUM_THREADS environment variable present and
      its value matches the one obtained from the OpenMP library call.
      Using this value as default.
      Default threads: 4
      Default applies to threads_max and threads_num_fftboxes.
      Settings in the input file override this default.
   ... done

   Running with 60 MPI processes.
   There are 6 MPI processes running on the same node as the root process.
   Each MPI process is using: 
               1 threads for simulation cell FFTs.
               1 threads for parallel FFT box operations.
               4 threads for loops over batched FFT box operations.
               4 threads in other parallel regions.
... done

Basic input checks...... done

Reading geometry and species blocks from file "complex_23281.dat" ...
  <species_atomic_set> block not found: NGWF initialisation set to SOLVE
IS: Dielectric excluded regions:
    - NONE.
    
  Number of PPD points along a3 set to 1.  This is 
  the default value, it may have been provided also in the input file.
... done
 Writing xyz coordinates to file "complex_23281.xyz" ... done


--------------------------------------------------------------------------------
---------------------------------- INPUT FILE ----------------------------------
--------------------------------------------------------------------------------

cutoff_energy       : 800 eV                                                    
xc_functional VV10                                                              
task SINGLEPOINT                                                                
write_xyz true                                                                  
output_detail VERBOSE                                                           
ngwf_threshold_orig : 0.000002                                                  
kernel_cutoff       : 1000                                                      
k_zero              : 3.5                                                       
elec_cg_max 0                                                                   
occ_mix 1.0                                                                     
dispersion 0                                                                    
maxit_ngwf_cg 40                                                                
minit_lnv 10                                                                    
maxit_lnv 10                                                                    
write_denskern T                                                                
write_tightbox_ngwfs T                                                          
charge 9                                                                        
is_implicit_solvent T                                                           
is_auto_solvation T                                                             
is_include_apolar T                                                             
is_smeared_ion_rep T                                                            
is_solvent_surf_tension 4.7624E-5 Ha/bohr**2                                    
is_apolar_scaling_factor 0.281075                                               
is_solvation_beta 1.3                                                           
is_density_threshold 0.00035                                                    
is_bulk_permittivity 78.54                                                      
is_dielectric_model fix_initial                                                 
is_smeared_ion_width 0.8                                                        
mg_defco_fd_order 8                                                             
is_bc_coarseness 10                                                             
is_bc_surface_coarseness 1                                                      
fine_grid_scale 2.0                                                             
%block species                                                                  
N   N   7 4 8.0                                                                 
H   H   1 1 8.0                                                                 
C   C   6 4 8.0                                                                 
S   S  16 9 8.0                                                                 
O   O   8 4 8.0                                                                 
%endblock species                                                               
%block species_pot                                                              
N   N_00.recpot                                                                 
H   H_04.recpot                                                                 
C   C_01.recpot                                                                 
S   S_00.recpot                                                                 
O   O_02.recpot                                                                 
%endblock species_pot                                                           
%block lattice_cart                                                             
139.252   0.000   0.000                                                         
0.000 142.425   0.000                                                           
0.000   0.000   162.84                                                          
%endblock lattice_cart                                                          
%block positions_abs                                                            
     Hash =  -000000687113217421751927
%endblock positions_abs                                                         

--------------------------------------------------------------------------------
-------------------------------- END INPUT FILE --------------------------------
--------------------------------------------------------------------------------


 
 ESDF WARNING(1): "kernelcutoff" (esdf_physical) has no units. Assume "bohr".
 ESDF WARNING(2): "kzero" (esdf_physical) has no units. Assume "1/bohr".
 ESDF WARNING(3
 ): "issmearedionwidth" (esdf_physical) has no units. Assume "bohr".
<<<<<<<<<<<<<<<<<<<<<<<<<<<<<<<<< Full system >>>>>>>>>>>>>>>>>>>>>>>>>>>>>>>>>>
<<<<<<<<<<<<<<<<<<<<<<<<< Pseudopotential information >>>>>>>>>>>>>>>>>>>>>>>>>>
File: N_00.recpot [ 2001 points up to Gmax=  52.9 (1/bohr)]
  Atomic number:  7;  ionic charge:  5.000000
    Shell 1: l = 0; rc = 1.48 bohr
File: H_04.recpot [ 2001 points up to Gmax=  52.9 (1/bohr)]
  Atomic number:  1;  ionic charge:  1.000000
    Local potential
File: C_01.recpot [ 2001 points up to Gmax=  52.9 (1/bohr)]
  Atomic number:  6;  ionic charge:  4.000000
    Shell 1: l = 0; rc = 1.48 bohr
File: S_00.recpot [ 2001 points up to Gmax=  52.9 (1/bohr)]
  Atomic number: 16;  ionic charge:  6.000000
    Shell 1: l = 0; rc = 1.90 bohr
    Shell 2: l = 2; rc = 1.84 bohr
File: O_02.recpot [ 2001 points up to Gmax=  52.9 (1/bohr)]
  Atomic number:  8;  ionic charge:  6.000000
    Shell 1: l = 0; rc = 1.31 bohr
<<<<<<<<<<<<<<<<<<<<<<<<<<<<<<<<<<<<<<<<>>>>>>>>>>>>>>>>>>>>>>>>>>>>>>>>>>>>>>>>

-------------------------- Atom counting information ---------------------------
Symbol    Natoms    Nngwfs    Nprojs
  N        237       948       237
  H       1318      1318         0
  C        816      3264       816
  S          6        54        36
  O        240       960       240
.......   ......    ......    ......
Totals:   2617      6544      1329
--------------------------------------------------------------------------------

=============================== PSINC grid sizes ===============================
                      Simulation cell:  275 x 280 x 320
                              FFT-box:   99 x  99 x  99
                                  PPD:    5 x   5 x   1
Grid space d1=  0.506370909091a0 (KE cutoff=  29.62556Eh = 806.15239eV)
Grid space d2=  0.508660714286a0 (KE cutoff=  29.35943Eh = 798.91072eV)
Grid space d3=  0.508875000000a0 (KE cutoff=  29.33471Eh = 798.23802eV)
================================================================================

********************* Fourier parallelisation information **********************
       Coarse grid (whole simulation cell) dimensions:    275   280   320
          Real-space ('12') slabs/node (min max mean):      5     6     5
         Recip-space ('23') slabs/node (min max mean):      2     3     2
********************************************************************************

********************* Fourier parallelisation information **********************
       Double grid (whole simulation cell) dimensions:    550   560   640
          Real-space ('12') slabs/node (min max mean):     10    11    10
         Recip-space ('23') slabs/node (min max mean):      4     5     4
********************************************************************************
ONETEP fine grid is 550 x 560 x 640 gridpoints, 139.2520 x 142.4250 x 162.8400 bohr.
FD multigrid is     545 x 553 x 633 gridpoints, 137.9861 x 140.6447 x 161.0589 bohr.


Calculating local pseudopotential in open BC on a radial grid ...
Discrepancy between calculated realspace psloc and -Z/x on [5a0,257.280a0]:
max |rel. diff| # avg |rel. diff| #  avg rel. diff #  f # pseudopotential file
 0.000256370913    0.000003612608   0.000000072509   55  'N_00.recpot'
 0.000395389207    0.000016224277  -0.000000076597   55  'H_04.recpot'
 0.000377360759    0.000017565724   0.000000149252   55  'C_01.recpot'
 0.000469715301    0.000020587835   0.000000455518   55  'S_00.recpot'
 0.000665442002    0.000026079317   0.000000158685   55  'O_02.recpot'
... done

Atom SCF Calculation for N  : Z (AE atom) =   7 : Z (PS atom) =   5
Config String:
Orbitals (num,occ):  2     2.00 3.00
Orbitals   (num,l):  2        0    1
Real-space Grid (nr,dr,rmax): 1203    0.0066555740    8.0000000000
Spherical Bessel Basis (nsws,lmax,cutoff):   47    1  176.3951722778
Confining potential (l,width,scale):  0    3.0000000000  100.0000000000
Confining potential (l,width,scale):  1    3.0000000000  100.0000000000
  1         -4.7366890484   -3.4501654188    7.0523828109   -1.9619316308
  2         -9.7225420322   -2.0763080851    8.3068355706   -2.2908832437
  3         -9.7134243553   -2.1270543915    8.2534567806   -2.2819809971
  4         -9.7235185949   -2.1427582218    8.2369947390   -2.2802814234
  5         -9.7258373845   -2.1477905863    8.2317116314   -2.2798536235
  6         -9.7268932325   -2.1503512400    8.2290229806   -2.2796830099
  7         -9.7273189469   -2.1516634231    8.2276451699   -2.2796169657
  8         -9.7274675212   -2.1523365544    8.2269384796   -2.2795940092
  9         -9.7275041773   -2.1526817003    8.2265762312   -2.2795881371
 10         -9.7275008637   -2.1528585007    8.2263907413   -2.2795884060
 11         -9.7274868305   -2.1529489544    8.2262958841   -2.2795903922
 12         -9.7274755655   -2.1529859230    8.2262571347   -2.2795920452
 13         -9.7274662327   -2.1530083995    8.2262335832   -2.2795934369
 14         -9.7274589439   -2.1530220534    8.2262192809   -2.2795945372
 15         -9.7274534633   -2.1530303399    8.2262106039   -2.2795953734
 16         -9.7274494492   -2.1530353634    8.2262053452   -2.2795959920
 17         -9.7274465654   -2.1530384053    8.2262021621   -2.2795964406
 18         -9.7274445237   -2.1530402447    8.2262002378   -2.2795967611
 19         -9.7274430947   -2.1530413553    8.2261990762   -2.2795969874
 20         -9.7274421038   -2.1530420249    8.2261983762   -2.2795971458
 21         -9.7274414219   -2.1530424277    8.2261979551   -2.2795972557
 22         -9.7274409555   -2.1530426696    8.2261977024   -2.2795973315
 23         -9.7274406382   -2.1530428144    8.2261975510   -2.2795973835
 24         -9.7274404232   -2.1530429010    8.2261974606   -2.2795974190
 25         -9.7274402783   -2.1530429525    8.2261974067   -2.2795974432
 26         -9.7274401808   -2.1530429831    8.2261973748   -2.2795974596
Atom SCF converged after  26 iterations to a total energy of     -9.72744018

Atom SCF Calculation for H  : Z (AE atom) =   1 : Z (PS atom) =   1
Config String:
Orbitals (num,occ):  1     1.00
Orbitals   (num,l):  1        0
Real-space Grid (nr,dr,rmax): 1203    0.0066555740    8.0000000000
Spherical Bessel Basis (nsws,lmax,cutoff):   47    0  176.3951722778
Confining potential (l,width,scale):  0    3.0000000000  100.0000000000
  1         -0.3178661827   -0.2469879004    0.2820953124   -0.2487802071
  2         -0.3961824611   -0.2455070831    0.2902209900   -0.2567664324
  3         -0.4406462424   -0.2424227551    0.2948173255   -0.2622129794
  4         -0.4569739054   -0.2416771342    0.2960118236   -0.2639986016
  5         -0.4627745219   -0.2416114401    0.2961916694   -0.2644992007
  6         -0.4648634749   -0.2416666130    0.2961598921   -0.2646237065
  7         -0.4656347011   -0.2417155160    0.2961132802   -0.2646490719
  8         -0.4659271144   -0.2417438448    0.2960836537   -0.2646515522
  9         -0.4660407254   -0.2417580788    0.2960682004   -0.2646501482
 10         -0.4660857867   -0.2417647566    0.2960608087   -0.2646488305
 11         -0.4661039568   -0.2417677717    0.2960574330   -0.2646480606
 12         -0.4661113773   -0.2417691018    0.2960559329   -0.2646476727
 13         -0.4661144368   -0.2417696800    0.2960552775   -0.2646474903
 14         -0.4661157072   -0.2417699291    0.2960549942   -0.2646474079
 15         -0.4661162374   -0.2417700356    0.2960548727   -0.2646473715
 16         -0.4661164596   -0.2417700810    0.2960548208   -0.2646473556
 17         -0.4661165529   -0.2417701003    0.2960547987   -0.2646473488
Atom SCF converged after  17 iterations to a total energy of     -0.46611655

Atom SCF Calculation for C  : Z (AE atom) =   6 : Z (PS atom) =   4
Config String:
Orbitals (num,occ):  2     2.00 2.00
Orbitals   (num,l):  2        0    1
Real-space Grid (nr,dr,rmax): 1203    0.0066555740    8.0000000000
Spherical Bessel Basis (nsws,lmax,cutoff):   47    1  176.3951722778
Confining potential (l,width,scale):  0    3.0000000000  100.0000000000
Confining potential (l,width,scale):  1    3.0000000000  100.0000000000
  1         -5.2812238291   -1.3293161250    4.5135249990   -1.4716766231
  2         -5.3996591362   -1.3542148509    4.4876064308   -1.4645117417
  3         -5.4111847148   -1.3757224423    4.4645718036   -1.4593107263
  4         -5.4199203659   -1.3833334895    4.4563636676   -1.4579885221
  5         -5.4226876204   -1.3865104950    4.4529090432   -1.4575385943
  6         -5.4235070726   -1.3878131251    4.4514866831   -1.4573882877
  7         -5.4237271252   -1.3883401868    4.4509094528   -1.4573411661
  8         -5.4237693051   -1.3885521813    4.4506766230   -1.4573281030
  9         -5.4237656430   -1.3886371046    4.4505830704   -1.4573255254
 10         -5.4237547927   -1.3886709976    4.4505456041   -1.4573257244
 11         -5.4237478594   -1.3886817763    4.4505336403   -1.4573262476
 12         -5.4237429748   -1.3886873440    4.4505274417   -1.4573266921
 13         -5.4237397042   -1.3886902144    4.4505242350   -1.4573270222
 14         -5.4237375865   -1.3886916908    4.4505225792   -1.4573272507
 15         -5.4237362473   -1.3886924482    4.4505217259   -1.4573274021
 16         -5.4237354152   -1.3886928356    4.4505212873   -1.4573274996
 17         -5.4237349050   -1.3886930331    4.4505210623   -1.4573275610
 18         -5.4237345954   -1.3886931333    4.4505209473   -1.4573275991
 19         -5.4237344092   -1.3886931840    4.4505208887   -1.4573276224
 20         -5.4237342980   -1.3886932094    4.4505208590   -1.4573276366
 21         -5.4237342320   -1.3886932221    4.4505208440   -1.4573276451
Atom SCF converged after  21 iterations to a total energy of     -5.42373423

Atom SCF Calculation for S  : Z (AE atom) =  16 : Z (PS atom) =   6
Config String:
Orbitals (num,occ):  3     2.00 4.00 0.00
Orbitals   (num,l):  3        0    1    2
Real-space Grid (nr,dr,rmax): 1203    0.0066555740    8.0000000000
Spherical Bessel Basis (nsws,lmax,cutoff):   47    2  176.3951722778
Confining potential (l,width,scale):  0    3.0000000000  100.0000000000
Confining potential (l,width,scale):  1    3.0000000000  100.0000000000
Confining potential (l,width,scale):  2    3.0000000000  100.0000000000
  1        -12.4916237786   -1.0485914554   10.1554312477   -2.4822447765
  2         -9.9747083603   -2.4807597367    8.3138131863   -2.0618837268
  3        -10.1811370131   -2.3153496392    8.4906092179   -2.1137756843
  4        -10.1856385898   -2.2984912006    8.5093862195   -2.1218167101
  5        -10.1891317560   -2.2894783333    8.5195006030   -2.1261392389
  6        -10.1911142562   -2.2849160124    8.5246320974   -2.1283733378
  7        -10.1921506977   -2.2826473329    8.5271859473   -2.1295140514
  8        -10.1926851273   -2.2815219985    8.5284534218   -2.1300957983
  9        -10.1929632671   -2.2809620806    8.5290843811   -2.1303933136
 10        -10.1931100895   -2.2806822783    8.5293998452   -2.1305460626
 11        -10.1931885828   -2.2805418782    8.5295582201   -2.1306248009
 12        -10.1932309625   -2.2804711729    8.5296380158   -2.1306655459
 13        -10.1932540142   -2.2804354512    8.5296783476   -2.1306867097
 14        -10.1932666242   -2.2804173494    8.5296987927   -2.1306977435
 15        -10.1932735535   -2.2804081489    8.5297091868   -2.1307035175
 16        -10.1932773756   -2.2804034581    8.5297144867   -2.1307065505
 17        -10.1932794908   -2.2804010586    8.5297171976   -2.1307081499
 18        -10.1932806648   -2.2803998268    8.5297185890   -2.1307089965
 19        -10.1932813181   -2.2803991920    8.5297193057   -2.1307094466
 20        -10.1932816826   -2.2803988634    8.5297196763   -2.1307096867
 21        -10.1932818864   -2.2803986926    8.5297198688   -2.1307098154
 22        -10.1932820006   -2.2803986034    8.5297199692   -2.1307098847
 23        -10.1932820648   -2.2803985565    8.5297200219   -2.1307099221
Atom SCF converged after  23 iterations to a total energy of    -10.19328206

Atom SCF Calculation for O  : Z (AE atom) =   8 : Z (PS atom) =   6
Config String:
Orbitals (num,occ):  2     2.00 4.00
Orbitals   (num,l):  2        0    1
Real-space Grid (nr,dr,rmax): 1203    0.0066555740    8.0000000000
Spherical Bessel Basis (nsws,lmax,cutoff):   47    1  176.3951722778
Confining potential (l,width,scale):  0    3.0000000000  100.0000000000
Confining potential (l,width,scale):  1    3.0000000000  100.0000000000
  1         -1.9497477053   -7.5870966769   10.1554312477   -2.4822447765
  2        -15.9466298225   -3.1778351734   13.6353006614   -3.2931224232
  3        -16.0387051750   -3.0909030611   13.7305651010   -3.3194522996
  4        -15.9025031450   -3.1083023605   13.7128101414   -3.3180850501
  5        -15.8912953362   -3.1033022259   13.7185404266   -3.3206942093
  6        -15.8793912992   -3.1043100674   13.7175820250   -3.3209366960
  7        -15.8748748605   -3.1043975610   13.7175531476   -3.3211845618
  8        -15.8725354084   -3.1044655610   13.7175148333   -3.3213149154
  9        -15.8713193866   -3.1045129589   13.7174824743   -3.3213832909
 10        -15.8706863385   -3.1045436851   13.7174593895   -3.3214192053
 11        -15.8703562731   -3.1045627330   13.7174442347   -3.3214381098
 12        -15.8701839150   -3.1045741887   13.7174347673   -3.3214480859
 13        -15.8700937727   -3.1045809294   13.7174290448   -3.3214533647
 14        -15.8700465571   -3.1045848305   13.7174256662   -3.3214561658
 15        -15.8700217888   -3.1045870593   13.7174237063   -3.3214576563
 16        -15.8700087767   -3.1045883194   13.7174225849   -3.3214584516
 17        -15.8700019307   -3.1045890258   13.7174219502   -3.3214588771
 18        -15.8699983237   -3.1045894190   13.7174215942   -3.3214591053
 19        -15.8699964206   -3.1045896366   13.7174213960   -3.3214592281
 20        -15.8699954151   -3.1045897563   13.7174212864   -3.3214592942
 21        -15.8699948832   -3.1045898219   13.7174212260   -3.3214593299
 22        -15.8699946014   -3.1045898577   13.7174211930   -3.3214593493
 23        -15.8699944520   -3.1045898771   13.7174211750   -3.3214593597
 24        -15.8699943726   -3.1045898877   13.7174211652   -3.3214593654
Atom SCF converged after  24 iterations to a total energy of    -15.86999437

========================== Calculation in vacuum ==============================
= Adjusting the following parameters: 
= is_implicit_solvent: F
= is_include_apolar: F
= write_denskern: T
= write_tightbox_ngwfs: T
= restart read filename prefix: ""
= restart write filename prefix: "vacuum_"
===============================================================================

Determining parallel strategy ...
... using space-filling curve
... NGWF load balancing: max    110;  min    109;  average    109
... Projector load balancing: max     26;  min     21;  average     22
... done
Calculating direct Ion-Ion energy ...
Ion-Ion Energy        :    839406.16762237763032
Basis initialisation ...... NGWF spheres initialised
... Projector spheres initialised
... NGWF tight boxes initialised
... Tight-boxes gathered
... NGWF basis size (local,global):    1387419  83234664
... Nonlocal pseudopotential projector initialisation
... done

========================== Sparse matrix information ===========================
                        Overlap matrix filling:   6.84%
                        Density kernel filling: 100.00%
              NGWF-Proj overlap matrix filling:   1.79%
                    Hamiltonian matrix filling:   7.75%
                  NGWF diagonal matrix filling:   0.05%
                             KS matrix filling: 100.00% 
                           KSKS matrix filling: 100.00% 
================================================================================

Sparse matrix initialisation ... done

Generating smeared ion density ... done
Smeared ion self correction:     -14538.952731
Smeared ion non-self correction: -839357.628458
NGWF initialisation ...... done
============ Calculation of NGWF S^-1 using Hotelling algorithm ================ 
         Iteration  |  Frobenius norm and Maximum abs value    (of I-S*S_n^-1)   
               1       0.78652471E+02     0.98202730E+00
               2       0.76749621E+02     0.96456215E+00
               3       0.73681295E+02     0.93104711E+00
               4       0.69343583E+02     0.86905368E+00
               5       0.63969910E+02     0.76260488E+00
               6       0.57966206E+02     0.70033645E+00
               7       0.51969062E+02     0.66872199E+00
               8       0.46415611E+02     0.64420437E+00
               9       0.40254001E+02     0.60639146E+00
              10       0.31843103E+02     0.54071136E+00
              11       0.21196942E+02     0.43371761E+00
              12       0.10693734E+02     0.28575060E+00
              13       0.34647027E+01     0.13237804E+00
              14       0.53306129E+00     0.32839741E-01
              15       0.25254190E-01     0.26671438E-02
              16       0.16304331E-03     0.26200805E-04
              17       0.15524053E-07     0.31257078E-08
              18       0.89734622E-13     0.45519144E-14
================================================================================
Calculating local pseudopotential in open BC on the fine real space grid ...
... done

MG BCs: +ve charge blocks (gridpoints):     19645 (   15440140).
MG BCs: -ve charge blocks (gridpoints):      7922 (    1062918).
MG BCs:     Elided blocks (gridpoints):    177475 (  174273647).
MG BCs: Computational effort saved:  99.9856%.
MG BCs: Charge after coarse-graining:           -9.0002158.
MG DL_MG: Calling solver with defect correction order = 8
MG DL_MG: Solver finished
MG Hartree energy from (\int phi*rho dr):              1461.306917
MG Hartree energy from (\int eps (grad phi)^2 dr):     1460.680169
MG Discrepancy due to finite box and discretization:     -0.626749 (  -0.04289%)
MG Correction to account for finite box:                  0.462939
MG Remaining discrepancy, due to discretization:         -0.163810 (  -0.01121%)
Up spin density kernel initialisation ... 
======= Optimisation of K by Palser-Manolopoulos canonical purification ======== 
         Iteration  |  Band structure energy |    c_n   
               1       -2598.20875182623377    0.5266436
               2       -2775.51525217635026    0.5172886
               3       -2956.47288854106546    0.5164094
               4       -3106.51349217807638    0.5309784
               5       -3197.90972793490982    0.5682139
               6       -3235.81421345176932    0.6129969
               7       -3248.78784744413724    0.6237605
               8       -3254.52436483589281    0.6233158
               9       -3257.31189231653980    0.6368667
              10       -3258.47543334728334    0.6491324
              11       -3258.95857398269845    0.6465203
              12       -3259.18114489139907    0.6268225
              13       -3259.28833186286693    0.5580014
              14       -3259.34526811072965    0.4271335
              15       -3259.36171929267402    0.3415333
              16       -3259.36303395568893    0.3013924
              17       -3259.36363216863174    0.2764212
              18       -3259.36381324242757    0.2857873
              19       -3259.36392267291558    0.3007386
              20       -3259.36400957625710    0.3149505
              21       -3259.36407573743554    0.3280705
              22       -3259.36412554733215    0.3410642
              23       -3259.36416501587883    0.3563850
              24       -3259.36419942716475    0.3776141
              25       -3259.36423162328083    0.4081395
              26       -3259.36426126675451    0.4470543
              27       -3259.36428556674628    0.4823581
              28       -3259.36430337225192    0.4980846
              29       -3259.36431848744496    0.4999779
              30       -3259.36433136467849    0.5000000
              31       -3259.36433772215332    0.5000000
              32       -3259.36433875022476    0.5000000
              33       -3259.36433877190848    0.5000000
Termination criterion satisfied: band energy change below threshold.
Final occupancy bounds: [    0.00000000000008:    0.99999999999999]
Closest occupancy to 0.5:     0.99999999999854
================================================================================
... done

Writing density kernel to file "complex_23281.vacuum_dkn" ... done

>>> Optimising kernel for current NGWFs:
   Initial electron number for spin 1:    7234.00000000
     Final electron number for spin 1:    7234.00000000

=================== Penalty functional idempotency correction ==================
 RMS occupancy error at iteration   1:  0.000000 (step -0.5000 Ne1=   7234.0000)
            Final RMS occupancy error   :  0.000000 (Ne1=   7234.0000)
               Final occupancy bounds   : [  0.0000,  1.0000]
================================================================================

................................................................................
<<<<<<<<<<<<<< LNV (Original version) density kernel optimisation >>>>>>>>>>>>>>
~~~~~~~~~~~~~~~~~~~~~~~~~~~~~~~~~~~~~~~~~~~~~~~~~~~~~~~~~~~~~~~~~~~~~~~~~~~~~~~~
   iter  |      energy (Eh)       | rms gradient |  commutator  |   dE (Eh)
MG BCs: +ve charge blocks (gridpoints):     30056 (   16650703).
MG BCs: -ve charge blocks (gridpoints):      8203 (    1090138).
MG BCs:     Elided blocks (gridpoints):    167056 (  173035864).
MG BCs: Computational effort saved:  99.9799%.
MG BCs: Charge after coarse-graining:           -9.0009462.
MG DL_MG: Calling solver with defect correction order = 8
MG DL_MG: Solver finished
MG Hartree energy from (\int phi*rho dr):              1424.957071
MG Hartree energy from (\int eps (grad phi)^2 dr):     1424.270315
MG Discrepancy due to finite box and discretization:     -0.686756 (  -0.04819%)
MG Correction to account for finite box:                  0.479242
MG Remaining discrepancy, due to discretization:         -0.207514 (  -0.01456%)
      ideal mu1:      -0.704976761927
             Q0:  -11586.180541238980
             G0:    -147.951952504762
   RMS gradient:       0.001858733215
MG BCs: +ve charge blocks (gridpoints):     30064 (   16726143).
MG BCs: -ve charge blocks (gridpoints):      8133 (    1073556).
MG BCs:     Elided blocks (gridpoints):    167048 (  172977006).
MG BCs: Computational effort saved:  99.9800%.
MG BCs: Charge after coarse-graining:           -9.0009700.
MG DL_MG: Calling solver with defect correction order = 8
MG DL_MG: Solver finished
MG Hartree energy from (\int phi*rho dr):              1444.918493
MG Hartree energy from (\int eps (grad phi)^2 dr):     1444.250310
MG Discrepancy due to finite box and discretization:     -0.668184 (  -0.04624%)
MG Correction to account for finite box:                  0.477513
MG Remaining discrepancy, due to discretization:         -0.190670 (  -0.01320%)
     Trial step:       0.500000000000
             Q1:  -11597.867684518103
 Quadratic coef:      62.288832973258
 Linear coef   :     -73.975976252381
           Qmin:  -11608.144530614260
Quadratic minimum step length (  0.296907056696) accepted
    Initial Ne1:    7234.00000000
      Final Ne1:    7234.00000000

=================== Penalty functional idempotency correction ==================
 RMS occupancy error at iteration   1:  0.003503 (step -0.4881 Ne1=   7234.0000)
 RMS occupancy error at iteration   2:  0.000028 (step -0.5001 Ne1=   7234.0000)
            Final RMS occupancy error   :  0.000000 (Ne1=   7234.0000)
               Final occupancy bounds   : [  0.0000,  1.0000]
================================================================================

    1        -1.158618054124E+04     1.8587E-03     1.6814E-03
MG BCs: +ve charge blocks (gridpoints):     30048 (   16696416).
MG BCs: -ve charge blocks (gridpoints):      8162 (    1080836).
MG BCs:     Elided blocks (gridpoints):    167063 (  172999453).
MG BCs: Computational effort saved:  99.9800%.
MG BCs: Charge after coarse-graining:           -9.0009605.
MG DL_MG: Calling solver with defect correction order = 8
MG DL_MG: Solver finished
MG Hartree energy from (\int phi*rho dr):              1428.674755
MG Hartree energy from (\int eps (grad phi)^2 dr):     1428.000064
MG Discrepancy due to finite box and discretization:     -0.674691 (  -0.04722%)
MG Correction to account for finite box:                  0.478111
MG Remaining discrepancy, due to discretization:         -0.196580 (  -0.01376%)
      ideal mu1:      -0.747936954786
             Q0:  -11608.581290906062
             G0:     -12.287217861895
   RMS gradient:       0.000531838525
MG BCs: +ve charge blocks (gridpoints):     30055 (   16712792).
MG BCs: -ve charge blocks (gridpoints):      8134 (    1076092).
MG BCs:     Elided blocks (gridpoints):    167056 (  172987821).
MG BCs: Computational effort saved:  99.9800%.
MG BCs: Charge after coarse-graining:           -9.0009645.
MG DL_MG: Calling solver with defect correction order = 8
MG DL_MG: Solver finished
MG Hartree energy from (\int phi*rho dr):              1433.031784
MG Hartree energy from (\int eps (grad phi)^2 dr):     1432.361743
MG Discrepancy due to finite box and discretization:     -0.670041 (  -0.04676%)
MG Correction to account for finite box:                  0.476796
MG Remaining discrepancy, due to discretization:         -0.193245 (  -0.01349%)
     Trial step:       0.385296675755
             Q1:  -11611.480391024379
 Quadratic coef:       1.835124078149
 Linear coef   :      -4.734224196465
           Qmin:  -11611.634610162411
Quadratic minimum step length (  0.496991148145) accepted
    Initial Ne1:    7233.99989642
      Final Ne1:    7234.00000000

=================== Penalty functional idempotency correction ==================
 RMS occupancy error at iteration   1:  0.001878 (step -0.4927 Ne1=   7234.0000)
 RMS occupancy error at iteration   2:  0.000012 (step -0.5002 Ne1=   7234.0000)
            Final RMS occupancy error   :  0.000000 (Ne1=   7234.0000)
               Final occupancy bounds   : [  0.0000,  1.0000]
================================================================================

    2        -1.160858129091E+04     5.3184E-04     4.8111E-04    -2.2401E+01
MG BCs: +ve charge blocks (gridpoints):     30057 (   16717431).
MG BCs: -ve charge blocks (gridpoints):      8130 (    1074803).
MG BCs:     Elided blocks (gridpoints):    167054 (  172984471).
MG BCs: Computational effort saved:  99.9800%.
MG BCs: Charge after coarse-graining:           -9.0009658.
MG DL_MG: Calling solver with defect correction order = 8
MG DL_MG: Solver finished
MG Hartree energy from (\int phi*rho dr):              1434.345679
MG Hartree energy from (\int eps (grad phi)^2 dr):     1433.676901
MG Discrepancy due to finite box and discretization:     -0.668778 (  -0.04663%)
MG Correction to account for finite box:                  0.476432
MG Remaining discrepancy, due to discretization:         -0.192345 (  -0.01341%)
      ideal mu1:      -0.772364958924
             Q0:  -11611.672986613587
             G0:      -2.026208934374
   RMS gradient:       0.000216167606
MG BCs: +ve charge blocks (gridpoints):     30063 (   16717402).
MG BCs: -ve charge blocks (gridpoints):      8132 (    1075616).
MG BCs:     Elided blocks (gridpoints):    167048 (  172983687).
MG BCs: Computational effort saved:  99.9800%.
MG BCs: Charge after coarse-graining:           -9.0009651.
MG DL_MG: Calling solver with defect correction order = 8
MG DL_MG: Solver finished
MG Hartree energy from (\int phi*rho dr):              1432.608791
MG Hartree energy from (\int eps (grad phi)^2 dr):     1431.940678
MG Discrepancy due to finite box and discretization:     -0.668114 (  -0.04664%)
MG Correction to account for finite box:                  0.475942
MG Remaining discrepancy, due to discretization:         -0.192172 (  -0.01341%)
     Trial step:       0.437594603783
             Q1:  -11612.194445583853
 Quadratic coef:       0.365199125552
 Linear coef   :      -0.886658095819
           Qmin:  -11612.211160532879
Quadratic minimum step length (  0.531212660414) accepted
    Initial Ne1:    7233.99992355
      Final Ne1:    7234.00000000

=================== Penalty functional idempotency correction ==================
 RMS occupancy error at iteration   1:  0.000699 (step -0.4960 Ne1=   7234.0000)
 RMS occupancy error at iteration   2:  0.000006 (step -0.5004 Ne1=   7234.0000)
            Final RMS occupancy error   :  0.000000 (Ne1=   7234.0000)
               Final occupancy bounds   : [  0.0000,  1.0000]
================================================================================

    3        -1.161167298661E+04     2.1617E-04     1.9555E-04    -3.0917E+00
MG BCs: +ve charge blocks (gridpoints):     30063 (   16717325).
MG BCs: -ve charge blocks (gridpoints):      8136 (    1075826).
MG BCs:     Elided blocks (gridpoints):    167048 (  172983554).
MG BCs: Computational effort saved:  99.9800%.
MG BCs: Charge after coarse-graining:           -9.0009651.
MG DL_MG: Calling solver with defect correction order = 8
MG DL_MG: Solver finished
MG Hartree energy from (\int phi*rho dr):              1432.245542
MG Hartree energy from (\int eps (grad phi)^2 dr):     1431.577557
MG Discrepancy due to finite box and discretization:     -0.667985 (  -0.04664%)
MG Correction to account for finite box:                  0.475839
MG Remaining discrepancy, due to discretization:         -0.192146 (  -0.01342%)
      ideal mu1:      -0.773527225423
             Q0:  -11612.216622194042
             G0:      -0.573830187611
   RMS gradient:       0.000115110053
MG BCs: +ve charge blocks (gridpoints):     30062 (   16717947).
MG BCs: -ve charge blocks (gridpoints):      8132 (    1075698).
MG BCs:     Elided blocks (gridpoints):    167049 (  172983060).
MG BCs: Computational effort saved:  99.9800%.
MG BCs: Charge after coarse-graining:           -9.0009653.
MG DL_MG: Calling solver with defect correction order = 8
MG DL_MG: Solver finished
MG Hartree energy from (\int phi*rho dr):              1433.367870
MG Hartree energy from (\int eps (grad phi)^2 dr):     1432.700024
MG Discrepancy due to finite box and discretization:     -0.667846 (  -0.04659%)
MG Correction to account for finite box:                  0.475607
MG Remaining discrepancy, due to discretization:         -0.192239 (  -0.01341%)
     Trial step:       0.482136696030
             Q1:  -11612.359128249227
 Quadratic coef:       0.134158535551
 Linear coef   :      -0.276664590737
           Qmin:  -11612.359258097627
Quadratic minimum step length (  0.497136284092) accepted
    Initial Ne1:    7233.99994154
      Final Ne1:    7234.00000000

=================== Penalty functional idempotency correction ==================
 RMS occupancy error at iteration   1:  0.000365 (step -0.4909 Ne1=   7234.0000)
 RMS occupancy error at iteration   2:  0.000007 (step -0.5002 Ne1=   7234.0000)
            Final RMS occupancy error   :  0.000000 (Ne1=   7234.0000)
               Final occupancy bounds   : [  0.0000,  1.0000]
================================================================================

    4        -1.161221662219E+04     1.1511E-04     1.0413E-04    -5.4364E-01
MG BCs: +ve charge blocks (gridpoints):     30062 (   16717983).
MG BCs: -ve charge blocks (gridpoints):      8132 (    1075680).
MG BCs:     Elided blocks (gridpoints):    167049 (  172983042).
MG BCs: Computational effort saved:  99.9800%.
MG BCs: Charge after coarse-graining:           -9.0009653.
MG DL_MG: Calling solver with defect correction order = 8
MG DL_MG: Solver finished
MG Hartree energy from (\int phi*rho dr):              1433.403647
MG Hartree energy from (\int eps (grad phi)^2 dr):     1432.735804
MG Discrepancy due to finite box and discretization:     -0.667843 (  -0.04659%)
MG Correction to account for finite box:                  0.475600
MG Remaining discrepancy, due to discretization:         -0.192243 (  -0.01341%)
      ideal mu1:      -0.773570860446
             Q0:  -11612.360037387814
             G0:      -0.227888608523
   RMS gradient:       0.000072768300
MG BCs: +ve charge blocks (gridpoints):     30066 (   16718091).
MG BCs: -ve charge blocks (gridpoints):      8129 (    1075473).
MG BCs:     Elided blocks (gridpoints):    167045 (  172983141).
MG BCs: Computational effort saved:  99.9800%.
MG BCs: Charge after coarse-graining:           -9.0009653.
MG DL_MG: Calling solver with defect correction order = 8
MG DL_MG: Solver finished
MG Hartree energy from (\int phi*rho dr):              1433.801836
MG Hartree energy from (\int eps (grad phi)^2 dr):     1433.133817
MG Discrepancy due to finite box and discretization:     -0.668019 (  -0.04659%)
MG Correction to account for finite box:                  0.475606
MG Remaining discrepancy, due to discretization:         -0.192413 (  -0.01342%)
     Trial step:       0.489579049275
             Q1:  -11612.436029375182
 Quadratic coef:       0.035577500934
 Linear coef   :      -0.111569488301
           Qmin:  -11612.447506647832
Quadratic minimum step length (  0.767649252713) accepted
    Initial Ne1:    7233.99990729
      Final Ne1:    7234.00000000

=================== Penalty functional idempotency correction ==================
 RMS occupancy error at iteration   1:  0.000819 (step -0.4490 Ne1=   7234.0000)
 RMS occupancy error at iteration   2:  0.000029 (step -0.4998 Ne1=   7234.0000)
            Final RMS occupancy error   :  0.000000 (Ne1=   7234.0000)
               Final occupancy bounds   : [ -0.0000,  1.0000]
================================================================================

    5        -1.161236003739E+04     7.2768E-05     6.5827E-05    -1.4342E-01
MG BCs: +ve charge blocks (gridpoints):     30063 (   16718147).
MG BCs: -ve charge blocks (gridpoints):      8133 (    1075356).
MG BCs:     Elided blocks (gridpoints):    167048 (  172983202).
MG BCs: Computational effort saved:  99.9800%.
MG BCs: Charge after coarse-graining:           -9.0009654.
MG DL_MG: Calling solver with defect correction order = 8
MG DL_MG: Solver finished
MG Hartree energy from (\int phi*rho dr):              1434.027214
MG Hartree energy from (\int eps (grad phi)^2 dr):     1433.359092
MG Discrepancy due to finite box and discretization:     -0.668121 (  -0.04659%)
MG Correction to account for finite box:                  0.475611
MG Remaining discrepancy, due to discretization:         -0.192510 (  -0.01342%)
      ideal mu1:      -0.773050746518
             Q0:  -11612.445464818273
             G0:      -0.232727166392
   RMS gradient:       0.000074812324
MG BCs: +ve charge blocks (gridpoints):     30063 (   16717245).
MG BCs: -ve charge blocks (gridpoints):      8138 (    1075854).
MG BCs:     Elided blocks (gridpoints):    167048 (  172983606).
MG BCs: Computational effort saved:  99.9800%.
MG BCs: Charge after coarse-graining:           -9.0009650.
MG DL_MG: Calling solver with defect correction order = 8
MG DL_MG: Solver finished
MG Hartree energy from (\int phi*rho dr):              1432.511043
MG Hartree energy from (\int eps (grad phi)^2 dr):     1431.842881
MG Discrepancy due to finite box and discretization:     -0.668162 (  -0.04664%)
MG Correction to account for finite box:                  0.475658
MG Remaining discrepancy, due to discretization:         -0.192504 (  -0.01344%)
     Trial step:       0.613045668217
             Q1:  -11612.540626270231
 Quadratic coef:       0.047510929275
 Linear coef   :      -0.142672381233
           Qmin:  -11612.552573901790
Quadratic minimum step length (  0.920469107048) accepted
    Initial Ne1:    7234.00008315
      Final Ne1:    7234.00000000

=================== Penalty functional idempotency correction ==================
 RMS occupancy error at iteration   1:  0.003963 (step -0.3189 Ne1=   7234.0000)
 RMS occupancy error at iteration   2:  0.000322 (step -0.4850 Ne1=   7234.0000)
 RMS occupancy error at iteration   3:  0.000007 (step -0.5002 Ne1=   7234.0000)
            Final RMS occupancy error   :  0.000000 (Ne1=   7234.0000)
               Final occupancy bounds   : [  0.0000,  1.0000]
================================================================================

    6        -1.161244546482E+04     7.4812E-05     6.7676E-05    -8.5427E-02
MG BCs: +ve charge blocks (gridpoints):     30061 (   16716862).
MG BCs: -ve charge blocks (gridpoints):      8137 (    1075981).
MG BCs:     Elided blocks (gridpoints):    167050 (  172983862).
MG BCs: Computational effort saved:  99.9800%.
MG BCs: Charge after coarse-graining:           -9.0009649.
MG DL_MG: Calling solver with defect correction order = 8
MG DL_MG: Solver finished
MG Hartree energy from (\int phi*rho dr):              1431.771485
MG Hartree energy from (\int eps (grad phi)^2 dr):     1431.103304
MG Discrepancy due to finite box and discretization:     -0.668182 (  -0.04667%)
MG Correction to account for finite box:                  0.475677
MG Remaining discrepancy, due to discretization:         -0.192504 (  -0.01345%)
      ideal mu1:      -0.772136718701
             Q0:  -11612.547592790448
             G0:      -0.307736913741
   RMS gradient:       0.000084770844
MG BCs: +ve charge blocks (gridpoints):     30065 (   16718563).
MG BCs: -ve charge blocks (gridpoints):      8130 (    1075310).
MG BCs:     Elided blocks (gridpoints):    167046 (  172982832).
MG BCs: Computational effort saved:  99.9800%.
MG BCs: Charge after coarse-graining:           -9.0009656.
MG DL_MG: Calling solver with defect correction order = 8
MG DL_MG: Solver finished
MG Hartree energy from (\int phi*rho dr):              1433.813542
MG Hartree energy from (\int eps (grad phi)^2 dr):     1433.145745
MG Discrepancy due to finite box and discretization:     -0.667797 (  -0.04657%)
MG Correction to account for finite box:                  0.475544
MG Remaining discrepancy, due to discretization:         -0.192252 (  -0.01341%)
     Trial step:       0.751192118438
             Q1:  -11612.651558193611
 Quadratic coef:       0.127204140992
 Linear coef   :      -0.231169544155
           Qmin:  -11612.652619556338
Quadratic minimum step length (  0.682575025616) accepted
    Initial Ne1:    7233.99995945
      Final Ne1:    7234.00000000

=================== Penalty functional idempotency correction ==================
 RMS occupancy error at iteration   1:  0.000212 (step -0.4870 Ne1=   7234.0000)
 RMS occupancy error at iteration   2:  0.000002 (step -0.5000 Ne1=   7234.0000)
            Final RMS occupancy error   :  0.000000 (Ne1=   7234.0000)
               Final occupancy bounds   : [  0.0000,  1.0000]
================================================================================

    7        -1.161254759279E+04     8.4771E-05     7.6685E-05    -1.0213E-01
MG BCs: +ve charge blocks (gridpoints):     30065 (   16718484).
MG BCs: -ve charge blocks (gridpoints):      8131 (    1075336).
MG BCs:     Elided blocks (gridpoints):    167046 (  172982885).
MG BCs: Computational effort saved:  99.9800%.
MG BCs: Charge after coarse-graining:           -9.0009655.
MG DL_MG: Calling solver with defect correction order = 8
MG DL_MG: Solver finished
MG Hartree energy from (\int phi*rho dr):              1433.626450
MG Hartree energy from (\int eps (grad phi)^2 dr):     1432.958618
MG Discrepancy due to finite box and discretization:     -0.667832 (  -0.04658%)
MG Correction to account for finite box:                  0.475557
MG Remaining discrepancy, due to discretization:         -0.192275 (  -0.01341%)
      ideal mu1:      -0.773549780818
             Q0:  -11612.652668999392
             G0:      -0.260081562673
   RMS gradient:       0.000077940294
MG BCs: +ve charge blocks (gridpoints):     30065 (   16718640).
MG BCs: -ve charge blocks (gridpoints):      8130 (    1075215).
MG BCs:     Elided blocks (gridpoints):    167046 (  172982850).
MG BCs: Computational effort saved:  99.9800%.
MG BCs: Charge after coarse-graining:           -9.0009656.
MG DL_MG: Calling solver with defect correction order = 8
MG DL_MG: Solver finished
MG Hartree energy from (\int phi*rho dr):              1433.666241
MG Hartree energy from (\int eps (grad phi)^2 dr):     1432.998601
MG Discrepancy due to finite box and discretization:     -0.667640 (  -0.04657%)
MG Correction to account for finite box:                  0.475513
MG Remaining discrepancy, due to discretization:         -0.192127 (  -0.01340%)
     Trial step:       0.716062133816
             Q1:  -11612.755300076329
 Quadratic coef:       0.083603481797
 Linear coef   :      -0.186234558734
           Qmin:  -11612.756382714782
Quadratic minimum step length (  0.797547617943) accepted
    Initial Ne1:    7233.99995966
      Final Ne1:    7234.00000000

=================== Penalty functional idempotency correction ==================
 RMS occupancy error at iteration   1:  0.001494 (step -0.4170 Ne1=   7234.0000)
 RMS occupancy error at iteration   2:  0.000058 (step -0.4978 Ne1=   7234.0000)
 RMS occupancy error at iteration   3:  0.000000 (step -0.5000 Ne1=   7234.0000)
            Final RMS occupancy error   :  0.000000 (Ne1=   7234.0000)
               Final occupancy bounds   : [  0.0000,  1.0000]
================================================================================

    8        -1.161265266900E+04     7.7940E-05     7.0506E-05    -1.0508E-01
MG BCs: +ve charge blocks (gridpoints):     30065 (   16718617).
MG BCs: -ve charge blocks (gridpoints):      8130 (    1075225).
MG BCs:     Elided blocks (gridpoints):    167046 (  172982863).
MG BCs: Computational effort saved:  99.9800%.
MG BCs: Charge after coarse-graining:           -9.0009656.
MG DL_MG: Calling solver with defect correction order = 8
MG DL_MG: Solver finished
MG Hartree energy from (\int phi*rho dr):              1433.674708
MG Hartree energy from (\int eps (grad phi)^2 dr):     1433.007085
MG Discrepancy due to finite box and discretization:     -0.667623 (  -0.04657%)
MG Correction to account for finite box:                  0.475513
MG Remaining discrepancy, due to discretization:         -0.192110 (  -0.01340%)
      ideal mu1:      -0.773528767257
             Q0:  -11612.755162589368
             G0:      -0.234743354587
   RMS gradient:       0.000074144258
MG BCs: +ve charge blocks (gridpoints):     30062 (   16717819).
MG BCs: -ve charge blocks (gridpoints):      8134 (    1075627).
MG BCs:     Elided blocks (gridpoints):    167049 (  172983259).
MG BCs: Computational effort saved:  99.9800%.
MG BCs: Charge after coarse-graining:           -9.0009653.
MG DL_MG: Calling solver with defect correction order = 8
MG DL_MG: Solver finished
MG Hartree energy from (\int phi*rho dr):              1432.448399
MG Hartree energy from (\int eps (grad phi)^2 dr):     1431.780948
MG Discrepancy due to finite box and discretization:     -0.667451 (  -0.04660%)
MG Correction to account for finite box:                  0.475376
MG Remaining discrepancy, due to discretization:         -0.192075 (  -0.01341%)
     Trial step:       0.755707383267
             Q1:  -11612.832445965381
 Quadratic coef:       0.100113910221
 Linear coef   :      -0.177397286235
           Qmin:  -11612.833747565957
Quadratic minimum step length (  0.669539520947) accepted
    Initial Ne1:    7233.99996935
      Final Ne1:    7234.00000000

=================== Penalty functional idempotency correction ==================
 RMS occupancy error at iteration   1:  0.003128 (step -0.3509 Ne1=   7234.0000)
 RMS occupancy error at iteration   2:  0.000207 (step -0.4896 Ne1=   7234.0000)
 RMS occupancy error at iteration   3:  0.000003 (step -0.5000 Ne1=   7234.0000)
            Final RMS occupancy error   :  0.000000 (Ne1=   7234.0000)
               Final occupancy bounds   : [  0.0000,  1.0000]
================================================================================

    9        -1.161275516259E+04     7.4144E-05     6.7072E-05    -1.0249E-01
MG BCs: +ve charge blocks (gridpoints):     30063 (   16717904).
MG BCs: -ve charge blocks (gridpoints):      8134 (    1075592).
MG BCs:     Elided blocks (gridpoints):    167048 (  172983209).
MG BCs: Computational effort saved:  99.9800%.
MG BCs: Charge after coarse-graining:           -9.0009653.
MG DL_MG: Calling solver with defect correction order = 8
MG DL_MG: Solver finished
MG Hartree energy from (\int phi*rho dr):              1432.583396
MG Hartree energy from (\int eps (grad phi)^2 dr):     1431.915903
MG Discrepancy due to finite box and discretization:     -0.667493 (  -0.04659%)
MG Correction to account for finite box:                  0.475413
MG Remaining discrepancy, due to discretization:         -0.192080 (  -0.01341%)
      ideal mu1:      -0.772401375592
   10        -1.161283764364E+04     6.1250E-05     5.5408E-05    -8.2481E-02
Finished density kernel iterations (  10)

Writing density kernel to file "complex_23281.vacuum_dkn" ... done


>>> Density kernel optimised for the current NGWF basis:
     ~~~~~~~~~~~~~~~~~~~~~~~~~~~~~~~~~~~~~~~~~~~~~~~~~~~~~~~~~~~
     Total energy                =  -1.16128376436351E+04  Eh
     Estimated bandgap           =  -5.1842E-01  Eh
     RMS occupancy error         =   1.2464E-09
     [H,K] commutator            =   5.5408E-05
     Occupancy bounds            = [  0.000:  1.000]
     ~~~~~~~~~~~~~~~~~~~~~~~~~~~~~~~~~~~~~~~~~~~~~~~~~~~~~~~~~~~




################################################################################
########################### NGWF CG iteration  001 #############################
################################################################################
****** Reciprocal space K.E. preconditioning with k_zero =  3.5000 a0^-1 *******

>>> Checking for convergence of NGWFs:   NOT CONVERGED
  ========================================================================
         NGWF RMS gradient =  1.6487E-03 >  2.0000E-06  | above tolerance
  ========================================================================

>>> Improving NGWFs using line search:
============ Calculation of NGWF S^-1 using Hotelling algorithm ================ 
         Iteration  |  Frobenius norm and Maximum abs value    (of I-S*S_n^-1)   
               1       0.20772678E+00     0.54190571E-02
               2       0.10054380E-02     0.41340672E-04
               3       0.40976790E-07     0.25478298E-08
               4       0.13102155E-12     0.55511151E-14
================================================================================
MG BCs: +ve charge blocks (gridpoints):     29619 (   16659373).
MG BCs: -ve charge blocks (gridpoints):      8142 (    1075062).
MG BCs:     Elided blocks (gridpoints):    167496 (  173042270).
MG BCs: Computational effort saved:  99.9802%.
MG BCs: Charge after coarse-graining:           -9.0009629.
MG DL_MG: Calling solver with defect correction order = 8
MG DL_MG: Solver finished
MG Hartree energy from (\int phi*rho dr):              1399.488105
MG Hartree energy from (\int eps (grad phi)^2 dr):     1398.821394
MG Discrepancy due to finite box and discretization:     -0.666711 (  -0.04764%)
MG Correction to account for finite box:                  0.475285
MG Remaining discrepancy, due to discretization:         -0.191426 (  -0.01368%)
============ Calculation of NGWF S^-1 using Hotelling algorithm ================ 
         Iteration  |  Frobenius norm and Maximum abs value    (of I-S*S_n^-1)   
               1       0.18701328E+01     0.40416965E-01
               2       0.73012362E-01     0.21523787E-02
               3       0.15391828E-03     0.84735620E-05
               4       0.13469984E-08     0.16293861E-09
               5       0.11165736E-12     0.57731597E-14
================================================================================
------------------------------- NGWF line search -------------------------------
RMS gradient                =       0.00164865479919
Trial step length           =               0.122474
Gradient along search dir.  =       -291.04039038577
Functional at step 0        =  -11612.83764363511000
Functional at step 1        =  -11645.67350647575222
Functional predicted        =  -11725.91128169070180
Selected quadratic step     =               0.777031
--------------------------- NGWF line search finished --------------------------
                                               
Writing NGWFs to file "complex_23281.vacuum_tightbox_ngwfs"....  done

>>> Optimising kernel for current NGWFs:
   Initial electron number for spin 1:    7269.66859756
     Final electron number for spin 1:    7234.00000000

=================== Penalty functional idempotency correction ==================
 RMS occupancy error at iteration   1:  0.004314 (step -0.4857 Ne1=   7234.0000)
 RMS occupancy error at iteration   2:  0.000071 (step -0.5003 Ne1=   7234.0000)
            Final RMS occupancy error   :  0.000000 (Ne1=   7234.0000)
               Final occupancy bounds   : [  0.0000,  1.0000]
================================================================================

................................................................................
<<<<<<<<<<<<<< LNV (Original version) density kernel optimisation >>>>>>>>>>>>>>
~~~~~~~~~~~~~~~~~~~~~~~~~~~~~~~~~~~~~~~~~~~~~~~~~~~~~~~~~~~~~~~~~~~~~~~~~~~~~~~~
   iter  |      energy (Eh)       | rms gradient |  commutator  |   dE (Eh)
MG BCs: +ve charge blocks (gridpoints):     23955 (   16314620).
MG BCs: -ve charge blocks (gridpoints):      8276 (    1057370).
MG BCs:     Elided blocks (gridpoints):    173165 (  173404715).
MG BCs: Computational effort saved:  99.9831%.
MG BCs: Charge after coarse-graining:           -9.0006844.
MG DL_MG: Calling solver with defect correction order = 8
MG DL_MG: Solver finished
MG Hartree energy from (\int phi*rho dr):              1245.224502
MG Hartree energy from (\int eps (grad phi)^2 dr):     1244.557142
MG Discrepancy due to finite box and discretization:     -0.667360 (  -0.05359%)
MG Correction to account for finite box:                  0.474684
MG Remaining discrepancy, due to discretization:         -0.192676 (  -0.01547%)
      ideal mu1:      -0.712871651653
             Q0:  -11724.971022968530
             G0:      -9.953520017869
   RMS gradient:       0.000482108797
MG BCs: +ve charge blocks (gridpoints):     24005 (   16335733).
MG BCs: -ve charge blocks (gridpoints):      8255 (    1051300).
MG BCs:     Elided blocks (gridpoints):    173115 (  173389672).
MG BCs: Computational effort saved:  99.9831%.
MG BCs: Charge after coarse-graining:           -9.0006784.
MG DL_MG: Calling solver with defect correction order = 8
MG DL_MG: Solver finished
MG Hartree energy from (\int phi*rho dr):              1264.872646
MG Hartree energy from (\int eps (grad phi)^2 dr):     1264.200193
MG Discrepancy due to finite box and discretization:     -0.672453 (  -0.05316%)
MG Correction to account for finite box:                  0.473699
MG Remaining discrepancy, due to discretization:         -0.198754 (  -0.01571%)
     Trial step:       0.711319871344
             Q1:  -11724.478852944099
 Quadratic coef:       7.572306602962
 Linear coef   :      -7.080136578532
           Qmin:  -11726.626011884029
Quadratic minimum step length (  0.332543444435) accepted
    Initial Ne1:    7233.99955990
      Final Ne1:    7234.00000000

=================== Penalty functional idempotency correction ==================
 RMS occupancy error at iteration   1:  0.000360 (step -0.4986 Ne1=   7234.0000)
 RMS occupancy error at iteration   2:  0.000000 (step -0.5000 Ne1=   7234.0000)
            Final RMS occupancy error   :  0.000000 (Ne1=   7234.0000)
               Final occupancy bounds   : [  0.0000,  1.0000]
================================================================================

    1        -1.172497102297E+04     4.8211E-04     4.3612E-04
MG BCs: +ve charge blocks (gridpoints):     23983 (   16324748).
MG BCs: -ve charge blocks (gridpoints):      8266 (    1054514).
MG BCs:     Elided blocks (gridpoints):    173137 (  173397443).
MG BCs: Computational effort saved:  99.9831%.
MG BCs: Charge after coarse-graining:           -9.0006815.
MG DL_MG: Calling solver with defect correction order = 8
MG DL_MG: Solver finished
MG Hartree energy from (\int phi*rho dr):              1253.487077
MG Hartree energy from (\int eps (grad phi)^2 dr):     1252.817435
MG Discrepancy due to finite box and discretization:     -0.669642 (  -0.05342%)
MG Correction to account for finite box:                  0.474202
MG Remaining discrepancy, due to discretization:         -0.195440 (  -0.01559%)
      ideal mu1:      -0.720629553360
             Q0:  -11726.600072717411
             G0:      -1.026667692635
   RMS gradient:       0.000155478935
MG BCs: +ve charge blocks (gridpoints):     23990 (   16325150).
MG BCs: -ve charge blocks (gridpoints):      8264 (    1054930).
MG BCs:     Elided blocks (gridpoints):    173130 (  173396625).
MG BCs: Computational effort saved:  99.9831%.
MG BCs: Charge after coarse-graining:           -9.0006813.
MG DL_MG: Calling solver with defect correction order = 8
MG DL_MG: Solver finished
MG Hartree energy from (\int phi*rho dr):              1255.061367
MG Hartree energy from (\int eps (grad phi)^2 dr):     1254.391623
MG Discrepancy due to finite box and discretization:     -0.669744 (  -0.05336%)
MG Correction to account for finite box:                  0.473967
MG Remaining discrepancy, due to discretization:         -0.195777 (  -0.01560%)
     Trial step:       0.486358674347
             Q1:  -11726.817179540871
 Quadratic coef:       0.282221914524
 Linear coef   :      -0.499328737984
           Qmin:  -11726.820935428406
Quadratic minimum step length (  0.430251604449) accepted
    Initial Ne1:    7233.99994077
      Final Ne1:    7234.00000000

=================== Penalty functional idempotency correction ==================
 RMS occupancy error at iteration   1:  0.000159 (step -0.4989 Ne1=   7234.0000)
 RMS occupancy error at iteration   2:  0.000000 (step -0.5000 Ne1=   7234.0000)
            Final RMS occupancy error   :  0.000000 (Ne1=   7234.0000)
               Final occupancy bounds   : [  0.0000,  1.0000]
================================================================================

    2        -1.172660007272E+04     1.5548E-04     1.4065E-04    -1.6290E+00
MG BCs: +ve charge blocks (gridpoints):     23989 (   16325093).
MG BCs: -ve charge blocks (gridpoints):      8264 (    1054889).
MG BCs:     Elided blocks (gridpoints):    173131 (  173396723).
MG BCs: Computational effort saved:  99.9831%.
MG BCs: Charge after coarse-graining:           -9.0006813.
MG DL_MG: Calling solver with defect correction order = 8
MG DL_MG: Solver finished
MG Hartree energy from (\int phi*rho dr):              1254.879362
MG Hartree energy from (\int eps (grad phi)^2 dr):     1254.209630
MG Discrepancy due to finite box and discretization:     -0.669732 (  -0.05337%)
MG Correction to account for finite box:                  0.473995
MG Remaining discrepancy, due to discretization:         -0.195737 (  -0.01560%)
      ideal mu1:      -0.721819872321
             Q0:  -11726.821424786351
             G0:      -0.190823752846
   RMS gradient:       0.000066683153
MG BCs: +ve charge blocks (gridpoints):     23986 (   16324258).
MG BCs: -ve charge blocks (gridpoints):      8265 (    1055307).
MG BCs:     Elided blocks (gridpoints):    173134 (  173397140).
MG BCs: Computational effort saved:  99.9831%.
MG BCs: Charge after coarse-graining:           -9.0006814.
MG DL_MG: Calling solver with defect correction order = 8
MG DL_MG: Solver finished
MG Hartree energy from (\int phi*rho dr):              1254.287315
MG Hartree energy from (\int eps (grad phi)^2 dr):     1253.617888
MG Discrepancy due to finite box and discretization:     -0.669427 (  -0.05337%)
MG Correction to account for finite box:                  0.473718
MG Remaining discrepancy, due to discretization:         -0.195709 (  -0.01560%)
     Trial step:       0.457445734460
             Q1:  -11726.883338383283
 Quadratic coef:       0.025377914841
 Linear coef   :      -0.087291511773
           Qmin:  -11726.896488164050
Quadratic minimum step length (  0.786729917840) accepted
    Initial Ne1:    7233.99998004
      Final Ne1:    7234.00000000

=================== Penalty functional idempotency correction ==================
 RMS occupancy error at iteration   1:  0.000256 (step -0.4855 Ne1=   7234.0000)
 RMS occupancy error at iteration   2:  0.000003 (step -0.5000 Ne1=   7234.0000)
            Final RMS occupancy error   :  0.000000 (Ne1=   7234.0000)
               Final occupancy bounds   : [  0.0000,  1.0000]
================================================================================

    3        -1.172682142479E+04     6.6683E-05     6.0323E-05    -2.2135E-01
MG BCs: +ve charge blocks (gridpoints):     23986 (   16323680).
MG BCs: -ve charge blocks (gridpoints):      8266 (    1055590).
MG BCs:     Elided blocks (gridpoints):    173134 (  173397435).
MG BCs: Computational effort saved:  99.9831%.
MG BCs: Charge after coarse-graining:           -9.0006815.
MG DL_MG: Calling solver with defect correction order = 8
MG DL_MG: Solver finished
MG Hartree energy from (\int phi*rho dr):              1253.861129
MG Hartree energy from (\int eps (grad phi)^2 dr):     1253.191925
MG Discrepancy due to finite box and discretization:     -0.669205 (  -0.05337%)
MG Correction to account for finite box:                  0.473515
MG Remaining discrepancy, due to discretization:         -0.195690 (  -0.01561%)
      ideal mu1:      -0.720891654240
             Q0:  -11726.896424189792
             G0:      -0.092461202643
   RMS gradient:       0.000046460617
MG BCs: +ve charge blocks (gridpoints):     23987 (   16323792).
MG BCs: -ve charge blocks (gridpoints):      8268 (    1055623).
MG BCs:     Elided blocks (gridpoints):    173133 (  173397290).
MG BCs: Computational effort saved:  99.9831%.
MG BCs: Charge after coarse-graining:           -9.0006814.
MG DL_MG: Calling solver with defect correction order = 8
MG DL_MG: Solver finished
MG Hartree energy from (\int phi*rho dr):              1253.952272
MG Hartree energy from (\int eps (grad phi)^2 dr):     1253.283617
MG Discrepancy due to finite box and discretization:     -0.668655 (  -0.05332%)
MG Correction to account for finite box:                  0.473119
MG Remaining discrepancy, due to discretization:         -0.195537 (  -0.01559%)
     Trial step:       0.599905196750
             Q1:  -11726.932223086362
 Quadratic coef:       0.019669059393
 Linear coef   :      -0.055467955963
           Qmin:  -11726.935529950741
Quadratic minimum step length (  0.845884756631) accepted
    Initial Ne1:    7233.99998785
      Final Ne1:    7234.00000000

=================== Penalty functional idempotency correction ==================
 RMS occupancy error at iteration   1:  0.000594 (step -0.4624 Ne1=   7234.0000)
 RMS occupancy error at iteration   2:  0.000011 (step -0.4996 Ne1=   7234.0000)
            Final RMS occupancy error   :  0.000000 (Ne1=   7234.0000)
               Final occupancy bounds   : [ -0.0000,  1.0000]
================================================================================

    4        -1.172689642419E+04     4.6461E-05     4.2029E-05    -7.4999E-02
MG BCs: +ve charge blocks (gridpoints):     23987 (   16323837).
MG BCs: -ve charge blocks (gridpoints):      8268 (    1055612).
MG BCs:     Elided blocks (gridpoints):    173133 (  173397256).
MG BCs: Computational effort saved:  99.9831%.
MG BCs: Charge after coarse-graining:           -9.0006814.
MG DL_MG: Calling solver with defect correction order = 8
MG DL_MG: Solver finished
MG Hartree energy from (\int phi*rho dr):              1253.992331
MG Hartree energy from (\int eps (grad phi)^2 dr):     1253.323898
MG Discrepancy due to finite box and discretization:     -0.668433 (  -0.05330%)
MG Correction to account for finite box:                  0.472959
MG Remaining discrepancy, due to discretization:         -0.195474 (  -0.01559%)
      ideal mu1:      -0.721600504182
             Q0:  -11726.935160654248
             G0:      -0.108212068023
   RMS gradient:       0.000050377942
MG BCs: +ve charge blocks (gridpoints):     23987 (   16325414).
MG BCs: -ve charge blocks (gridpoints):      8268 (    1055087).
MG BCs:     Elided blocks (gridpoints):    173133 (  173396204).
MG BCs: Computational effort saved:  99.9831%.
MG BCs: Charge after coarse-graining:           -9.0006810.
MG DL_MG: Calling solver with defect correction order = 8
MG DL_MG: Solver finished
MG Hartree energy from (\int phi*rho dr):              1255.060878
MG Hartree energy from (\int eps (grad phi)^2 dr):     1254.393365
MG Discrepancy due to finite box and discretization:     -0.667512 (  -0.05319%)
MG Correction to account for finite box:                  0.472159
MG Remaining discrepancy, due to discretization:         -0.195353 (  -0.01557%)
     Trial step:       0.712355712657
             Q1:  -11726.976811993751
 Quadratic coef:       0.035434145331
 Linear coef   :      -0.077085484835
           Qmin:  -11726.977084707421
Quadratic minimum step length (  0.774849865458) accepted
    Initial Ne1:    7234.00009228
      Final Ne1:    7234.00000000

=================== Penalty functional idempotency correction ==================
 RMS occupancy error at iteration   1:  0.001870 (step -0.3997 Ne1=   7234.0000)
 RMS occupancy error at iteration   2:  0.000082 (step -0.4960 Ne1=   7234.0000)
 RMS occupancy error at iteration   3:  0.000001 (step -0.5000 Ne1=   7234.0000)
            Final RMS occupancy error   :  0.000000 (Ne1=   7234.0000)
               Final occupancy bounds   : [  0.0000,  1.0000]
================================================================================

    5        -1.172693516065E+04     5.0378E-05     4.5573E-05    -3.8736E-02
MG BCs: +ve charge blocks (gridpoints):     23988 (   16325575).
MG BCs: -ve charge blocks (gridpoints):      8267 (    1055036).
MG BCs:     Elided blocks (gridpoints):    173132 (  173396094).
MG BCs: Computational effort saved:  99.9831%.
MG BCs: Charge after coarse-graining:           -9.0006810.
MG DL_MG: Calling solver with defect correction order = 8
MG DL_MG: Solver finished
MG Hartree energy from (\int phi*rho dr):              1255.155453
MG Hartree energy from (\int eps (grad phi)^2 dr):     1254.488007
MG Discrepancy due to finite box and discretization:     -0.667446 (  -0.05318%)
MG Correction to account for finite box:                  0.472103
MG Remaining discrepancy, due to discretization:         -0.195343 (  -0.01556%)
      ideal mu1:      -0.723422030532
             Q0:  -11726.977685470483
             G0:      -0.087695908376
   RMS gradient:       0.000043935386
MG BCs: +ve charge blocks (gridpoints):     23987 (   16325344).
MG BCs: -ve charge blocks (gridpoints):      8266 (    1055166).
MG BCs:     Elided blocks (gridpoints):    173133 (  173396195).
MG BCs: Computational effort saved:  99.9831%.
MG BCs: Charge after coarse-graining:           -9.0006811.
MG DL_MG: Calling solver with defect correction order = 8
MG DL_MG: Solver finished
MG Hartree energy from (\int phi*rho dr):              1254.778882
MG Hartree energy from (\int eps (grad phi)^2 dr):     1254.111917
MG Discrepancy due to finite box and discretization:     -0.666964 (  -0.05315%)
MG Correction to account for finite box:                  0.471562
MG Remaining discrepancy, due to discretization:         -0.195402 (  -0.01557%)
     Trial step:       0.742945979268
             Q1:  -11727.013354283874
 Quadratic coef:       0.029484509136
 Linear coef   :      -0.065153322527
           Qmin:  -11727.013678569578
Quadratic minimum step length (  0.820861537565) accepted
    Initial Ne1:    7234.00007430
      Final Ne1:    7234.00000000

=================== Penalty functional idempotency correction ==================
 RMS occupancy error at iteration   1:  0.002848 (step -0.3657 Ne1=   7234.0000)
 RMS occupancy error at iteration   2:  0.000149 (step -0.4933 Ne1=   7234.0000)
 RMS occupancy error at iteration   3:  0.000002 (step -0.5000 Ne1=   7234.0000)
            Final RMS occupancy error   :  0.000000 (Ne1=   7234.0000)
               Final occupancy bounds   : [  0.0000,  1.0000]
================================================================================

    6        -1.172697768547E+04     4.3935E-05     3.9745E-05    -4.2525E-02
MG BCs: +ve charge blocks (gridpoints):     23987 (   16325321).
MG BCs: -ve charge blocks (gridpoints):      8266 (    1055175).
MG BCs:     Elided blocks (gridpoints):    173133 (  173396209).
MG BCs: Computational effort saved:  99.9831%.
MG BCs: Charge after coarse-graining:           -9.0006811.
MG DL_MG: Calling solver with defect correction order = 8
MG DL_MG: Solver finished
MG Hartree energy from (\int phi*rho dr):              1254.738515
MG Hartree energy from (\int eps (grad phi)^2 dr):     1254.071622
MG Discrepancy due to finite box and discretization:     -0.666894 (  -0.05315%)
MG Correction to account for finite box:                  0.471484
MG Remaining discrepancy, due to discretization:         -0.195409 (  -0.01557%)
      ideal mu1:      -0.723575484376
             Q0:  -11727.015931777889
             G0:      -0.057192772575
   RMS gradient:       0.000036544943
MG BCs: +ve charge blocks (gridpoints):     23990 (   16323989).
MG BCs: -ve charge blocks (gridpoints):      8266 (    1055507).
MG BCs:     Elided blocks (gridpoints):    173130 (  173397209).
MG BCs: Computational effort saved:  99.9831%.
MG BCs: Charge after coarse-graining:           -9.0006814.
MG DL_MG: Calling solver with defect correction order = 8
MG DL_MG: Solver finished
MG Hartree energy from (\int phi*rho dr):              1253.970367
MG Hartree energy from (\int eps (grad phi)^2 dr):     1253.303441
MG Discrepancy due to finite box and discretization:     -0.666926 (  -0.05319%)
MG Correction to account for finite box:                  0.471479
MG Remaining discrepancy, due to discretization:         -0.195448 (  -0.01559%)
     Trial step:       0.780932634015
             Q1:  -11727.029878000496
 Quadratic coef:       0.030717479927
 Linear coef   :      -0.044663702534
           Qmin:  -11727.032167210684
Quadratic minimum step length (  0.567744211878) accepted
    Initial Ne1:    7233.99999948
      Final Ne1:    7234.00000000

=================== Penalty functional idempotency correction ==================
 RMS occupancy error at iteration   1:  0.000021 (step -0.4988 Ne1=   7234.0000)
            Final RMS occupancy error   :  0.000000 (Ne1=   7234.0000)
               Final occupancy bounds   : [ -0.0000,  1.0000]
================================================================================

    7        -1.172701593178E+04     3.6545E-05     3.3059E-05    -3.8246E-02
MG BCs: +ve charge blocks (gridpoints):     23988 (   16324359).
MG BCs: -ve charge blocks (gridpoints):      8266 (    1055434).
MG BCs:     Elided blocks (gridpoints):    173132 (  173396912).
MG BCs: Computational effort saved:  99.9831%.
MG BCs: Charge after coarse-graining:           -9.0006813.
MG DL_MG: Calling solver with defect correction order = 8
MG DL_MG: Solver finished
MG Hartree energy from (\int phi*rho dr):              1254.178391
MG Hartree energy from (\int eps (grad phi)^2 dr):     1253.511473
MG Discrepancy due to finite box and discretization:     -0.666918 (  -0.05318%)
MG Correction to account for finite box:                  0.471481
MG Remaining discrepancy, due to discretization:         -0.195437 (  -0.01558%)
      ideal mu1:      -0.722949218395
             Q0:  -11727.032169150538
             G0:      -0.038146029232
[...]
MG Hartree energy from (\int phi*rho dr):              1209.841585
MG Hartree energy from (\int eps (grad phi)^2 dr):     1209.640643
MG Discrepancy due to finite box and discretization:     -0.200942 (  -0.01661%)
MG Correction to account for finite box:                  0.006409
MG Remaining discrepancy, due to discretization:         -0.194533 (  -0.01608%)
             Q2:  -11761.478698314051
  Cubic LS coeff:       1.043808426559
Predicted energy:  -11761.478698314051
Cubic minimum step length accepted
    Initial Ne1:    7234.00000000
      Final Ne1:    7234.00000000

=================== Penalty functional idempotency correction ==================
 RMS occupancy error at iteration   1:  0.000000 (step -0.5000 Ne1=   7234.0000)
            Final RMS occupancy error   :  0.000000 (Ne1=   7234.0000)
               Final occupancy bounds   : [ -0.0000,  1.0000]
================================================================================

    7        -1.176147869831E+04     1.0400E-08     9.4084E-09    -3.1432E-09

Reusing previously generated solute cavity.
MG BCs: +ve charge blocks (gridpoints):     28379 (   18446481).
MG BCs: -ve charge blocks (gridpoints):      8241 (    1025091).
MG BCs:     Elided blocks (gridpoints):    168741 (  171305133).
MG BCs: Computational effort saved:  99.9808%.
MG BCs: Charge after coarse-graining:           -9.0009543.
MG DL_MG: Calling solver with defect correction order = 8
MG DL_MG: Solver finished
MG Hartree energy from (\int phi*rho dr):              1209.841585
MG Hartree energy from (\int eps (grad phi)^2 dr):     1209.640643
MG Discrepancy due to finite box and discretization:     -0.200942 (  -0.01661%)
MG Correction to account for finite box:                  0.006409
MG Remaining discrepancy, due to discretization:         -0.194533 (  -0.01608%)
      ideal mu1:      -0.485407860420
             Q0:  -11761.478698314051
             G0:      -0.000000006403
   RMS gradient:       0.000000013063

Reusing previously generated solute cavity.
MG BCs: +ve charge blocks (gridpoints):     28379 (   18446481).
MG BCs: -ve charge blocks (gridpoints):      8241 (    1025091).
MG BCs:     Elided blocks (gridpoints):    168741 (  171305133).
MG BCs: Computational effort saved:  99.9808%.
MG BCs: Charge after coarse-graining:           -9.0009543.
MG DL_MG: Calling solver with defect correction order = 8
MG DL_MG: Solver finished
MG Hartree energy from (\int phi*rho dr):              1209.841557
MG Hartree energy from (\int eps (grad phi)^2 dr):     1209.640615
MG Discrepancy due to finite box and discretization:     -0.200942 (  -0.01661%)
MG Correction to account for finite box:                  0.006409
MG Remaining discrepancy, due to discretization:         -0.194533 (  -0.01608%)
     Trial step:       0.742522946725
             Q1:  -11761.478698316962
 Quadratic coef:       0.000000001844
 Linear coef   :      -0.000000004755
           Qmin:  -11761.478698317116
Quadratic minimum step length (  0.957044373202) accepted
    Initial Ne1:    7234.00000000
      Final Ne1:    7234.00000000

=================== Penalty functional idempotency correction ==================
 RMS occupancy error at iteration   1:  0.000000 (step -0.5000 Ne1=   7234.0000)
            Final RMS occupancy error   :  0.000000 (Ne1=   7234.0000)
               Final occupancy bounds   : [  0.0000,  1.0000]
================================================================================

    8        -1.176147869831E+04     1.3063E-08     1.1817E-08    -4.7730E-09

Reusing previously generated solute cavity.
MG BCs: +ve charge blocks (gridpoints):     28379 (   18446481).
MG BCs: -ve charge blocks (gridpoints):      8241 (    1025091).
MG BCs:     Elided blocks (gridpoints):    168741 (  171305133).
MG BCs: Computational effort saved:  99.9808%.
MG BCs: Charge after coarse-graining:           -9.0009543.
MG DL_MG: Calling solver with defect correction order = 8
MG DL_MG: Solver finished
MG Hartree energy from (\int phi*rho dr):              1209.841549
MG Hartree energy from (\int eps (grad phi)^2 dr):     1209.640607
MG Discrepancy due to finite box and discretization:     -0.200942 (  -0.01661%)
MG Correction to account for finite box:                  0.006409
MG Remaining discrepancy, due to discretization:         -0.194533 (  -0.01608%)
      ideal mu1:      -0.485407813305
             Q0:  -11761.478698317194
             G0:      -0.000000004149
   RMS gradient:       0.000000009539

Reusing previously generated solute cavity.
MG BCs: +ve charge blocks (gridpoints):     28379 (   18446481).
MG BCs: -ve charge blocks (gridpoints):      8241 (    1025091).
MG BCs:     Elided blocks (gridpoints):    168741 (  171305133).
MG BCs: Computational effort saved:  99.9808%.
MG BCs: Charge after coarse-graining:           -9.0009543.
MG DL_MG: Calling solver with defect correction order = 8
MG DL_MG: Solver finished
MG Hartree energy from (\int phi*rho dr):              1209.841522
MG Hartree energy from (\int eps (grad phi)^2 dr):     1209.640580
MG Discrepancy due to finite box and discretization:     -0.200942 (  -0.01661%)
MG Correction to account for finite box:                  0.006409
MG Remaining discrepancy, due to discretization:         -0.194533 (  -0.01608%)
     Trial step:       0.842987193341
             Q1:  -11761.478698317776
 Quadratic coef:       0.000000002916
 Linear coef   :      -0.000000003498
           Qmin:  -11761.478698318244
Quadratic minimum step length (  0.505585875543) accepted
    Initial Ne1:    7234.00000000
      Final Ne1:    7234.00000000

=================== Penalty functional idempotency correction ==================
 RMS occupancy error at iteration   1:  0.000000 (step -0.5000 Ne1=   7234.0000)
            Final RMS occupancy error   :  0.000000 (Ne1=   7234.0000)
               Final occupancy bounds   : [  0.0000,  1.0000]
================================================================================

    9        -1.176147869832E+04     9.5387E-09     8.6289E-09    -3.1432E-09

Reusing previously generated solute cavity.
MG BCs: +ve charge blocks (gridpoints):     28379 (   18446481).
MG BCs: -ve charge blocks (gridpoints):      8241 (    1025091).
MG BCs:     Elided blocks (gridpoints):    168741 (  171305133).
MG BCs: Computational effort saved:  99.9808%.
MG BCs: Charge after coarse-graining:           -9.0009543.
MG DL_MG: Calling solver with defect correction order = 8
MG DL_MG: Solver finished
MG Hartree energy from (\int phi*rho dr):              1209.841532
MG Hartree energy from (\int eps (grad phi)^2 dr):     1209.640591
MG Discrepancy due to finite box and discretization:     -0.200942 (  -0.01661%)
MG Correction to account for finite box:                  0.006409
MG Remaining discrepancy, due to discretization:         -0.194533 (  -0.01608%)
      ideal mu1:      -0.485407805864
   10        -1.176147869832E+04     5.5408E-09     5.0123E-09    -8.1491E-10
Finished density kernel iterations (  10)

Writing density kernel to file "complex_23281.dkn" ... done


>>> Density kernel optimised for the current NGWF basis:
     ~~~~~~~~~~~~~~~~~~~~~~~~~~~~~~~~~~~~~~~~~~~~~~~~~~~~~~~~~~~
     Total energy                =  -1.17614786983180E+04  Eh
     Estimated bandgap           =   8.2919E-02  Eh
     RMS occupancy error         =   3.4789E-16
     [H,K] commutator            =   5.0123E-09
     Occupancy bounds            = [  0.000:  1.000]
     ~~~~~~~~~~~~~~~~~~~~~~~~~~~~~~~~~~~~~~~~~~~~~~~~~~~~~~~~~~~




################################################################################
########################### NGWF CG iteration  004 #############################
################################################################################
****** Reciprocal space K.E. preconditioning with k_zero =  3.5000 a0^-1 *******

>>> Checking for convergence of NGWFs: 
           ........................................................
           |         *** NGWF optimisation converged ***          |
           | RMS NGWF gradient =    0.00000183088190              |
           | Criteria satisfied:                                  |
           | -> RMS NGWF gradient lower than set threshold.       |
           ========================================================

Reusing previously generated solute cavity.
MG BCs: +ve charge blocks (gridpoints):     28379 (   18446481).
MG BCs: -ve charge blocks (gridpoints):      8241 (    1025091).
MG BCs:     Elided blocks (gridpoints):    168741 (  171305133).
MG BCs: Computational effort saved:  99.9808%.
MG BCs: Charge after coarse-graining:           -9.0009543.
MG DL_MG: Calling solver with defect correction order = 8
MG DL_MG: Solver finished
MG Hartree energy from (\int phi*rho dr):              1209.841532
MG Hartree energy from (\int eps (grad phi)^2 dr):     1209.640591
MG Discrepancy due to finite box and discretization:     -0.200942 (  -0.01661%)
MG Correction to account for finite box:                  0.006409
MG Remaining discrepancy, due to discretization:         -0.194533 (  -0.01608%)

================================================================================
           ---------------- ENERGY COMPONENTS (Eh) ----------------
           | Kinetic                    :     8606.72091741357690 |
           | Pseudo. (local,OBC,corr'd) :    -5098.29589678564753 |
           | Pseudopotential (non-local):     1412.38608637800371 |
           | Hartree (molecular)        :     1209.84153247632617 |
           | Exchange-correlation       :    -3402.34429546020465 |
           | Ion-ion (open BC)          :   839406.16762237763032 |
           | Smeared ion non-self corr. :  -839357.62845820176881 |
           | Smeared ion self corr.     :   -14538.95273137971526 |
           | Solvent cavitation energy  :        2.22903091254784 |
           | Solute-solvent dis-rep en. :       -1.60250604880345 |
           | Total                      :   -11761.47869831791286 |
           --------------------------------------------------------
           ------ LOCAL ENERGY COMPONENTS FROM MATRIX TRACES ------
           | Pseudopotential (local)    :    -5098.29589678565753 |
           | Hartree                    :    -2014.81359248853687 |
           --------------------------------------------------------
           Integrated density           :     7233.99999999899137
           Integrated density tr(KS)    :     7234.00000000000000
================================================================================


                        <<<<< CALCULATION SUMMARY >>>>>                         
|ITER|    RMS GRADIENT   |     TOTAL ENERGY    |   step   |     Epredicted              
   0     0.00004082594701 -11761.41554659581743   0.611295 -11761.47009560445258        
   1     0.00000945928657 -11761.47826809226535   0.074353 -11761.47862428201188        
   2     0.00000413196595 -11761.47868431557436   0.013419 -11761.47869658158561        
   3     0.00000183088190 -11761.47869831800926  <-- CG                                 

=================== Finished the calculation in solvent ========================
= Adjusting the following parameters: 
= read_denskern: F
= read_tightbox_ngwfs: F
= maxit_pen: 0 (restored to user-specified value)
= restart read filename prefix: ""
= restart write filename prefix: ""
================================================================================

================================================================================
IS: Calculation in solvent completed (NGWFs converged).      

Individual components of total energy in solvent:     hartree           kcal/mol
- Usual non-electrostatic DFT terms:    -12971.94675565808029    -8140019.309619
- Electrostatic fixed charge energy:      1209.84153247632617      759187.007273
- Apolar cavitation energy:                  2.22903091254784        1398.737985
- Apolar dispersion-repulsion energy:       -1.60250604880345       -1005.587706
 -------------------------------------------------------------------------------
- Total energy in solvent:              -11761.47869831800926    -7380439.152067

Components of total energy in solvent:                hartree           kcal/mol
- Usual non-electrostatic DFT terms:    -12971.94675565808029    -8140019.309619
- Electrostatic energy:                   1209.84153247632617      759187.007273
- Apolar energy terms:                       0.62652486374438         393.150279
 -------------------------------------------------------------------------------
- Total energy in solvent:              -11761.47869831800926    -7380439.152067

Calculation of free energy of solvation:              hartree           kcal/mol
- Total energy in solvent:         (+)  -11761.47869831800926    -7380439.152067
- Total energy in vacuum:          (-)  -11757.67153804539703    -7378050.122978
 -------------------------------------------------------------------------------
- Total free energy of solvation:           -3.80716027261224       -2389.029089

Components of polar term in f.e. of solvation:        hartree           kcal/mol
- Electrostatic:                            -4.43534788394550       -2783.222758
- Change in nonelectrostatic DFT terms:      0.00166274758885           1.043390
 -------------------------------------------------------------------------------
- Polar term in f.e. of solvation:          -4.43368513635664       -2782.179368

Components of free energy of solvation:               hartree           kcal/mol
- Polar term in f.e. of solvation: (+)      -4.43368513635664       -2782.179368
- Apolar (cavitation, dis., rep.): (+)       0.62652486374438         393.150279
 -------------------------------------------------------------------------------
- Total free energy of solvation:           -3.80716027261226       -2389.029089
================================================================================


------------------------------ TIMING INFORMATION ------------------------------
AVERAGE TIME:   33703.477s on     60 node(s)                                    
TOTAL TIME:     33703.480s on     60 node(s)                                    
================= AVERAGE TIMINGS FROM ALL NODES (CUMULATIVE) ==================
|| TAG                                    #calls    cpu time   %total  Gflops ||
|| work_imbalance                       :     1        0.00s   0.000%  ------ ||
|| sparse_set_to_garbage                :   164        0.03s   0.000%  ------ ||
|| parallel_prepare_fd_halos_request    :  1827        0.03s   0.000%  ------ ||
|| ngwfs_initialise_from_radial         :     1        0.10s   0.000%  ------ ||
|| parallel_prepare_fd_halos_alloc      :  1827        0.14s   0.000%  ------ ||
|| basis_extract_function_from_box      :  3381        0.15s   0.000%  ------ ||
|| parallel_prepare_fd_halos_satisfy    :  1827        0.61s   0.002%  ------ ||
|| pseudopotentials_nonlocal_mat        :    28        2.34s   0.007%  ------ ||
|| openbc_locps_radial                  :     1        3.14s   0.009%  ------ ||
|| density_init_guess_real              :     1        3.69s   0.011%  ------ ||
|| restart_kernel_read                  :     1        4.28s   0.013%  ------ ||
|| restart_ngwfs_tightbox_input         :     1        7.95s   0.024%  ------ ||
|| parallel_prepare_fd_halos_comms_imbal:  1827        9.53s   0.028%  ------ ||
|| parallel_prepare_fd_halos_clear      :  1827       17.58s   0.052%  ------ ||
|| parallel_prepare_fd_halos_comms_wait :  1827       21.27s   0.063%  ------ ||
|| sparse_init                          :     2       22.92s   0.068%  ------ ||
|| projectors_func_ovlp_box             :    28       25.02s   0.074%  ------ ||
|| function_ops_brappd_ketppd           :    28       29.43s   0.087%  ------ ||
|| projectors_init_fftbox_recip         :   133       30.64s   0.091%  ------ ||
|| basis_copy_function_to_box           : 54860       39.72s   0.118%  ------ ||
|| ngwf_gradient_coeffs                 :    15       44.95s   0.133%  ------ ||
|| palser_mano_kernel_optimise          :     1       45.71s   0.136%  ------ ||
|| parallel_prepare_fd_halos            :  1827       49.18s   0.146%  ------ ||
|| fourier_apply_box_pair               :  4812       49.99s   0.148% 557.295 ||
|| pseudo_make_structure_factor         :     2       52.35s   0.155%  ------ ||
|| sparse_embed_hotelling_invert_embed  :    28       71.69s   0.213%  ------ ||
|| finite_difference_derivative         :  1827      126.82s   0.376%  ------ ||
|| restart_kernel_write                 :    16      133.60s   0.396%  ------ ||
|| integrals_kinetic                    :    28      150.67s   0.447%  ------ ||
|| projectors_gradient_batch            :   105      161.34s   0.479%  ------ ||
|| sparse_trace                         :  5318      185.27s   0.550%  ------ ||
|| basis_dot_function_with_box          : 8.521M     188.30s   0.559%  ------ ||
|| openbc_locps_on_grid                 :     2      261.16s   0.775%  ------ ||
|| kernel_purify                        :   464      276.52s   0.820%  ------ ||
|| lnv_gradient_norm                    :   150      381.26s   1.131%  ------ ||
|| basis_add_function_to_box            : 17.72M     402.28s   1.194%  ------ ||
|| kernel_fix                           :   150      532.55s   1.580%  ------ ||
|| hamiltonian_energy_components        :     4      564.70s   1.675%  ------ ||
|| ngwf_gradient_build_batch            :   105      705.24s   2.092%  ------ ||
|| integrals_locpot_mat_els_batch       :  1113      740.07s   2.196%  ------ ||
|| ngwf_gradient_batch                  :   105      972.47s   2.885%  ------ ||
|| ngwf_gradient_lnv                    :    15     1086.84s   3.225%  ------ ||
|| density_batch_row_sums               :  2121     1107.55s   3.286%  ------ ||
|| restart_ngwfs_tightbox_output        :    13     1194.72s   3.545%  ------ ||
|| cell_grid_deposit_box_real           : 35200     1293.89s   3.839%  ------ ||
|| fourier_apply_cell_forward           :  8513     1427.45s   4.235%  81.179 ||
|| fourier_apply_cell_backward          :  9123     1541.61s   4.574%  80.553 ||
|| cell_grid_extract_box_real           : 38596     1628.52s   4.832%  ------ ||
|| sparse_product                       :  6468     1740.01s   5.163%  ------ ||
|| density_fftbox_deposit_to_cell       : 33330     1978.27s   5.870%  ------ ||
|| density_fftbox_interpolate_multiply  : 33330     3422.80s  10.156%  ------ ||
|| potential_apply_to_ngwf_batch        :  1113     3520.59s  10.446%  ------ ||
|| xc_energy_potential                  :   304     3861.90s  11.458%  ------ ||
|| fourier_apply_box                    : 114.7k    4238.36s  12.575% 759.854 ||
|| integrals_locpot_dbl_grid            :   159     4276.70s  12.689%  ------ ||
|| multigrid_prepare_bound_cond         :   304     4284.88s  12.713%  ------ ||
|| nlxc_vdw_energy                      :   608     6261.21s  18.577%  ------ ||
|| density_batch_interp_deposit         :  2121     6281.47s  18.637%  ------ ||
|| density_on_dbl_grid                  :   303     7670.35s  22.758%  ------ ||
|| dl_mg_solver_calls                   :   304     7685.10s  22.802%  ------ ||
|| multigrid_calculate_hartree          :   304    12140.45s  36.021%  ------ ||
|| hamiltonian_lhxc_calculate           :   299    23502.07s  69.732%  ------ ||
|| lnv_denskernel_optimise_cg           :    15    28494.27s  84.544%  ------ ||
|| ngwf_cg_optimise                     :     2    32762.97s  97.209%  ------ ||
|| total_time                           :     1    33703.48s 100.000%  ------ ||
================================================================================
Overhead of generating timer report: 
- 0 ms averaging over threads,
- 17 ms ensuring consistency across MPI ranks,
- 1 ms printing in order.

Job completed: 20-02-2020 21:26 (-0000)

Application 39112381 resources: utime ~6703031s, stime ~227024s, Rss ~3664984, inblocks ~280536661, outblocks ~62053321
