 +---------------------------------------------------------------+
 |                                                               |
 |        ####### #     # ####### ####### ####### ######         |
 |        #     # ##    # #          #    #       #     #        |
 |        #     # # #   # #          #    #       #     #        |
 |        #     # #  #  # #####      #    #####   ######         |
 |        #     # #   # # #          #    #       #              |
 |        #     # #    ## #          #    #       #              |
 |        ####### #     # #######    #    ####### #              |
 |                                                               |
 |        Linear-Scaling Ab Initio Total Energy Program          |
 |                                                               |
 |          Release for academic collaborators of ODG            |
 |                                             Version 5.3.2.6.  |
 |                                                               |
 +---------------------------------------------------------------+
 |                                                               |
 |  Authors:                                                     |
 |  Jacek Dziedzic, Peter D. Haynes, Nicholas D. M. Hine,        |
 |  Arash. A. Mostofi, Mike C. Payne and Chris-Kriton Skylaris   |
 |                                                               |
 |  Contributors:                                                |
 |  J. Aarons, L. Andrinopoulos, P. W. Avraam, R. A. Bell,       |
 |  A. Bhandari, G. A. Bramley, R. J. Charlton, S. J. Clark,     |
 |  R. J. Clements, G. C. Constantinescu, F. Corsetti,           |
 |  N. Corsini, O. Dieguez, S. M. M. Dubois, K. K. B. Duff,      |
 |  J. M. Escartin, A. Greco, H. Helal, Q. O. Hill, L. P. Lee,   |
 |  J.-H. Li, E. B. Linscott, G. Moynihan, D. D. O`Regan,        |
 |  O. K. Okan, M. J. S. Phipps, C. J. Pickard,                  |
 |  J. C. A. Prentice, M. I. J. Probert, L. E. Ratcliff,         |
 |  M. Robinson, A. Ruiz Serrano, J. S. Spencer, E. W. Tait,     |
 |  G. Teobaldi, D. Turban, V. Vitale, K. A. Wilkinson,          |
 |  C. Weber, J. C. Womack, N. Yeung and T. J. Zuehlsdorff       |
 |                                                               |
 |                                   Copyright (c) 2004-2019     |
 |                                                               |
 |  Please cite:                                                 |
 |  "Introducing ONETEP: Linear-scaling density functional       |
 |   simulations on parallel computers".                         |
 |   C.-K. Skylaris, P. D. Haynes, A. A. Mostofi, M. C. Payne.   |
 |   J. Chem. Phys. 122 084119 (2005).                           |
 |                                                               |
 |          in all publications arising from your use of ONETEP. |
 |                                                               |
 +---------------------------------------------------------------+
 |                                                               |
 |   ONETEP is based on developments described in the following  |
 |   publications:                                               |
 |                                                               |
 |  "Nonorthogonal generalized Wannier function pseudopotential  |
 |   plane-wave method".                                         |
 |   C.-K. Skylaris, A. A. Mostofi, P. D. Haynes, O. Dieguez,    |
 |   M. C. Payne.                                                |
 |   Phys. Rev. B 66 035119 (2002).                              |
 |                                                               |
 |  "Preconditioned iterative minimization for linear-scaling    |
 |   electronic structure calculations".                         |
 |   A. A. Mostofi, P. D. Haynes, C.-K. Skylaris, M. C. Payne.   |
 |   J. Chem. Phys. 119(17), pp.8842-8848 (2003).                |
 |                                                               |
 |  "Total-energy calculations on a real space grid with         |
 |   localized functions and a plane-wave basis".                |
 |   A. A. Mostofi, C.-K. Skylaris, P. D. Haynes, M. C. Payne.   |
 |   Comput. Phys. Commun. 147, pp.788-802 (2002).               |
 |                                                               |
 |  "Accurate kinetic energy evaluation in electronic structure  |
 |   calculations with localized functions on real space grids"  |
 |   C.-K. Skylaris, A. A. Mostofi, P. D. Haynes, C. J. Pickard, |
 |   M. C. Payne.                                                |
 |   Comput. Phys. Commun. 140, pp.315-322 (2001).               |
 |                                                               |
 |  "Accurate ionic forces and geometry optimization in linear-  |
 |   scaling density-functional theory with local orbitals"      |
 |   N. D. M. Hine, M. Robinson, P. D. Haynes, C.-K. Skylaris,   |
 |   M. C. Payne, and A. A. Mostofi.                             |
 |   Phys. Rev. B 83 195102 (2011).                              |
 |                                                               |
 +---------------------------------------------------------------+

Job started: 02-02-2020 20:16 (-0000)
 
Reading parameters from file "host_6561.dat" ...... done

If your calculation crashes here, before "Checking processes and threads..."
is displayed, then your stack size is insufficient.
If so, use "ulimit -s unlimited" at runtime.
You can disable this check with "check_stack_size F".

Checking processes and threads...
   Determining the default number of threads...
      No default threads set at compilation time: defaulting to 1.
      OpenMP library call suggests 4 threads.
      Hybrid MPI-OpenMP compilation detected.
      Number of MPI processes > 1.
      OMP_NUM_THREADS environment variable present and
      its value matches the one obtained from the OpenMP library call.
      Using this value as default.
      Default threads: 4
      Default applies to threads_max and threads_num_fftboxes.
      Settings in the input file override this default.
   ... done

   Running with 60 MPI processes.
   There are 6 MPI processes running on the same node as the root process.
   Each MPI process is using: 
               1 threads for simulation cell FFTs.
               1 threads for parallel FFT box operations.
               4 threads for loops over batched FFT box operations.
               4 threads in other parallel regions.
... done

Basic input checks...... done

Reading geometry and species blocks from file "host_6561.dat" ...
  <species_atomic_set> block not found: NGWF initialisation set to SOLVE
IS: Dielectric excluded regions:
    - NONE.
    
  Number of PPD points along a3 set to 1.  This is 
  the default value, it may have been provided also in the input file.
... done
 Writing xyz coordinates to file "host_6561.xyz" ... done


--------------------------------------------------------------------------------
---------------------------------- INPUT FILE ----------------------------------
--------------------------------------------------------------------------------

cutoff_energy       : 800 eV                                                    
xc_functional VV10                                                              
task SINGLEPOINT                                                                
write_xyz true                                                                  
output_detail VERBOSE                                                           
ngwf_threshold_orig : 0.000002                                                  
kernel_cutoff       : 1000                                                      
k_zero              : 3.5                                                       
elec_cg_max 0                                                                   
occ_mix 1.0                                                                     
dispersion 0                                                                    
maxit_ngwf_cg 40                                                                
minit_lnv 10                                                                    
maxit_lnv 10                                                                    
write_denskern T                                                                
write_tightbox_ngwfs T                                                          
charge 9                                                                        
is_implicit_solvent T                                                           
is_auto_solvation T                                                             
is_include_apolar T                                                             
is_smeared_ion_rep T                                                            
is_solvent_surf_tension 4.7624E-5 Ha/bohr**2                                    
is_apolar_scaling_factor 0.281075                                               
is_solvation_beta 1.3                                                           
is_density_threshold 0.00035                                                    
is_bulk_permittivity 78.54                                                      
is_dielectric_model fix_initial                                                 
is_smeared_ion_width 0.8                                                        
mg_defco_fd_order 8                                                             
is_bc_coarseness 10                                                             
is_bc_surface_coarseness 1                                                      
fine_grid_scale 2.0                                                             
%block species                                                                  
N   N   7 4 8.0                                                                 
H   H   1 1 8.0                                                                 
C   C   6 4 8.0                                                                 
S   S  16 9 8.0                                                                 
O   O   8 4 8.0                                                                 
%endblock species                                                               
%block species_pot                                                              
N   N_00.recpot                                                                 
H   H_04.recpot                                                                 
C   C_01.recpot                                                                 
S   S_00.recpot                                                                 
O   O_02.recpot                                                                 
%endblock species_pot                                                           
%block lattice_cart                                                             
139.252   0.000   0.000                                                         
0.000 142.425   0.000                                                           
0.000   0.000   162.84                                                          
%endblock lattice_cart                                                          
%block positions_abs                                                            
     Hash =   000005683272696000160031
%endblock positions_abs                                                         

--------------------------------------------------------------------------------
-------------------------------- END INPUT FILE --------------------------------
--------------------------------------------------------------------------------


 
 ESDF WARNING(1): "kernelcutoff" (esdf_physical) has no units. Assume "bohr".
 ESDF WARNING(2): "kzero" (esdf_physical) has no units. Assume "1/bohr".
 ESDF WARNING(3
 ): "issmearedionwidth" (esdf_physical) has no units. Assume "bohr".
<<<<<<<<<<<<<<<<<<<<<<<<<<<<<<<<< Full system >>>>>>>>>>>>>>>>>>>>>>>>>>>>>>>>>>
<<<<<<<<<<<<<<<<<<<<<<<<< Pseudopotential information >>>>>>>>>>>>>>>>>>>>>>>>>>
File: N_00.recpot [ 2001 points up to Gmax=  52.9 (1/bohr)]
  Atomic number:  7;  ionic charge:  5.000000
    Shell 1: l = 0; rc = 1.48 bohr
File: H_04.recpot [ 2001 points up to Gmax=  52.9 (1/bohr)]
  Atomic number:  1;  ionic charge:  1.000000
    Local potential
File: C_01.recpot [ 2001 points up to Gmax=  52.9 (1/bohr)]
  Atomic number:  6;  ionic charge:  4.000000
    Shell 1: l = 0; rc = 1.48 bohr
File: S_00.recpot [ 2001 points up to Gmax=  52.9 (1/bohr)]
  Atomic number: 16;  ionic charge:  6.000000
    Shell 1: l = 0; rc = 1.90 bohr
    Shell 2: l = 2; rc = 1.84 bohr
File: O_02.recpot [ 2001 points up to Gmax=  52.9 (1/bohr)]
  Atomic number:  8;  ionic charge:  6.000000
    Shell 1: l = 0; rc = 1.31 bohr
<<<<<<<<<<<<<<<<<<<<<<<<<<<<<<<<<<<<<<<<>>>>>>>>>>>>>>>>>>>>>>>>>>>>>>>>>>>>>>>>

-------------------------- Atom counting information ---------------------------
Symbol    Natoms    Nngwfs    Nprojs
  N        236       944       236
  H       1311      1311         0
  C        810      3240       810
  S          6        54        36
  O        239       956       239
.......   ......    ......    ......
Totals:   2602      6505      1321
--------------------------------------------------------------------------------

=============================== PSINC grid sizes ===============================
                      Simulation cell:  275 x 280 x 320
                              FFT-box:   99 x  99 x  99
                                  PPD:    5 x   5 x   1
Grid space d1=  0.506370909091a0 (KE cutoff=  29.62556Eh = 806.15239eV)
Grid space d2=  0.508660714286a0 (KE cutoff=  29.35943Eh = 798.91072eV)
Grid space d3=  0.508875000000a0 (KE cutoff=  29.33471Eh = 798.23802eV)
================================================================================

********************* Fourier parallelisation information **********************
       Coarse grid (whole simulation cell) dimensions:    275   280   320
          Real-space ('12') slabs/node (min max mean):      5     6     5
         Recip-space ('23') slabs/node (min max mean):      2     3     2
********************************************************************************

********************* Fourier parallelisation information **********************
       Double grid (whole simulation cell) dimensions:    550   560   640
          Real-space ('12') slabs/node (min max mean):     10    11    10
         Recip-space ('23') slabs/node (min max mean):      4     5     4
********************************************************************************
ONETEP fine grid is 550 x 560 x 640 gridpoints, 139.2520 x 142.4250 x 162.8400 bohr.
FD multigrid is     545 x 553 x 633 gridpoints, 137.9861 x 140.6447 x 161.0589 bohr.


Calculating local pseudopotential in open BC on a radial grid ...
Discrepancy between calculated realspace psloc and -Z/x on [5a0,257.280a0]:
max |rel. diff| # avg |rel. diff| #  avg rel. diff #  f # pseudopotential file
 0.000256370913    0.000003612608   0.000000072509   55  'N_00.recpot'
 0.000395389207    0.000016224277  -0.000000076597   55  'H_04.recpot'
 0.000377360759    0.000017565724   0.000000149252   55  'C_01.recpot'
 0.000469715301    0.000020587835   0.000000455518   55  'S_00.recpot'
 0.000665442002    0.000026079317   0.000000158685   55  'O_02.recpot'
... done

Atom SCF Calculation for N  : Z (AE atom) =   7 : Z (PS atom) =   5
Config String:
Orbitals (num,occ):  2     2.00 3.00
Orbitals   (num,l):  2        0    1
Real-space Grid (nr,dr,rmax): 1203    0.0066555740    8.0000000000
Spherical Bessel Basis (nsws,lmax,cutoff):   47    1  176.3951722778
Confining potential (l,width,scale):  0    3.0000000000  100.0000000000
Confining potential (l,width,scale):  1    3.0000000000  100.0000000000
  1         -4.7366890484   -3.4501654188    7.0523828109   -1.9619316308
  2         -9.7225420322   -2.0763080851    8.3068355706   -2.2908832437
  3         -9.7134243553   -2.1270543915    8.2534567806   -2.2819809971
  4         -9.7235185949   -2.1427582218    8.2369947390   -2.2802814234
  5         -9.7258373845   -2.1477905863    8.2317116314   -2.2798536235
  6         -9.7268932325   -2.1503512400    8.2290229806   -2.2796830099
  7         -9.7273189469   -2.1516634231    8.2276451699   -2.2796169657
  8         -9.7274675212   -2.1523365544    8.2269384796   -2.2795940092
  9         -9.7275041773   -2.1526817003    8.2265762312   -2.2795881371
 10         -9.7275008637   -2.1528585007    8.2263907413   -2.2795884060
 11         -9.7274868305   -2.1529489544    8.2262958841   -2.2795903922
 12         -9.7274755655   -2.1529859230    8.2262571347   -2.2795920452
 13         -9.7274662327   -2.1530083995    8.2262335832   -2.2795934369
 14         -9.7274589439   -2.1530220534    8.2262192809   -2.2795945372
 15         -9.7274534633   -2.1530303399    8.2262106039   -2.2795953734
 16         -9.7274494492   -2.1530353634    8.2262053452   -2.2795959920
 17         -9.7274465654   -2.1530384053    8.2262021621   -2.2795964406
 18         -9.7274445237   -2.1530402447    8.2262002378   -2.2795967611
 19         -9.7274430947   -2.1530413553    8.2261990762   -2.2795969874
 20         -9.7274421038   -2.1530420249    8.2261983762   -2.2795971458
 21         -9.7274414219   -2.1530424277    8.2261979551   -2.2795972557
 22         -9.7274409555   -2.1530426696    8.2261977024   -2.2795973315
 23         -9.7274406382   -2.1530428144    8.2261975510   -2.2795973835
 24         -9.7274404232   -2.1530429010    8.2261974606   -2.2795974190
 25         -9.7274402783   -2.1530429525    8.2261974067   -2.2795974432
 26         -9.7274401808   -2.1530429831    8.2261973748   -2.2795974596
Atom SCF converged after  26 iterations to a total energy of     -9.72744018

Atom SCF Calculation for H  : Z (AE atom) =   1 : Z (PS atom) =   1
Config String:
Orbitals (num,occ):  1     1.00
Orbitals   (num,l):  1        0
Real-space Grid (nr,dr,rmax): 1203    0.0066555740    8.0000000000
Spherical Bessel Basis (nsws,lmax,cutoff):   47    0  176.3951722778
Confining potential (l,width,scale):  0    3.0000000000  100.0000000000
  1         -0.3178661827   -0.2469879004    0.2820953124   -0.2487802071
  2         -0.3961824611   -0.2455070831    0.2902209900   -0.2567664324
  3         -0.4406462424   -0.2424227551    0.2948173255   -0.2622129794
  4         -0.4569739054   -0.2416771342    0.2960118236   -0.2639986016
  5         -0.4627745219   -0.2416114401    0.2961916694   -0.2644992007
  6         -0.4648634749   -0.2416666130    0.2961598921   -0.2646237065
  7         -0.4656347011   -0.2417155160    0.2961132802   -0.2646490719
  8         -0.4659271144   -0.2417438448    0.2960836537   -0.2646515522
  9         -0.4660407254   -0.2417580788    0.2960682004   -0.2646501482
 10         -0.4660857867   -0.2417647566    0.2960608087   -0.2646488305
 11         -0.4661039568   -0.2417677717    0.2960574330   -0.2646480606
 12         -0.4661113773   -0.2417691018    0.2960559329   -0.2646476727
 13         -0.4661144368   -0.2417696800    0.2960552775   -0.2646474903
 14         -0.4661157072   -0.2417699291    0.2960549942   -0.2646474079
 15         -0.4661162374   -0.2417700356    0.2960548727   -0.2646473715
 16         -0.4661164596   -0.2417700810    0.2960548208   -0.2646473556
 17         -0.4661165529   -0.2417701003    0.2960547987   -0.2646473488
Atom SCF converged after  17 iterations to a total energy of     -0.46611655

Atom SCF Calculation for C  : Z (AE atom) =   6 : Z (PS atom) =   4
Config String:
Orbitals (num,occ):  2     2.00 2.00
Orbitals   (num,l):  2        0    1
Real-space Grid (nr,dr,rmax): 1203    0.0066555740    8.0000000000
Spherical Bessel Basis (nsws,lmax,cutoff):   47    1  176.3951722778
Confining potential (l,width,scale):  0    3.0000000000  100.0000000000
Confining potential (l,width,scale):  1    3.0000000000  100.0000000000
  1         -5.2812238291   -1.3293161250    4.5135249990   -1.4716766231
  2         -5.3996591362   -1.3542148509    4.4876064308   -1.4645117417
  3         -5.4111847148   -1.3757224423    4.4645718036   -1.4593107263
  4         -5.4199203659   -1.3833334895    4.4563636676   -1.4579885221
  5         -5.4226876204   -1.3865104950    4.4529090432   -1.4575385943
  6         -5.4235070726   -1.3878131251    4.4514866831   -1.4573882877
  7         -5.4237271252   -1.3883401868    4.4509094528   -1.4573411661
  8         -5.4237693051   -1.3885521813    4.4506766230   -1.4573281030
  9         -5.4237656430   -1.3886371046    4.4505830704   -1.4573255254
 10         -5.4237547927   -1.3886709976    4.4505456041   -1.4573257244
 11         -5.4237478594   -1.3886817763    4.4505336403   -1.4573262476
 12         -5.4237429748   -1.3886873440    4.4505274417   -1.4573266921
 13         -5.4237397042   -1.3886902144    4.4505242350   -1.4573270222
 14         -5.4237375865   -1.3886916908    4.4505225792   -1.4573272507
 15         -5.4237362473   -1.3886924482    4.4505217259   -1.4573274021
 16         -5.4237354152   -1.3886928356    4.4505212873   -1.4573274996
 17         -5.4237349050   -1.3886930331    4.4505210623   -1.4573275610
 18         -5.4237345954   -1.3886931333    4.4505209473   -1.4573275991
 19         -5.4237344092   -1.3886931840    4.4505208887   -1.4573276224
 20         -5.4237342980   -1.3886932094    4.4505208590   -1.4573276366
 21         -5.4237342320   -1.3886932221    4.4505208440   -1.4573276451
Atom SCF converged after  21 iterations to a total energy of     -5.42373423

Atom SCF Calculation for S  : Z (AE atom) =  16 : Z (PS atom) =   6
Config String:
Orbitals (num,occ):  3     2.00 4.00 0.00
Orbitals   (num,l):  3        0    1    2
Real-space Grid (nr,dr,rmax): 1203    0.0066555740    8.0000000000
Spherical Bessel Basis (nsws,lmax,cutoff):   47    2  176.3951722778
Confining potential (l,width,scale):  0    3.0000000000  100.0000000000
Confining potential (l,width,scale):  1    3.0000000000  100.0000000000
Confining potential (l,width,scale):  2    3.0000000000  100.0000000000
  1        -12.4916237786   -1.0485914554   10.1554312477   -2.4822447765
  2         -9.9747083603   -2.4807597367    8.3138131863   -2.0618837268
  3        -10.1811370131   -2.3153496392    8.4906092179   -2.1137756843
  4        -10.1856385898   -2.2984912006    8.5093862195   -2.1218167101
  5        -10.1891317560   -2.2894783333    8.5195006030   -2.1261392389
  6        -10.1911142562   -2.2849160124    8.5246320974   -2.1283733378
  7        -10.1921506977   -2.2826473329    8.5271859473   -2.1295140514
  8        -10.1926851273   -2.2815219985    8.5284534218   -2.1300957983
  9        -10.1929632671   -2.2809620806    8.5290843811   -2.1303933136
 10        -10.1931100895   -2.2806822783    8.5293998452   -2.1305460626
 11        -10.1931885828   -2.2805418782    8.5295582201   -2.1306248009
 12        -10.1932309625   -2.2804711729    8.5296380158   -2.1306655459
 13        -10.1932540142   -2.2804354512    8.5296783476   -2.1306867097
 14        -10.1932666242   -2.2804173494    8.5296987927   -2.1306977435
 15        -10.1932735535   -2.2804081489    8.5297091868   -2.1307035175
 16        -10.1932773756   -2.2804034581    8.5297144867   -2.1307065505
 17        -10.1932794908   -2.2804010586    8.5297171976   -2.1307081499
 18        -10.1932806648   -2.2803998268    8.5297185890   -2.1307089965
 19        -10.1932813181   -2.2803991920    8.5297193057   -2.1307094466
 20        -10.1932816826   -2.2803988634    8.5297196763   -2.1307096867
 21        -10.1932818864   -2.2803986926    8.5297198688   -2.1307098154
 22        -10.1932820006   -2.2803986034    8.5297199692   -2.1307098847
 23        -10.1932820648   -2.2803985565    8.5297200219   -2.1307099221
Atom SCF converged after  23 iterations to a total energy of    -10.19328206

Atom SCF Calculation for O  : Z (AE atom) =   8 : Z (PS atom) =   6
Config String:
Orbitals (num,occ):  2     2.00 4.00
Orbitals   (num,l):  2        0    1
Real-space Grid (nr,dr,rmax): 1203    0.0066555740    8.0000000000
Spherical Bessel Basis (nsws,lmax,cutoff):   47    1  176.3951722778
Confining potential (l,width,scale):  0    3.0000000000  100.0000000000
Confining potential (l,width,scale):  1    3.0000000000  100.0000000000
  1         -1.9497477053   -7.5870966769   10.1554312477   -2.4822447765
  2        -15.9466298225   -3.1778351734   13.6353006614   -3.2931224232
  3        -16.0387051750   -3.0909030611   13.7305651010   -3.3194522996
  4        -15.9025031450   -3.1083023605   13.7128101414   -3.3180850501
  5        -15.8912953362   -3.1033022259   13.7185404266   -3.3206942093
  6        -15.8793912992   -3.1043100674   13.7175820250   -3.3209366960
  7        -15.8748748605   -3.1043975610   13.7175531476   -3.3211845618
  8        -15.8725354084   -3.1044655610   13.7175148333   -3.3213149154
  9        -15.8713193866   -3.1045129589   13.7174824743   -3.3213832909
 10        -15.8706863385   -3.1045436851   13.7174593895   -3.3214192053
 11        -15.8703562731   -3.1045627330   13.7174442347   -3.3214381098
 12        -15.8701839150   -3.1045741887   13.7174347673   -3.3214480859
 13        -15.8700937727   -3.1045809294   13.7174290448   -3.3214533647
 14        -15.8700465571   -3.1045848305   13.7174256662   -3.3214561658
 15        -15.8700217888   -3.1045870593   13.7174237063   -3.3214576563
 16        -15.8700087767   -3.1045883194   13.7174225849   -3.3214584516
 17        -15.8700019307   -3.1045890258   13.7174219502   -3.3214588771
 18        -15.8699983237   -3.1045894190   13.7174215942   -3.3214591053
 19        -15.8699964206   -3.1045896366   13.7174213960   -3.3214592281
 20        -15.8699954151   -3.1045897563   13.7174212864   -3.3214592942
 21        -15.8699948832   -3.1045898219   13.7174212260   -3.3214593299
 22        -15.8699946014   -3.1045898577   13.7174211930   -3.3214593493
 23        -15.8699944520   -3.1045898771   13.7174211750   -3.3214593597
 24        -15.8699943726   -3.1045898877   13.7174211652   -3.3214593654
Atom SCF converged after  24 iterations to a total energy of    -15.86999437

========================== Calculation in vacuum ==============================
= Adjusting the following parameters: 
= is_implicit_solvent: F
= is_include_apolar: F
= write_denskern: T
= write_tightbox_ngwfs: T
= restart read filename prefix: ""
= restart write filename prefix: "vacuum_"
===============================================================================

Determining parallel strategy ...
... using space-filling curve
... NGWF load balancing: max    109;  min    108;  average    108
... Projector load balancing: max     25;  min     21;  average     22
... done
Calculating direct Ion-Ion energy ...
Ion-Ion Energy        :    822135.24702938471455
Basis initialisation ...... NGWF spheres initialised
... Projector spheres initialised
... NGWF tight boxes initialised
... Tight-boxes gathered
... NGWF basis size (local,global):    1376500  82720979
... Nonlocal pseudopotential projector initialisation
... done

========================== Sparse matrix information ===========================
                        Overlap matrix filling:   6.73%
                        Density kernel filling: 100.00%
              NGWF-Proj overlap matrix filling:   1.79%
                    Hamiltonian matrix filling:   7.61%
                  NGWF diagonal matrix filling:   0.05%
                             KS matrix filling: 100.00% 
                           KSKS matrix filling: 100.00% 
================================================================================

Sparse matrix initialisation ... done

Generating smeared ion density ... done
Smeared ion self correction:     -14457.169564
Smeared ion non-self correction: -822087.177454
NGWF initialisation ...... done
============ Calculation of NGWF S^-1 using Hotelling algorithm ================ 
         Iteration  |  Frobenius norm and Maximum abs value    (of I-S*S_n^-1)   
               1       0.78491347E+02     0.98276248E+00
               2       0.76646479E+02     0.96594972E+00
               3       0.73653132E+02     0.93352818E+00
               4       0.69389005E+02     0.87308030E+00
               5       0.64071354E+02     0.76857991E+00
               6       0.58095915E+02     0.70357761E+00
               7       0.52090176E+02     0.67137949E+00
               8       0.46538296E+02     0.64621291E+00
               9       0.40464220E+02     0.60774926E+00
              10       0.32191123E+02     0.54296042E+00
              11       0.21624352E+02     0.43814063E+00
              12       0.11051603E+02     0.29163153E+00
              13       0.36555299E+01     0.13673576E+00
              14       0.58879587E+00     0.40604769E-01
              15       0.31295067E-01     0.41446541E-02
              16       0.22607064E-03     0.45797299E-04
              17       0.22023757E-07     0.57998012E-08
              18       0.94886060E-13     0.46178339E-14
================================================================================
Calculating local pseudopotential in open BC on the fine real space grid ...
... done

MG BCs: +ve charge blocks (gridpoints):     19989 (   15643369).
MG BCs: -ve charge blocks (gridpoints):      7930 (    1057259).
MG BCs:     Elided blocks (gridpoints):    177131 (  174076077).
MG BCs: Computational effort saved:  99.9854%.
MG BCs: Charge after coarse-graining:           -9.0002243.
MG DL_MG: Calling solver with defect correction order = 8
MG DL_MG: Solver finished
MG Hartree energy from (\int phi*rho dr):              1452.106854
MG Hartree energy from (\int eps (grad phi)^2 dr):     1451.479844
MG Discrepancy due to finite box and discretization:     -0.627010 (  -0.04318%)
MG Correction to account for finite box:                  0.464010
MG Remaining discrepancy, due to discretization:         -0.163000 (  -0.01123%)
Up spin density kernel initialisation ... 
======= Optimisation of K by Palser-Manolopoulos canonical purification ======== 
         Iteration  |  Band structure energy |    c_n   
               1       -2568.50793819196770    0.5271986
               2       -2744.45570876035663    0.5174759
               3       -2924.83036606343376    0.5159471
               4       -3075.42237771098371    0.5296161
               5       -3168.05901410774004    0.5657408
               6       -3206.80392574580765    0.6108034
               7       -3219.96149093549457    0.6218257
               8       -3225.70554106610507    0.6203772
               9       -3228.50153658312820    0.6394257
              10       -3229.63766464303126    0.6766121
              11       -3230.06214429297415    0.7035284
              12       -3230.24624285080063    0.6941409
              13       -3230.35301382393209    0.6560055
              14       -3230.42354093433914    0.5974579
              15       -3230.46751380299111    0.5346956
              16       -3230.48768490252223    0.5214547
              17       -3230.49201206744419    0.5532543
              18       -3230.49311499481109    0.5330126
              19       -3230.49367809821433    0.5080292
              20       -3230.49385830258234    0.5004772
              21       -3230.49387310056636    0.5000018
              22       -3230.49387319293692    0.5000018
Termination criterion satisfied: band energy change below threshold.
Final occupancy bounds: [    0.00000000000006:    0.99999999999997]
Closest occupancy to 0.5:     0.99999999999987
================================================================================
... done

Writing density kernel to file "host_6561.vacuum_dkn" ... done

>>> Optimising kernel for current NGWFs:
   Initial electron number for spin 1:    7192.00000000
     Final electron number for spin 1:    7192.00000000

=================== Penalty functional idempotency correction ==================
 RMS occupancy error at iteration   1:  0.000000 (step -0.5000 Ne1=   7192.0000)
            Final RMS occupancy error   :  0.000000 (Ne1=   7192.0000)
               Final occupancy bounds   : [  0.0000,  1.0000]
================================================================================

................................................................................
<<<<<<<<<<<<<< LNV (Original version) density kernel optimisation >>>>>>>>>>>>>>
~~~~~~~~~~~~~~~~~~~~~~~~~~~~~~~~~~~~~~~~~~~~~~~~~~~~~~~~~~~~~~~~~~~~~~~~~~~~~~~~
   iter  |      energy (Eh)       | rms gradient |  commutator  |   dE (Eh)
MG BCs: +ve charge blocks (gridpoints):     30623 (   16856950).
MG BCs: -ve charge blocks (gridpoints):      8253 (    1084890).
MG BCs:     Elided blocks (gridpoints):    166494 (  172834865).
MG BCs: Computational effort saved:  99.9796%.
MG BCs: Charge after coarse-graining:           -9.0009618.
MG DL_MG: Calling solver with defect correction order = 8
MG DL_MG: Solver finished
MG Hartree energy from (\int phi*rho dr):              1414.000487
MG Hartree energy from (\int eps (grad phi)^2 dr):     1413.325574
MG Discrepancy due to finite box and discretization:     -0.674913 (  -0.04773%)
MG Correction to account for finite box:                  0.467283
MG Remaining discrepancy, due to discretization:         -0.207630 (  -0.01468%)
      ideal mu1:      -0.723152183094
             Q0:  -11524.359745755908
             G0:    -144.653168391372
   RMS gradient:       0.001848913844
MG BCs: +ve charge blocks (gridpoints):     30722 (   16935912).
MG BCs: -ve charge blocks (gridpoints):      8188 (    1068043).
MG BCs:     Elided blocks (gridpoints):    166393 (  172772750).
MG BCs: Computational effort saved:  99.9796%.
MG BCs: Charge after coarse-graining:           -9.0009843.
MG DL_MG: Calling solver with defect correction order = 8
MG DL_MG: Solver finished
MG Hartree energy from (\int phi*rho dr):              1434.495313
MG Hartree energy from (\int eps (grad phi)^2 dr):     1433.837959
MG Discrepancy due to finite box and discretization:     -0.657354 (  -0.04582%)
MG Correction to account for finite box:                  0.466893
MG Remaining discrepancy, due to discretization:         -0.190460 (  -0.01328%)
     Trial step:       0.500000000000
             Q1:  -11535.476164254127
 Quadratic coef:      61.210165697466
 Linear coef   :     -72.326584195686
           Qmin:  -11545.725211450244
Quadratic minimum step length (  0.295402664621) accepted
    Initial Ne1:    7192.00000000
      Final Ne1:    7192.00000000

=================== Penalty functional idempotency correction ==================
 RMS occupancy error at iteration   1:  0.003442 (step -0.4882 Ne1=   7192.0000)
 RMS occupancy error at iteration   2:  0.000026 (step -0.5000 Ne1=   7192.0000)
            Final RMS occupancy error   :  0.000000 (Ne1=   7192.0000)
               Final occupancy bounds   : [  0.0000,  1.0000]
================================================================================

    1        -1.152435974576E+04     1.8489E-03     1.6723E-03
MG BCs: +ve charge blocks (gridpoints):     30667 (   16904668).
MG BCs: -ve charge blocks (gridpoints):      8223 (    1075524).
MG BCs:     Elided blocks (gridpoints):    166449 (  172796513).
MG BCs: Computational effort saved:  99.9796%.
MG BCs: Charge after coarse-graining:           -9.0009752.
MG DL_MG: Calling solver with defect correction order = 8
MG DL_MG: Solver finished
MG Hartree energy from (\int phi*rho dr):              1418.050107
MG Hartree energy from (\int eps (grad phi)^2 dr):     1417.386663
MG Discrepancy due to finite box and discretization:     -0.663444 (  -0.04679%)
MG Correction to account for finite box:                  0.466901
MG Remaining discrepancy, due to discretization:         -0.196543 (  -0.01386%)
      ideal mu1:      -0.760953494801
             Q0:  -11546.150427488377
             G0:     -11.736334353012
   RMS gradient:       0.000522925644
MG BCs: +ve charge blocks (gridpoints):     30683 (   16921981).
MG BCs: -ve charge blocks (gridpoints):      8197 (    1070917).
MG BCs:     Elided blocks (gridpoints):    166432 (  172783807).
MG BCs: Computational effort saved:  99.9796%.
MG BCs: Charge after coarse-graining:           -9.0009792.
MG DL_MG: Calling solver with defect correction order = 8
MG DL_MG: Solver finished
MG Hartree energy from (\int phi*rho dr):              1422.656800
MG Hartree energy from (\int eps (grad phi)^2 dr):     1421.997060
MG Discrepancy due to finite box and discretization:     -0.659740 (  -0.04637%)
MG Correction to account for finite box:                  0.466620
MG Remaining discrepancy, due to discretization:         -0.193120 (  -0.01357%)
     Trial step:       0.384319310353
             Q1:  -11548.928750505438
 Quadratic coef:       1.732176907566
 Linear coef   :      -4.510499924626
           Qmin:  -11549.086705168964
Quadratic minimum step length (  0.500373897380) accepted
    Initial Ne1:    7191.99990364
      Final Ne1:    7192.00000000

=================== Penalty functional idempotency correction ==================
 RMS occupancy error at iteration   1:  0.001828 (step -0.4930 Ne1=   7192.0000)
 RMS occupancy error at iteration   2:  0.000010 (step -0.5001 Ne1=   7192.0000)
            Final RMS occupancy error   :  0.000000 (Ne1=   7192.0000)
               Final occupancy bounds   : [  0.0000,  1.0000]
================================================================================

    2        -1.154615042749E+04     5.2293E-04     4.7297E-04    -2.1791E+01
MG BCs: +ve charge blocks (gridpoints):     30686 (   16927435).
MG BCs: -ve charge blocks (gridpoints):      8193 (    1069484).
MG BCs:     Elided blocks (gridpoints):    166429 (  172779786).
MG BCs: Computational effort saved:  99.9796%.
MG BCs: Charge after coarse-graining:           -9.0009804.
MG DL_MG: Calling solver with defect correction order = 8
MG DL_MG: Solver finished
MG Hartree energy from (\int phi*rho dr):              1424.091079
MG Hartree energy from (\int eps (grad phi)^2 dr):     1423.432369
MG Discrepancy due to finite box and discretization:     -0.658710 (  -0.04625%)
MG Correction to account for finite box:                  0.466551
MG Remaining discrepancy, due to discretization:         -0.192159 (  -0.01349%)
      ideal mu1:      -0.781767385058
             Q0:  -11549.122174482676
             G0:      -1.851945576392
   RMS gradient:       0.000207986575
MG BCs: +ve charge blocks (gridpoints):     30687 (   16927247).
MG BCs: -ve charge blocks (gridpoints):      8195 (    1070231).
MG BCs:     Elided blocks (gridpoints):    166428 (  172779227).
MG BCs: Computational effort saved:  99.9796%.
MG BCs: Charge after coarse-graining:           -9.0009800.
MG DL_MG: Calling solver with defect correction order = 8
MG DL_MG: Solver finished
MG Hartree energy from (\int phi*rho dr):              1422.475349
MG Hartree energy from (\int eps (grad phi)^2 dr):     1421.816885
MG Discrepancy due to finite box and discretization:     -0.658465 (  -0.04629%)
MG Correction to account for finite box:                  0.466424
MG Remaining discrepancy, due to discretization:         -0.192041 (  -0.01350%)
     Trial step:       0.438524059956
             Q1:  -11549.588999109110
 Quadratic coef:       0.345298066542
 Linear coef   :      -0.812122692976
           Qmin:  -11549.599691830985
Quadratic minimum step length (  0.515692636324) accepted
    Initial Ne1:    7191.99995820
      Final Ne1:    7192.00000000

=================== Penalty functional idempotency correction ==================
 RMS occupancy error at iteration   1:  0.000600 (step -0.4976 Ne1=   7192.0000)
 RMS occupancy error at iteration   2:  0.000001 (step -0.5000 Ne1=   7192.0000)
            Final RMS occupancy error   :  0.000000 (Ne1=   7192.0000)
               Final occupancy bounds   : [  0.0000,  1.0000]
================================================================================

    3        -1.154912217448E+04     2.0799E-04     1.8812E-04    -2.9717E+00
MG BCs: +ve charge blocks (gridpoints):     30687 (   16927260).
MG BCs: -ve charge blocks (gridpoints):      8197 (    1070323).
MG BCs:     Elided blocks (gridpoints):    166428 (  172779122).
MG BCs: Computational effort saved:  99.9796%.
MG BCs: Charge after coarse-graining:           -9.0009800.
MG DL_MG: Calling solver with defect correction order = 8
MG DL_MG: Solver finished
MG Hartree energy from (\int phi*rho dr):              1422.197755
MG Hartree energy from (\int eps (grad phi)^2 dr):     1421.539323
MG Discrepancy due to finite box and discretization:     -0.658431 (  -0.04630%)
MG Correction to account for finite box:                  0.466402
MG Remaining discrepancy, due to discretization:         -0.192029 (  -0.01350%)
      ideal mu1:      -0.782925700989
             Q0:  -11549.604246087023
             G0:      -0.451345041187
   RMS gradient:       0.000102723700
MG BCs: +ve charge blocks (gridpoints):     30690 (   16928074).
MG BCs: -ve charge blocks (gridpoints):      8198 (    1070151).
MG BCs:     Elided blocks (gridpoints):    166425 (  172778480).
MG BCs: Computational effort saved:  99.9796%.
MG BCs: Charge after coarse-graining:           -9.0009801.
MG DL_MG: Calling solver with defect correction order = 8
MG DL_MG: Solver finished
MG Hartree energy from (\int phi*rho dr):              1423.212394
MG Hartree energy from (\int eps (grad phi)^2 dr):     1422.553877
MG Discrepancy due to finite box and discretization:     -0.658517 (  -0.04627%)
MG Correction to account for finite box:                  0.466386
MG Remaining discrepancy, due to discretization:         -0.192130 (  -0.01350%)
     Trial step:       0.475545611451
             Q1:  -11549.705429355847
 Quadratic coef:       0.113451884763
 Linear coef   :      -0.214635153587
           Qmin:  -11549.705761035962
Quadratic minimum step length (  0.449833008788) accepted
    Initial Ne1:    7191.99999096
      Final Ne1:    7192.00000000

=================== Penalty functional idempotency correction ==================
 RMS occupancy error at iteration   1:  0.000195 (step -0.4992 Ne1=   7192.0000)
 RMS occupancy error at iteration   2:  0.000000 (step -0.5000 Ne1=   7192.0000)
            Final RMS occupancy error   :  0.000000 (Ne1=   7192.0000)
               Final occupancy bounds   : [  0.0000,  1.0000]
================================================================================

    4        -1.154960424609E+04     1.0272E-04     9.2911E-05    -4.8207E-01
MG BCs: +ve charge blocks (gridpoints):     30690 (   16928000).
MG BCs: -ve charge blocks (gridpoints):      8198 (    1070175).
MG BCs:     Elided blocks (gridpoints):    166425 (  172778530).
MG BCs: Computational effort saved:  99.9796%.
MG BCs: Charge after coarse-graining:           -9.0009801.
MG DL_MG: Calling solver with defect correction order = 8
MG DL_MG: Solver finished
MG Hartree energy from (\int phi*rho dr):              1423.157400
MG Hartree energy from (\int eps (grad phi)^2 dr):     1422.498889
MG Discrepancy due to finite box and discretization:     -0.658511 (  -0.04627%)
MG Correction to account for finite box:                  0.466387
MG Remaining discrepancy, due to discretization:         -0.192124 (  -0.01350%)
      ideal mu1:      -0.783134222615
             Q0:  -11549.706238025334
             G0:      -0.105126255772
   RMS gradient:       0.000049733472
MG BCs: +ve charge blocks (gridpoints):     30692 (   16928148).
MG BCs: -ve charge blocks (gridpoints):      8196 (    1070066).
MG BCs:     Elided blocks (gridpoints):    166423 (  172778491).
MG BCs: Computational effort saved:  99.9796%.
MG BCs: Charge after coarse-graining:           -9.0009800.
MG DL_MG: Calling solver with defect correction order = 8
MG DL_MG: Solver finished
MG Hartree energy from (\int phi*rho dr):              1423.524090
MG Hartree energy from (\int eps (grad phi)^2 dr):     1422.865437
MG Discrepancy due to finite box and discretization:     -0.658653 (  -0.04627%)
MG Correction to account for finite box:                  0.466375
MG Remaining discrepancy, due to discretization:         -0.192278 (  -0.01351%)
     Trial step:       0.462510662812
             Q1:  -11549.732260840246
 Quadratic coef:       0.022599199323
 Linear coef   :      -0.048622014236
           Qmin:  -11549.732390503510
Quadratic minimum step length (  0.497544176458) accepted
    Initial Ne1:    7191.99999765
      Final Ne1:    7192.00000000

=================== Penalty functional idempotency correction ==================
 RMS occupancy error at iteration   1:  0.000068 (step -0.4997 Ne1=   7192.0000)
            Final RMS occupancy error   :  0.000000 (Ne1=   7192.0000)
               Final occupancy bounds   : [ -0.0000,  1.0000]
================================================================================

    5        -1.154970623803E+04     4.9733E-05     4.4983E-05    -1.0199E-01
MG BCs: +ve charge blocks (gridpoints):     30692 (   16928179).
MG BCs: -ve charge blocks (gridpoints):      8195 (    1070053).
MG BCs:     Elided blocks (gridpoints):    166423 (  172778473).
MG BCs: Computational effort saved:  99.9796%.
MG BCs: Charge after coarse-graining:           -9.0009800.
MG DL_MG: Calling solver with defect correction order = 8
MG DL_MG: Solver finished
MG Hartree energy from (\int phi*rho dr):              1423.551882
MG Hartree energy from (\int eps (grad phi)^2 dr):     1422.893218
MG Discrepancy due to finite box and discretization:     -0.658664 (  -0.04627%)
MG Correction to account for finite box:                  0.466374
MG Remaining discrepancy, due to discretization:         -0.192290 (  -0.01351%)
      ideal mu1:      -0.783082974669
             Q0:  -11549.732444549329
             G0:      -0.030477462343
   RMS gradient:       0.000026801518
MG BCs: +ve charge blocks (gridpoints):     30690 (   16927778).
MG BCs: -ve charge blocks (gridpoints):      8197 (    1070247).
MG BCs:     Elided blocks (gridpoints):    166425 (  172778680).
MG BCs: Computational effort saved:  99.9796%.
MG BCs: Charge after coarse-graining:           -9.0009799.
MG DL_MG: Calling solver with defect correction order = 8
MG DL_MG: Solver finished
MG Hartree energy from (\int phi*rho dr):              1422.928807
MG Hartree energy from (\int eps (grad phi)^2 dr):     1422.270144
MG Discrepancy due to finite box and discretization:     -0.658663 (  -0.04629%)
MG Correction to account for finite box:                  0.466381
MG Remaining discrepancy, due to discretization:         -0.192282 (  -0.01351%)
     Trial step:       0.479707709790
             Q1:  -11549.741922618006
 Quadratic coef:       0.005142204984
 Linear coef   :      -0.014620273661
           Qmin:  -11549.742836608892
Quadratic minimum step length (  0.681950448935) accepted
    Initial Ne1:    7192.00032184
      Final Ne1:    7192.00000000

=================== Penalty functional idempotency correction ==================
 RMS occupancy error at iteration   1:  0.000038 (step -0.4998 Ne1=   7192.0000)
            Final RMS occupancy error   :  0.000000 (Ne1=   7192.0000)
               Final occupancy bounds   : [ -0.0000,  1.0000]
================================================================================

    6        -1.154973244455E+04     2.6802E-05     2.4241E-05    -2.6207E-02
MG BCs: +ve charge blocks (gridpoints):     30689 (   16927636).
MG BCs: -ve charge blocks (gridpoints):      8197 (    1070322).
MG BCs:     Elided blocks (gridpoints):    166426 (  172778747).
MG BCs: Computational effort saved:  99.9796%.
MG BCs: Charge after coarse-graining:           -9.0009798.
MG DL_MG: Calling solver with defect correction order = 8
MG DL_MG: Solver finished
MG Hartree energy from (\int phi*rho dr):              1422.665538
MG Hartree energy from (\int eps (grad phi)^2 dr):     1422.006876
MG Discrepancy due to finite box and discretization:     -0.658663 (  -0.04630%)
MG Correction to account for finite box:                  0.466384
MG Remaining discrepancy, due to discretization:         -0.192279 (  -0.01352%)
      ideal mu1:      -0.782859553646
             Q0:  -11549.742846238194
             G0:      -0.015442276849
   RMS gradient:       0.000019103299
MG BCs: +ve charge blocks (gridpoints):     30694 (   16928072).
MG BCs: -ve charge blocks (gridpoints):      8197 (    1070078).
MG BCs:     Elided blocks (gridpoints):    166421 (  172778555).
MG BCs: Computational effort saved:  99.9796%.
MG BCs: Charge after coarse-graining:           -9.0009800.
MG DL_MG: Calling solver with defect correction order = 8
MG DL_MG: Solver finished
MG Hartree energy from (\int phi*rho dr):              1423.251378
MG Hartree energy from (\int eps (grad phi)^2 dr):     1422.592745
MG Discrepancy due to finite box and discretization:     -0.658633 (  -0.04628%)
MG Correction to account for finite box:                  0.466375
MG Remaining discrepancy, due to discretization:         -0.192258 (  -0.01351%)
     Trial step:       0.571958816742
             Q1:  -11549.746685471502
 Quadratic coef:       0.004993113087
 Linear coef   :      -0.008832346394
           Qmin:  -11549.746752135250
Quadratic minimum step length (  0.505870616660) accepted
    Initial Ne1:    7192.00013418
      Final Ne1:    7192.00000000

=================== Penalty functional idempotency correction ==================
 RMS occupancy error at iteration   1:  0.000002 (step -0.5000 Ne1=   7192.0000)
            Final RMS occupancy error   :  0.000000 (Ne1=   7192.0000)
               Final occupancy bounds   : [  0.0000,  1.0000]
================================================================================

    7        -1.154974284624E+04     1.9103E-05     1.7278E-05    -1.0402E-02
MG BCs: +ve charge blocks (gridpoints):     30691 (   16928014).
MG BCs: -ve charge blocks (gridpoints):      8197 (    1070111).
MG BCs:     Elided blocks (gridpoints):    166424 (  172778580).
MG BCs: Computational effort saved:  99.9796%.
MG BCs: Charge after coarse-graining:           -9.0009800.
MG DL_MG: Calling solver with defect correction order = 8
MG DL_MG: Solver finished
MG Hartree energy from (\int phi*rho dr):              1423.183574
MG Hartree energy from (\int eps (grad phi)^2 dr):     1422.524938
MG Discrepancy due to finite box and discretization:     -0.658637 (  -0.04628%)
MG Correction to account for finite box:                  0.466376
MG Remaining discrepancy, due to discretization:         -0.192261 (  -0.01351%)
      ideal mu1:      -0.783155335542
             Q0:  -11549.746752280975
             G0:      -0.008710980058
   RMS gradient:       0.000014348352
MG BCs: +ve charge blocks (gridpoints):     30692 (   16928107).
MG BCs: -ve charge blocks (gridpoints):      8197 (    1070093).
MG BCs:     Elided blocks (gridpoints):    166423 (  172778505).
MG BCs: Computational effort saved:  99.9796%.
MG BCs: Charge after coarse-graining:           -9.0009801.
MG DL_MG: Calling solver with defect correction order = 8
MG DL_MG: Solver finished
MG Hartree energy from (\int phi*rho dr):              1423.252118
MG Hartree energy from (\int eps (grad phi)^2 dr):     1422.593518
MG Discrepancy due to finite box and discretization:     -0.658600 (  -0.04627%)
MG Correction to account for finite box:                  0.466370
MG Remaining discrepancy, due to discretization:         -0.192230 (  -0.01351%)
     Trial step:       0.537900696532
             Q1:  -11549.750229333993
 Quadratic coef:       0.001208589223
 Linear coef   :      -0.004685642241
           Qmin:  -11549.751293783329
Quadratic minimum step length (  1.042707553907) accepted
    Initial Ne1:    7192.00015511
      Final Ne1:    7192.00000000

=================== Penalty functional idempotency correction ==================
 RMS occupancy error at iteration   1:  0.000022 (step -0.4994 Ne1=   7192.0000)
            Final RMS occupancy error   :  0.000000 (Ne1=   7192.0000)
               Final occupancy bounds   : [ -0.0000,  1.0000]
================================================================================

    8        -1.154974675228E+04     1.4348E-05     1.2978E-05    -3.9060E-03
MG BCs: +ve charge blocks (gridpoints):     30691 (   16928186).
MG BCs: -ve charge blocks (gridpoints):      8197 (    1070069).
MG BCs:     Elided blocks (gridpoints):    166424 (  172778450).
MG BCs: Computational effort saved:  99.9796%.
MG BCs: Charge after coarse-graining:           -9.0009801.
MG DL_MG: Calling solver with defect correction order = 8
MG DL_MG: Solver finished
MG Hartree energy from (\int phi*rho dr):              1423.314896
MG Hartree energy from (\int eps (grad phi)^2 dr):     1422.656331
MG Discrepancy due to finite box and discretization:     -0.658565 (  -0.04627%)
MG Correction to account for finite box:                  0.466363
MG Remaining discrepancy, due to discretization:         -0.192202 (  -0.01350%)
      ideal mu1:      -0.783300785385
             Q0:  -11549.751283640973
             G0:      -0.012044266886
   RMS gradient:       0.000016907966
MG BCs: +ve charge blocks (gridpoints):     30691 (   16927996).
MG BCs: -ve charge blocks (gridpoints):      8197 (    1070223).
MG BCs:     Elided blocks (gridpoints):    166424 (  172778486).
MG BCs: Computational effort saved:  99.9796%.
MG BCs: Charge after coarse-graining:           -9.0009801.
MG DL_MG: Calling solver with defect correction order = 8
MG DL_MG: Solver finished
MG Hartree energy from (\int phi*rho dr):              1422.989087
MG Hartree energy from (\int eps (grad phi)^2 dr):     1422.330576
MG Discrepancy due to finite box and discretization:     -0.658511 (  -0.04628%)
MG Correction to account for finite box:                  0.466350
MG Remaining discrepancy, due to discretization:         -0.192160 (  -0.01350%)
     Trial step:       0.748914627662
             Q1:  -11549.756950311479
 Quadratic coef:       0.003353457145
 Linear coef   :      -0.009020127650
           Qmin:  -11549.757349224885
Quadratic minimum step length (  1.007215128865) accepted
    Initial Ne1:    7192.00039853
      Final Ne1:    7192.00000000

=================== Penalty functional idempotency correction ==================
 RMS occupancy error at iteration   1:  0.000116 (step -0.4965 Ne1=   7192.0000)
 RMS occupancy error at iteration   2:  0.000000 (step -0.5000 Ne1=   7192.0000)
            Final RMS occupancy error   :  0.000000 (Ne1=   7192.0000)
               Final occupancy bounds   : [  0.0000,  1.0000]
================================================================================

    9        -1.154975128364E+04     1.6908E-05     1.5293E-05    -4.5314E-03
MG BCs: +ve charge blocks (gridpoints):     30690 (   16927949).
MG BCs: -ve charge blocks (gridpoints):      8197 (    1070274).
MG BCs:     Elided blocks (gridpoints):    166425 (  172778482).
MG BCs: Computational effort saved:  99.9796%.
MG BCs: Charge after coarse-graining:           -9.0009801.
MG DL_MG: Calling solver with defect correction order = 8
MG DL_MG: Solver finished
MG Hartree energy from (\int phi*rho dr):              1422.874041
MG Hartree energy from (\int eps (grad phi)^2 dr):     1422.215550
MG Discrepancy due to finite box and discretization:     -0.658491 (  -0.04628%)
MG Correction to account for finite box:                  0.466346
MG Remaining discrepancy, due to discretization:         -0.192146 (  -0.01350%)
      ideal mu1:      -0.782857461710
   10        -1.154975730856E+04     1.8664E-05     1.6881E-05    -6.0249E-03
Finished density kernel iterations (  10)

Writing density kernel to file "host_6561.vacuum_dkn" ... done


>>> Density kernel optimised for the current NGWF basis:
     ~~~~~~~~~~~~~~~~~~~~~~~~~~~~~~~~~~~~~~~~~~~~~~~~~~~~~~~~~~~
     Total energy                =  -1.15497573085587E+04  Eh
     Estimated bandgap           =  -2.8523E-01  Eh
     RMS occupancy error         =   5.7966E-12
     [H,K] commutator            =   1.6881E-05
     Occupancy bounds            = [  0.000:  1.000]
     ~~~~~~~~~~~~~~~~~~~~~~~~~~~~~~~~~~~~~~~~~~~~~~~~~~~~~~~~~~~




################################################################################
########################### NGWF CG iteration  001 #############################
################################################################################
****** Reciprocal space K.E. preconditioning with k_zero =  3.5000 a0^-1 *******

>>> Checking for convergence of NGWFs:   NOT CONVERGED
  ========================================================================
         NGWF RMS gradient =  1.6489E-03 >  2.0000E-06  | above tolerance
  ========================================================================

>>> Improving NGWFs using line search:
============ Calculation of NGWF S^-1 using Hotelling algorithm ================ 
         Iteration  |  Frobenius norm and Maximum abs value    (of I-S*S_n^-1)   
               1       0.20883388E+00     0.55026650E-02
               2       0.10233493E-02     0.44483246E-04
               3       0.42472012E-07     0.30672644E-08
               4       0.12629933E-12     0.63282712E-14
================================================================================
MG BCs: +ve charge blocks (gridpoints):     30227 (   16870243).
MG BCs: -ve charge blocks (gridpoints):      8204 (    1069574).
MG BCs:     Elided blocks (gridpoints):    166892 (  172836888).
MG BCs: Computational effort saved:  99.9799%.
MG BCs: Charge after coarse-graining:           -9.0009812.
MG DL_MG: Calling solver with defect correction order = 8
MG DL_MG: Solver finished
MG Hartree energy from (\int phi*rho dr):              1390.066091
MG Hartree energy from (\int eps (grad phi)^2 dr):     1389.408485
MG Discrepancy due to finite box and discretization:     -0.657606 (  -0.04731%)
MG Correction to account for finite box:                  0.466315
MG Remaining discrepancy, due to discretization:         -0.191291 (  -0.01376%)
============ Calculation of NGWF S^-1 using Hotelling algorithm ================ 
         Iteration  |  Frobenius norm and Maximum abs value    (of I-S*S_n^-1)   
               1       0.18701926E+01     0.41627201E-01
               2       0.73155035E-01     0.23715666E-02
               3       0.15329370E-03     0.89122136E-05
               4       0.12448514E-08     0.13004675E-09
               5       0.10976347E-12     0.51070259E-14
================================================================================
------------------------------- NGWF line search -------------------------------
RMS gradient                =       0.00164890319882
Trial step length           =               0.122474
Gradient along search dir.  =       -289.39307348917
Functional at step 0        =  -11549.75730855867732
Functional at step 1        =  -11582.40609570103697
Functional predicted        =  -11662.14179186012007
Selected quadratic step     =               0.776691
--------------------------- NGWF line search finished --------------------------
                                               
Writing NGWFs to file "host_6561.vacuum_tightbox_ngwfs"....  done

>>> Optimising kernel for current NGWFs:
   Initial electron number for spin 1:    7227.88002000
     Final electron number for spin 1:    7192.00000000

=================== Penalty functional idempotency correction ==================
 RMS occupancy error at iteration   1:  0.004381 (step -0.4854 Ne1=   7192.0000)
 RMS occupancy error at iteration   2:  0.000074 (step -0.5003 Ne1=   7192.0000)
            Final RMS occupancy error   :  0.000000 (Ne1=   7192.0000)
               Final occupancy bounds   : [  0.0000,  1.0000]
================================================================================

................................................................................
<<<<<<<<<<<<<< LNV (Original version) density kernel optimisation >>>>>>>>>>>>>>
~~~~~~~~~~~~~~~~~~~~~~~~~~~~~~~~~~~~~~~~~~~~~~~~~~~~~~~~~~~~~~~~~~~~~~~~~~~~~~~~
   iter  |      energy (Eh)       | rms gradient |  commutator  |   dE (Eh)
MG BCs: +ve charge blocks (gridpoints):     24474 (   16540166).
MG BCs: -ve charge blocks (gridpoints):      8328 (    1052258).
MG BCs:     Elided blocks (gridpoints):    172646 (  173184281).
MG BCs: Computational effort saved:  99.9828%.
MG BCs: Charge after coarse-graining:           -9.0006993.
MG DL_MG: Calling solver with defect correction order = 8
MG DL_MG: Solver finished
MG Hartree energy from (\int phi*rho dr):              1237.223060
MG Hartree energy from (\int eps (grad phi)^2 dr):     1236.565454
MG Discrepancy due to finite box and discretization:     -0.657606 (  -0.05315%)
MG Correction to account for finite box:                  0.466190
MG Remaining discrepancy, due to discretization:         -0.191416 (  -0.01547%)
      ideal mu1:      -0.721686223135
             Q0:  -11661.214263963397
             G0:      -9.645169411665
   RMS gradient:       0.000477427718
MG BCs: +ve charge blocks (gridpoints):     24551 (   16568418).
MG BCs: -ve charge blocks (gridpoints):      8294 (    1044316).
MG BCs:     Elided blocks (gridpoints):    172569 (  173163971).
MG BCs: Computational effort saved:  99.9828%.
MG BCs: Charge after coarse-graining:           -9.0006915.
MG DL_MG: Calling solver with defect correction order = 8
MG DL_MG: Solver finished
MG Hartree energy from (\int phi*rho dr):              1262.105998
MG Hartree energy from (\int eps (grad phi)^2 dr):     1261.441761
MG Discrepancy due to finite box and discretization:     -0.664237 (  -0.05263%)
MG Correction to account for finite box:                  0.465662
MG Remaining discrepancy, due to discretization:         -0.198575 (  -0.01573%)
     Trial step:       0.868514906728
             Q1:  -11658.642439148156
 Quadratic coef:      10.948798227191
 Linear coef   :      -8.376973411951
           Qmin:  -11662.816578712660
Quadratic minimum step length (  0.332252276943) accepted
    Initial Ne1:    7191.99951774
      Final Ne1:    7192.00000000

=================== Penalty functional idempotency correction ==================
 RMS occupancy error at iteration   1:  0.000353 (step -0.4986 Ne1=   7192.0000)
 RMS occupancy error at iteration   2:  0.000000 (step -0.5000 Ne1=   7192.0000)
            Final RMS occupancy error   :  0.000000 (Ne1=   7192.0000)
               Final occupancy bounds   : [  0.0000,  1.0000]
================================================================================

    1        -1.166121426396E+04     4.7743E-04     4.3182E-04
MG BCs: +ve charge blocks (gridpoints):     24504 (   16550963).
MG BCs: -ve charge blocks (gridpoints):      8316 (    1049481).
MG BCs:     Elided blocks (gridpoints):    172616 (  173176261).
MG BCs: Computational effort saved:  99.9828%.
MG BCs: Charge after coarse-graining:           -9.0006961.
MG DL_MG: Calling solver with defect correction order = 8
MG DL_MG: Solver finished
MG Hartree energy from (\int phi*rho dr):              1245.455249
MG Hartree energy from (\int eps (grad phi)^2 dr):     1244.795252
MG Discrepancy due to finite box and discretization:     -0.659996 (  -0.05299%)
MG Correction to account for finite box:                  0.465950
MG Remaining discrepancy, due to discretization:         -0.194046 (  -0.01558%)
      ideal mu1:      -0.729753451030
             Q0:  -11662.780462435097
             G0:      -0.977367692160
   RMS gradient:       0.000153176817
MG BCs: +ve charge blocks (gridpoints):     24512 (   16552076).
MG BCs: -ve charge blocks (gridpoints):      8318 (    1049725).
MG BCs:     Elided blocks (gridpoints):    172608 (  173174904).
MG BCs: Computational effort saved:  99.9828%.
MG BCs: Charge after coarse-graining:           -9.0006958.
MG DL_MG: Calling solver with defect correction order = 8
MG DL_MG: Solver finished
MG Hartree energy from (\int phi*rho dr):              1247.278435
MG Hartree energy from (\int eps (grad phi)^2 dr):     1246.618170
MG Discrepancy due to finite box and discretization:     -0.660265 (  -0.05294%)
MG Correction to account for finite box:                  0.465904
MG Remaining discrepancy, due to discretization:         -0.194361 (  -0.01558%)
     Trial step:       0.537183446617
             Q1:  -11662.973727047560
 Quadratic coef:       0.331761133024
 Linear coef   :      -0.525025745487
           Qmin:  -11662.988181186622
Quadratic minimum step length (  0.425057536054) accepted
    Initial Ne1:    7191.99993648
      Final Ne1:    7192.00000000

=================== Penalty functional idempotency correction ==================
 RMS occupancy error at iteration   1:  0.000141 (step -0.4994 Ne1=   7192.0000)
            Final RMS occupancy error   :  0.000000 (Ne1=   7192.0000)
               Final occupancy bounds   : [ -0.0000,  1.0000]
================================================================================

    2        -1.166278046244E+04     1.5318E-04     1.3854E-04    -1.5662E+00
MG BCs: +ve charge blocks (gridpoints):     24509 (   16551862).
MG BCs: -ve charge blocks (gridpoints):      8316 (    1049638).
MG BCs:     Elided blocks (gridpoints):    172611 (  173175205).
MG BCs: Computational effort saved:  99.9828%.
MG BCs: Charge after coarse-graining:           -9.0006959.
MG DL_MG: Calling solver with defect correction order = 8
MG DL_MG: Solver finished
MG Hartree energy from (\int phi*rho dr):              1246.897015
MG Hartree energy from (\int eps (grad phi)^2 dr):     1246.236809
MG Discrepancy due to finite box and discretization:     -0.660206 (  -0.05295%)
MG Correction to account for finite box:                  0.465913
MG Remaining discrepancy, due to discretization:         -0.194293 (  -0.01558%)
      ideal mu1:      -0.731025486742
             Q0:  -11662.988662381656
             G0:      -0.152257526170
   RMS gradient:       0.000059919226
MG BCs: +ve charge blocks (gridpoints):     24510 (   16550905).
MG BCs: -ve charge blocks (gridpoints):      8317 (    1050121).
MG BCs:     Elided blocks (gridpoints):    172610 (  173175679).
MG BCs: Computational effort saved:  99.9828%.
MG BCs: Charge after coarse-graining:           -9.0006960.
MG DL_MG: Calling solver with defect correction order = 8
MG DL_MG: Solver finished
MG Hartree energy from (\int phi*rho dr):              1246.282317
MG Hartree energy from (\int eps (grad phi)^2 dr):     1245.622181
MG Discrepancy due to finite box and discretization:     -0.660136 (  -0.05297%)
MG Correction to account for finite box:                  0.465887
MG Remaining discrepancy, due to discretization:         -0.194249 (  -0.01559%)
     Trial step:       0.477842936777
             Q1:  -11663.035409585573
 Quadratic coef:       0.026007979535
 Linear coef   :      -0.072755183451
           Qmin:  -11663.039544041954
Quadratic minimum step length (  0.668363155221) accepted
    Initial Ne1:    7192.00061953
      Final Ne1:    7192.00000000

=================== Penalty functional idempotency correction ==================
 RMS occupancy error at iteration   1:  0.000065 (step -0.4998 Ne1=   7192.0000)
            Final RMS occupancy error   :  0.000000 (Ne1=   7192.0000)
               Final occupancy bounds   : [ -0.0000,  1.0000]
================================================================================

    3        -1.166298866238E+04     5.9919E-05     5.4196E-05    -2.0820E-01
MG BCs: +ve charge blocks (gridpoints):     24508 (   16550480).
MG BCs: -ve charge blocks (gridpoints):      8315 (    1050347).
MG BCs:     Elided blocks (gridpoints):    172612 (  173175878).
MG BCs: Computational effort saved:  99.9828%.
MG BCs: Charge after coarse-graining:           -9.0006960.
MG DL_MG: Calling solver with defect correction order = 8
MG DL_MG: Solver finished
MG Hartree energy from (\int phi*rho dr):              1246.037138
MG Hartree energy from (\int eps (grad phi)^2 dr):     1245.377029
MG Discrepancy due to finite box and discretization:     -0.660109 (  -0.05298%)
MG Correction to account for finite box:                  0.465877
MG Remaining discrepancy, due to discretization:         -0.194233 (  -0.01559%)
      ideal mu1:      -0.729952077721
             Q0:  -11663.039640413830
             G0:      -0.035113503569
   RMS gradient:       0.000028763326
MG BCs: +ve charge blocks (gridpoints):     24508 (   16550573).
MG BCs: -ve charge blocks (gridpoints):      8316 (    1050300).
MG BCs:     Elided blocks (gridpoints):    172612 (  173175832).
MG BCs: Computational effort saved:  99.9828%.
MG BCs: Charge after coarse-graining:           -9.0006960.
MG DL_MG: Calling solver with defect correction order = 8
MG DL_MG: Solver finished
MG Hartree energy from (\int phi*rho dr):              1246.148187
MG Hartree energy from (\int eps (grad phi)^2 dr):     1245.488194
MG Discrepancy due to finite box and discretization:     -0.659993 (  -0.05296%)
MG Correction to account for finite box:                  0.465874
MG Remaining discrepancy, due to discretization:         -0.194119 (  -0.01558%)
     Trial step:       0.565130615809
             Q1:  -11663.048348778510
 Quadratic coef:       0.011135351217
 Linear coef   :      -0.019843715895
           Qmin:  -11663.048481020940
Quadratic minimum step length (  0.503544574646) accepted
    Initial Ne1:    7192.00023142
      Final Ne1:    7192.00000000

=================== Penalty functional idempotency correction ==================
 RMS occupancy error at iteration   1:  0.000018 (step -0.4999 Ne1=   7192.0000)
            Final RMS occupancy error   :  0.000000 (Ne1=   7192.0000)
               Final occupancy bounds   : [ -0.0000,  1.0000]
================================================================================

    4        -1.166303964041E+04     2.8763E-05     2.6016E-05    -5.0978E-02
MG BCs: +ve charge blocks (gridpoints):     24508 (   16550548).
MG BCs: -ve charge blocks (gridpoints):      8316 (    1050319).
MG BCs:     Elided blocks (gridpoints):    172612 (  173175838).
MG BCs: Computational effort saved:  99.9828%.
MG BCs: Charge after coarse-graining:           -9.0006960.
MG DL_MG: Calling solver with defect correction order = 8
MG DL_MG: Solver finished
MG Hartree energy from (\int phi*rho dr):              1246.135906
MG Hartree energy from (\int eps (grad phi)^2 dr):     1245.475900
MG Discrepancy due to finite box and discretization:     -0.660005 (  -0.05296%)
MG Correction to account for finite box:                  0.465874
MG Remaining discrepancy, due to discretization:         -0.194131 (  -0.01558%)
      ideal mu1:      -0.730030616552
             Q0:  -11663.048485806445
             G0:      -0.011479796507
   RMS gradient:       0.000016467584
MG BCs: +ve charge blocks (gridpoints):     24508 (   16551072).
MG BCs: -ve charge blocks (gridpoints):      8316 (    1050119).
MG BCs:     Elided blocks (gridpoints):    172612 (  173175514).
MG BCs: Computational effort saved:  99.9828%.
MG BCs: Charge after coarse-graining:           -9.0006959.
MG DL_MG: Calling solver with defect correction order = 8
MG DL_MG: Solver finished
MG Hartree energy from (\int phi*rho dr):              1246.534951
MG Hartree energy from (\int eps (grad phi)^2 dr):     1245.874982
MG Discrepancy due to finite box and discretization:     -0.659969 (  -0.05294%)
MG Correction to account for finite box:                  0.465874
MG Remaining discrepancy, due to discretization:         -0.194095 (  -0.01557%)
     Trial step:       0.533449581082
             Q1:  -11663.051643676707
 Quadratic coef:       0.002966022375
 Linear coef   :      -0.006123892637
           Qmin:  -11663.051646778977
Quadratic minimum step length (  0.550701840472) accepted
    Initial Ne1:    7192.00009489
      Final Ne1:    7192.00000000

=================== Penalty functional idempotency correction ==================
 RMS occupancy error at iteration   1:  0.000009 (step -0.5000 Ne1=   7192.0000)
            Final RMS occupancy error   :  0.000000 (Ne1=   7192.0000)
               Final occupancy bounds   : [ -0.0000,  1.0000]
================================================================================

    5        -1.166304848581E+04     1.6468E-05     1.4895E-05    -8.8454E-03
MG BCs: +ve charge blocks (gridpoints):     24508 (   16551092).
MG BCs: -ve charge blocks (gridpoints):      8316 (    1050114).
MG BCs:     Elided blocks (gridpoints):    172612 (  173175499).
MG BCs: Computational effort saved:  99.9828%.
MG BCs: Charge after coarse-graining:           -9.0006959.
MG DL_MG: Calling solver with defect correction order = 8
MG DL_MG: Solver finished
MG Hartree energy from (\int phi*rho dr):              1246.547873
MG Hartree energy from (\int eps (grad phi)^2 dr):     1245.887905
MG Discrepancy due to finite box and discretization:     -0.659968 (  -0.05294%)
MG Correction to account for finite box:                  0.465874
MG Remaining discrepancy, due to discretization:         -0.194094 (  -0.01557%)
      ideal mu1:      -0.730369881212
             Q0:  -11663.051647715154
             G0:      -0.003485976353
   RMS gradient:       0.000009074791
MG BCs: +ve charge blocks (gridpoints):     24508 (   16551041).
MG BCs: -ve charge blocks (gridpoints):      8316 (    1050136).
MG BCs:     Elided blocks (gridpoints):    172612 (  173175528).
MG BCs: Computational effort saved:  99.9828%.
MG BCs: Charge after coarse-graining:           -9.0006959.
MG DL_MG: Calling solver with defect correction order = 8
MG DL_MG: Solver finished
MG Hartree energy from (\int phi*rho dr):              1246.477332
MG Hartree energy from (\int eps (grad phi)^2 dr):     1245.817369
MG Discrepancy due to finite box and discretization:     -0.659962 (  -0.05295%)
MG Correction to account for finite box:                  0.465872
MG Remaining discrepancy, due to discretization:         -0.194091 (  -0.01557%)
     Trial step:       0.542007072003
             Q1:  -11663.052830410539
 Quadratic coef:       0.000706728451
 Linear coef   :      -0.001889423836
           Qmin:  -11663.052910549000
Quadratic minimum step length (  0.724522324760) accepted
    Initial Ne1:    7192.00004488
      Final Ne1:    7192.00000000

=================== Penalty functional idempotency correction ==================
 RMS occupancy error at iteration   1:  0.000006 (step -0.4999 Ne1=   7192.0000)
            Final RMS occupancy error   :  0.000000 (Ne1=   7192.0000)
               Final occupancy bounds   : [ -0.0000,  1.0000]
================================================================================

    6        -1.166305164772E+04     9.0748E-06     8.2079E-06    -3.1619E-03
MG BCs: +ve charge blocks (gridpoints):     24508 (   16551002).
MG BCs: -ve charge blocks (gridpoints):      8316 (    1050152).
MG BCs:     Elided blocks (gridpoints):    172612 (  173175551).
MG BCs: Computational effort saved:  99.9828%.
MG BCs: Charge after coarse-graining:           -9.0006959.
MG DL_MG: Calling solver with defect correction order = 8
MG DL_MG: Solver finished
MG Hartree energy from (\int phi*rho dr):              1246.453552
MG Hartree energy from (\int eps (grad phi)^2 dr):     1245.793592
MG Discrepancy due to finite box and discretization:     -0.659960 (  -0.05295%)
MG Correction to account for finite box:                  0.465871
MG Remaining discrepancy, due to discretization:         -0.194089 (  -0.01557%)
      ideal mu1:      -0.730296782977
             Q0:  -11663.052910584025
             G0:      -0.001928039993
   RMS gradient:       0.000006750108
MG BCs: +ve charge blocks (gridpoints):     24508 (   16550887).
MG BCs: -ve charge blocks (gridpoints):      8316 (    1050205).
MG BCs:     Elided blocks (gridpoints):    172612 (  173175613).
MG BCs: Computational effort saved:  99.9828%.
MG BCs: Charge after coarse-graining:           -9.0006959.
MG DL_MG: Calling solver with defect correction order = 8
MG DL_MG: Solver finished
MG Hartree energy from (\int phi*rho dr):              1246.397821
MG Hartree energy from (\int eps (grad phi)^2 dr):     1245.737847
MG Discrepancy due to finite box and discretization:     -0.659974 (  -0.05295%)
MG Correction to account for finite box:                  0.465877
MG Remaining discrepancy, due to discretization:         -0.194097 (  -0.01557%)
     Trial step:       0.626654788415
             Q1:  -11663.053341984400
 Quadratic coef:       0.000776815119
 Linear coef   :      -0.001208215494
           Qmin:  -11663.053380382000
Quadratic minimum step length (  0.487332188974) accepted
    Initial Ne1:    7192.00000894
      Final Ne1:    7192.00000000

=================== Penalty functional idempotency correction ==================
 RMS occupancy error at iteration   1:  0.000000 (step -0.5000 Ne1=   7192.0000)
            Final RMS occupancy error   :  0.000000 (Ne1=   7192.0000)
               Final occupancy bounds   : [  0.0000,  1.0000]
================================================================================

    7        -1.166305291058E+04     6.7501E-06     6.1053E-06    -1.2629E-03
MG BCs: +ve charge blocks (gridpoints):     24508 (   16550915).
MG BCs: -ve charge blocks (gridpoints):      8316 (    1050194).
MG BCs:     Elided blocks (gridpoints):    172612 (  173175596).
MG BCs: Computational effort saved:  99.9828%.
MG BCs: Charge after coarse-graining:           -9.0006959.
MG DL_MG: Calling solver with defect correction order = 8
MG DL_MG: Solver finished
MG Hartree energy from (\int phi*rho dr):              1246.410171
MG Hartree energy from (\int eps (grad phi)^2 dr):     1245.750201
MG Discrepancy due to finite box and discretization:     -0.659971 (  -0.05295%)
MG Correction to account for finite box:                  0.465875
MG Remaining discrepancy, due to discretization:         -0.194096 (  -0.01557%)
      ideal mu1:      -0.730221779182
             Q0:  -11663.053380367812
             G0:      -0.001225622223
   RMS gradient:       0.000005381691
MG BCs: +ve charge blocks (gridpoints):     24508 (   16550862).
MG BCs: -ve charge blocks (gridpoints):      8316 (    1050230).
MG BCs:     Elided blocks (gridpoints):    172612 (  173175613).
MG BCs: Computational effort saved:  99.9828%.
MG BCs: Charge after coarse-graining:           -9.0006959.
MG DL_MG: Calling solver with defect correction order = 8
MG DL_MG: Solver finished
MG Hartree energy from (\int phi*rho dr):              1246.376755
MG Hartree energy from (\int eps (grad phi)^2 dr):     1245.716776
MG Discrepancy due to finite box and discretization:     -0.659980 (  -0.05295%)
MG Correction to account for finite box:                  0.465878
MG Remaining discrepancy, due to discretization:         -0.194102 (  -0.01557%)
     Trial step:       0.552620167719
             Q1:  -11663.053914714605
 Quadratic coef:       0.000142956766
 Linear coef   :      -0.000677303558
           Qmin:  -11663.054182603559
Quadratic minimum step length (  1.309107702883) accepted
    Initial Ne1:    7192.00001522
      Final Ne1:    7192.00000000

=================== Penalty functional idempotency correction ==================
 RMS occupancy error at iteration   1:  0.000010 (step -0.4995 Ne1=   7192.0000)
            Final RMS occupancy error   :  0.000000 (Ne1=   7192.0000)
               Final occupancy bounds   : [ -0.0000,  1.0000]
================================================================================

    8        -1.166305338037E+04     5.3817E-06     4.8676E-06    -4.6978E-04
MG BCs: +ve charge blocks (gridpoints):     24508 (   16550836).
MG BCs: -ve charge blocks (gridpoints):      8316 (    1050237).
MG BCs:     Elided blocks (gridpoints):    172612 (  173175632).
MG BCs: Computational effort saved:  99.9828%.
[...]
MG Hartree energy from (\int phi*rho dr):              1202.430971
MG Hartree energy from (\int eps (grad phi)^2 dr):     1202.231177
MG Discrepancy due to finite box and discretization:     -0.199794 (  -0.01662%)
MG Correction to account for finite box:                  0.006384
MG Remaining discrepancy, due to discretization:         -0.193410 (  -0.01608%)
             Q2:  -11696.951166151091
  Cubic LS coeff:       0.953910351666
Predicted energy:  -11696.951166151428
Cubic minimum step length accepted
    Initial Ne1:    7192.00000000
      Final Ne1:    7192.00000000

=================== Penalty functional idempotency correction ==================
 RMS occupancy error at iteration   1:  0.000000 (step -0.5000 Ne1=   7192.0000)
            Final RMS occupancy error   :  0.000000 (Ne1=   7192.0000)
               Final occupancy bounds   : [  0.0000,  1.0000]
================================================================================

    7        -1.169695116615E+04     9.2420E-09     8.3591E-09    -2.6776E-09

Reusing previously generated solute cavity.
MG BCs: +ve charge blocks (gridpoints):     28982 (   18750169).
MG BCs: -ve charge blocks (gridpoints):      8305 (    1020431).
MG BCs:     Elided blocks (gridpoints):    168138 (  171006105).
MG BCs: Computational effort saved:  99.9805%.
MG BCs: Charge after coarse-graining:           -9.0009721.
MG DL_MG: Calling solver with defect correction order = 8
MG DL_MG: Solver finished
MG Hartree energy from (\int phi*rho dr):              1202.430953
MG Hartree energy from (\int eps (grad phi)^2 dr):     1202.231160
MG Discrepancy due to finite box and discretization:     -0.199794 (  -0.01662%)
MG Correction to account for finite box:                  0.006384
MG Remaining discrepancy, due to discretization:         -0.193410 (  -0.01608%)
      ideal mu1:      -0.485407950941
             Q0:  -11696.951166151324
             G0:      -0.000000003267
   RMS gradient:       0.000000012285

Reusing previously generated solute cavity.
MG BCs: +ve charge blocks (gridpoints):     28982 (   18750169).
MG BCs: -ve charge blocks (gridpoints):      8305 (    1020431).
MG BCs:     Elided blocks (gridpoints):    168138 (  171006105).
MG BCs: Computational effort saved:  99.9805%.
MG BCs: Charge after coarse-graining:           -9.0009721.
MG DL_MG: Calling solver with defect correction order = 8
MG DL_MG: Solver finished
MG Hartree energy from (\int phi*rho dr):              1202.430955
MG Hartree energy from (\int eps (grad phi)^2 dr):     1202.231161
MG Discrepancy due to finite box and discretization:     -0.199794 (  -0.01662%)
MG Correction to account for finite box:                  0.006384
MG Remaining discrepancy, due to discretization:         -0.193410 (  -0.01608%)
     Trial step:       0.755385646386
             Q1:  -11696.951166152372
 Quadratic coef:       0.000000001421
 Linear coef   :      -0.000000002468
           Qmin:  -11696.951166152396
Quadratic minimum step length (  0.656092607779) accepted
    Initial Ne1:    7192.00000000
      Final Ne1:    7192.00000000

=================== Penalty functional idempotency correction ==================
 RMS occupancy error at iteration   1:  0.000000 (step -0.5000 Ne1=   7192.0000)
            Final RMS occupancy error   :  0.000000 (Ne1=   7192.0000)
               Final occupancy bounds   : [  0.0000,  1.0000]
================================================================================

    8        -1.169695116615E+04     1.2285E-08     1.1111E-08    -2.6776E-09

Reusing previously generated solute cavity.
MG BCs: +ve charge blocks (gridpoints):     28982 (   18750169).
MG BCs: -ve charge blocks (gridpoints):      8305 (    1020431).
MG BCs:     Elided blocks (gridpoints):    168138 (  171006105).
MG BCs: Computational effort saved:  99.9805%.
MG BCs: Charge after coarse-graining:           -9.0009721.
MG DL_MG: Calling solver with defect correction order = 8
MG DL_MG: Solver finished
MG Hartree energy from (\int phi*rho dr):              1202.430955
MG Hartree energy from (\int eps (grad phi)^2 dr):     1202.231161
MG Discrepancy due to finite box and discretization:     -0.199794 (  -0.01662%)
MG Correction to account for finite box:                  0.006384
MG Remaining discrepancy, due to discretization:         -0.193410 (  -0.01608%)
      ideal mu1:      -0.485407937435
             Q0:  -11696.951166152488
             G0:      -0.000000005948
   RMS gradient:       0.000000011636

Reusing previously generated solute cavity.
MG BCs: +ve charge blocks (gridpoints):     28982 (   18750169).
MG BCs: -ve charge blocks (gridpoints):      8305 (    1020431).
MG BCs:     Elided blocks (gridpoints):    168138 (  171006105).
MG BCs: Computational effort saved:  99.9805%.
MG BCs: Charge after coarse-graining:           -9.0009721.
MG DL_MG: Calling solver with defect correction order = 8
MG DL_MG: Solver finished
MG Hartree energy from (\int phi*rho dr):              1202.430860
MG Hartree energy from (\int eps (grad phi)^2 dr):     1202.231066
MG Discrepancy due to finite box and discretization:     -0.199794 (  -0.01662%)
MG Correction to account for finite box:                  0.006384
MG Remaining discrepancy, due to discretization:         -0.193410 (  -0.01608%)
     Trial step:       0.703990723388
             Q1:  -11696.951166151557
 Quadratic coef:       0.000000005119
 Linear coef   :      -0.000000004187
           Qmin:  -11696.951166153345
Quadratic minimum step length (  0.287938554291) accepted
    Initial Ne1:    7192.00000000
      Final Ne1:    7192.00000000

=================== Penalty functional idempotency correction ==================
 RMS occupancy error at iteration   1:  0.000000 (step -0.5000 Ne1=   7192.0000)
            Final RMS occupancy error   :  0.000000 (Ne1=   7192.0000)
               Final occupancy bounds   : [ -0.0000,  1.0000]
================================================================================

    9        -1.169695116615E+04     1.1636E-08     1.0525E-08    -1.1642E-09

Reusing previously generated solute cavity.
MG BCs: +ve charge blocks (gridpoints):     28982 (   18750169).
MG BCs: -ve charge blocks (gridpoints):      8305 (    1020431).
MG BCs:     Elided blocks (gridpoints):    168138 (  171006105).
MG BCs: Computational effort saved:  99.9805%.
MG BCs: Charge after coarse-graining:           -9.0009721.
MG DL_MG: Calling solver with defect correction order = 8
MG DL_MG: Solver finished
MG Hartree energy from (\int phi*rho dr):              1202.430916
MG Hartree energy from (\int eps (grad phi)^2 dr):     1202.231122
MG Discrepancy due to finite box and discretization:     -0.199794 (  -0.01662%)
MG Correction to account for finite box:                  0.006384
MG Remaining discrepancy, due to discretization:         -0.193410 (  -0.01608%)
      ideal mu1:      -0.485407893258
   10        -1.169695116615E+04     6.5524E-09     5.9265E-09    -4.6566E-10
Finished density kernel iterations (  10)

Writing density kernel to file "host_6561.dkn" ... done


>>> Density kernel optimised for the current NGWF basis:
     ~~~~~~~~~~~~~~~~~~~~~~~~~~~~~~~~~~~~~~~~~~~~~~~~~~~~~~~~~~~
     Total energy                =  -1.16969511661530E+04  Eh
     Estimated bandgap           =   9.7901E-02  Eh
     RMS occupancy error         =   4.0446E-16
     [H,K] commutator            =   5.9265E-09
     Occupancy bounds            = [ -0.000:  1.000]
     ~~~~~~~~~~~~~~~~~~~~~~~~~~~~~~~~~~~~~~~~~~~~~~~~~~~~~~~~~~~




################################################################################
########################### NGWF CG iteration  004 #############################
################################################################################
****** Reciprocal space K.E. preconditioning with k_zero =  3.5000 a0^-1 *******

>>> Checking for convergence of NGWFs: 
           ........................................................
           |         *** NGWF optimisation converged ***          |
           | RMS NGWF gradient =    0.00000186287037              |
           | Criteria satisfied:                                  |
           | -> RMS NGWF gradient lower than set threshold.       |
           ========================================================

Reusing previously generated solute cavity.
MG BCs: +ve charge blocks (gridpoints):     28982 (   18750169).
MG BCs: -ve charge blocks (gridpoints):      8305 (    1020431).
MG BCs:     Elided blocks (gridpoints):    168138 (  171006105).
MG BCs: Computational effort saved:  99.9805%.
MG BCs: Charge after coarse-graining:           -9.0009721.
MG DL_MG: Calling solver with defect correction order = 8
MG DL_MG: Solver finished
MG Hartree energy from (\int phi*rho dr):              1202.430916
MG Hartree energy from (\int eps (grad phi)^2 dr):     1202.231122
MG Discrepancy due to finite box and discretization:     -0.199794 (  -0.01662%)
MG Correction to account for finite box:                  0.006384
MG Remaining discrepancy, due to discretization:         -0.193410 (  -0.01608%)

================================================================================
           ---------------- ENERGY COMPONENTS (Eh) ----------------
           | Kinetic                    :     8557.31998249682511 |
           | Pseudo. (local,OBC,corr'd) :    -5070.39559602936424 |
           | Pseudopotential (non-local):     1404.80189690186080 |
           | Hartree (molecular)        :     1202.43091579612155 |
           | Exchange-correlation       :    -3382.64970278578403 |
           | Ion-ion (open BC)          :   822135.24702938471455 |
           | Smeared ion non-self corr. :  -822087.17745395167731 |
           | Smeared ion self corr.     :   -14457.16956389741972 |
           | Solvent cavitation energy  :        2.28168969745434 |
           | Solute-solvent dis-rep en. :       -1.64036376574236 |
           | Total                      :   -11696.95116615300503 |
           --------------------------------------------------------
           ------ LOCAL ENERGY COMPONENTS FROM MATRIX TRACES ------
           | Pseudopotential (local)    :    -5070.39559602937334 |
           | Hartree                    :    -2002.82569023760675 |
           --------------------------------------------------------
           Integrated density           :     7191.99999999901320
           Integrated density tr(KS)    :     7191.99999999999818
================================================================================


                        <<<<< CALCULATION SUMMARY >>>>>                         
|ITER|    RMS GRADIENT   |     TOTAL ENERGY    |   step   |     Epredicted              
   0     0.00004128561478 -11696.88652390148491   0.615725 -11696.94237765725848        
   1     0.00000946358078 -11696.95074168429710   0.073912 -11696.95109396895350        
   2     0.00000416872408 -11696.95115181675646   0.013573 -11696.95116437024626        
   3     0.00000186287037 -11696.95116615295410  <-- CG                                 

=================== Finished the calculation in solvent ========================
= Adjusting the following parameters: 
= read_denskern: F
= read_tightbox_ngwfs: F
= maxit_pen: 0 (restored to user-specified value)
= restart read filename prefix: ""
= restart write filename prefix: ""
================================================================================

================================================================================
IS: Calculation in solvent completed (NGWFs converged).      

Individual components of total energy in solvent:     hartree           kcal/mol
- Usual non-electrostatic DFT terms:    -12900.02340788078800    -8094886.728462
- Electrostatic fixed charge energy:      1202.43091579612155      754536.775199
- Apolar cavitation energy:                  2.28168969745434        1431.781871
- Apolar dispersion-repulsion energy:       -1.64036376574236       -1029.343782
 -------------------------------------------------------------------------------
- Total energy in solvent:              -11696.95116615295410    -7339947.515174

Components of total energy in solvent:                hartree           kcal/mol
- Usual non-electrostatic DFT terms:    -12900.02340788078800    -8094886.728462
- Electrostatic energy:                   1202.43091579612155      754536.775199
- Apolar energy terms:                       0.64132593171198         402.438089
 -------------------------------------------------------------------------------
- Total energy in solvent:              -11696.95116615295410    -7339947.515174

Calculation of free energy of solvation:              hartree           kcal/mol
- Total energy in solvent:         (+)  -11696.95116615295410    -7339947.515174
- Total energy in vacuum:          (-)  -11693.12803087406792    -7337548.461617
 -------------------------------------------------------------------------------
- Total free energy of solvation:           -3.82313527888618       -2399.053556

Components of polar term in f.e. of solvation:        hartree           kcal/mol
- Electrostatic:                            -4.45760128437973       -2797.186977
- Change in nonelectrostatic DFT terms:     -0.00685992621948          -4.304669
 -------------------------------------------------------------------------------
- Polar term in f.e. of solvation:          -4.46446121059921       -2801.491645

Components of free energy of solvation:               hartree           kcal/mol
- Polar term in f.e. of solvation: (+)      -4.46446121059921       -2801.491645
- Apolar (cavitation, dis., rep.): (+)       0.64132593171198         402.438089
 -------------------------------------------------------------------------------
- Total free energy of solvation:           -3.82313527888723       -2399.053556
================================================================================


------------------------------ TIMING INFORMATION ------------------------------
AVERAGE TIME:   38223.278s on     60 node(s)                                    
TOTAL TIME:     38223.278s on     60 node(s)                                    
================= AVERAGE TIMINGS FROM ALL NODES (CUMULATIVE) ==================
|| TAG                                    #calls    cpu time   %total  Gflops ||
|| work_imbalance                       :     1        0.01s   0.000%  ------ ||
|| sparse_set_to_garbage                :   206        0.04s   0.000%  ------ ||
|| parallel_prepare_fd_halos_request    :  2193        0.04s   0.000%  ------ ||
|| ngwfs_initialise_from_radial         :     1        0.09s   0.000%  ------ ||
|| basis_extract_function_from_box      :  4011        0.18s   0.000%  ------ ||
|| parallel_prepare_fd_halos_alloc      :  2193        0.19s   0.000%  ------ ||
|| parallel_prepare_fd_halos_satisfy    :  2193        0.72s   0.002%  ------ ||
|| pseudopotentials_nonlocal_mat        :    35        2.66s   0.007%  ------ ||
|| openbc_locps_radial                  :     1        3.30s   0.009%  ------ ||
|| density_init_guess_real              :     1        3.54s   0.009%  ------ ||
|| restart_kernel_read                  :     1        4.25s   0.011%  ------ ||
|| restart_ngwfs_tightbox_input         :     1        9.36s   0.024%  ------ ||
|| parallel_prepare_fd_halos_comms_imbal:  2193       12.31s   0.032%  ------ ||
|| parallel_prepare_fd_halos_clear      :  2193       20.81s   0.054%  ------ ||
|| sparse_init                          :     2       22.25s   0.058%  ------ ||
|| parallel_prepare_fd_halos_comms_wait :  2193       25.34s   0.066%  ------ ||
|| palser_mano_kernel_optimise          :     1       29.16s   0.076%  ------ ||
|| projectors_func_ovlp_box             :    35       29.71s   0.078%  ------ ||
|| function_ops_brappd_ketppd           :    35       32.02s   0.084%  ------ ||
|| projectors_init_fftbox_recip         :   161       36.63s   0.096%  ------ ||
|| basis_copy_function_to_box           : 65483       47.77s   0.125%  ------ ||
|| pseudo_make_structure_factor         :     2       51.08s   0.134%  ------ ||
|| ngwf_gradient_coeffs                 :    18       54.87s   0.144%  ------ ||
|| parallel_prepare_fd_halos            :  2193       59.42s   0.155%  ------ ||
|| fourier_apply_box_pair               :  5807       59.80s   0.156% 562.218 ||
|| sparse_embed_hotelling_invert_embed  :    35       84.30s   0.221%  ------ ||
|| integrals_kinetic                    :    35      163.11s   0.427%  ------ ||
|| finite_difference_derivative         :  2193      176.34s   0.461%  ------ ||
|| restart_kernel_write                 :    19      177.71s   0.465%  ------ ||
|| projectors_gradient_batch            :   126      189.94s   0.497%  ------ ||
|| sparse_trace                         :  5713      212.67s   0.556%  ------ ||
|| basis_dot_function_with_box          : 9.888M     218.37s   0.571%  ------ ||
|| openbc_locps_on_grid                 :     2      259.74s   0.680%  ------ ||
|| kernel_purify                        :   558      326.74s   0.855%  ------ ||
|| basis_add_function_to_box            : 20.68M     470.75s   1.232%  ------ ||
|| lnv_gradient_norm                    :   180      487.95s   1.277%  ------ ||
|| hamiltonian_energy_components        :     4      517.30s   1.353%  ------ ||
|| kernel_fix                           :   180      537.86s   1.407%  ------ ||
|| integrals_locpot_mat_els_batch       :  1323      792.02s   2.072%  ------ ||
|| ngwf_gradient_build_batch            :   126      828.51s   2.168%  ------ ||
|| density_batch_row_sums               :  2548     1105.16s   2.891%  ------ ||
|| ngwf_gradient_batch                  :   126     1129.92s   2.956%  ------ ||
|| ngwf_gradient_lnv                    :    18     1272.51s   3.329%  ------ ||
|| cell_grid_deposit_box_real           : 41912     1429.13s   3.739%  ------ ||
|| fourier_apply_cell_forward           : 10221     1595.11s   4.173%  87.221 ||
|| restart_ngwfs_tightbox_output        :    16     1691.21s   4.425%  ------ ||
|| fourier_apply_cell_backward          : 10953     1790.42s   4.684%  83.272 ||
|| cell_grid_extract_box_real           : 46112     1797.96s   4.704%  ------ ||
|| sparse_product                       :  7309     2004.58s   5.244%  ------ ||
|| density_fftbox_deposit_to_cell       : 39676     2090.09s   5.468%  ------ ||
|| potential_apply_to_ngwf_batch        :  1323     3935.06s  10.295%  ------ ||
|| density_fftbox_interpolate_multiply  : 39676     4162.67s  10.890%  ------ ||
|| xc_energy_potential                  :   365     4450.30s  11.643%  ------ ||
|| integrals_locpot_dbl_grid            :   189     4749.59s  12.426%  ------ ||
|| fourier_apply_box                    : 136.4k    5109.03s  13.366% 749.135 ||
|| multigrid_prepare_bound_cond         :   365     5152.72s  13.481%  ------ ||
|| density_batch_interp_deposit         :  2548     7181.72s  18.789%  ------ ||
|| nlxc_vdw_energy                      :   730     7220.59s  18.891%  ------ ||
|| dl_mg_solver_calls                   :   365     8122.60s  21.250%  ------ ||
|| density_on_dbl_grid                  :   364     8640.87s  22.606%  ------ ||
|| multigrid_calculate_hartree          :   365    13506.14s  35.335%  ------ ||
|| hamiltonian_lhxc_calculate           :   360    26556.02s  69.476%  ------ ||
|| lnv_denskernel_optimise_cg           :    18    32138.85s  84.082%  ------ ||
|| ngwf_cg_optimise                     :     2    37315.64s  97.625%  ------ ||
|| total_time                           :     1    38223.28s 100.000%  ------ ||
================================================================================
Overhead of generating timer report: 
- 0 ms averaging over threads,
- 16 ms ensuring consistency across MPI ranks,
- 1 ms printing in order.

Job completed: 03-02-2020 06:53 (-0000)

Application 38807753 resources: utime ~7441109s, stime ~255352s, Rss ~3671360, inblocks ~370500234, outblocks ~74367170
