 +---------------------------------------------------------------+
 |                                                               |
 |        ####### #     # ####### ####### ####### ######         |
 |        #     # ##    # #          #    #       #     #        |
 |        #     # # #   # #          #    #       #     #        |
 |        #     # #  #  # #####      #    #####   ######         |
 |        #     # #   # # #          #    #       #              |
 |        #     # #    ## #          #    #       #              |
 |        ####### #     # #######    #    ####### #              |
 |                                                               |
 |        Linear-Scaling Ab Initio Total Energy Program          |
 |                                                               |
 |          Release for academic collaborators of ODG            |
 |                                             Version 5.3.2.6.  |
 |                                                               |
 +---------------------------------------------------------------+
 |                                                               |
 |  Authors:                                                     |
 |  Jacek Dziedzic, Peter D. Haynes, Nicholas D. M. Hine,        |
 |  Arash. A. Mostofi, Mike C. Payne and Chris-Kriton Skylaris   |
 |                                                               |
 |  Contributors:                                                |
 |  J. Aarons, L. Andrinopoulos, P. W. Avraam, R. A. Bell,       |
 |  A. Bhandari, G. A. Bramley, R. J. Charlton, S. J. Clark,     |
 |  R. J. Clements, G. C. Constantinescu, F. Corsetti,           |
 |  N. Corsini, O. Dieguez, S. M. M. Dubois, K. K. B. Duff,      |
 |  J. M. Escartin, A. Greco, H. Helal, Q. O. Hill, L. P. Lee,   |
 |  J.-H. Li, E. B. Linscott, G. Moynihan, D. D. O`Regan,        |
 |  O. K. Okan, M. J. S. Phipps, C. J. Pickard,                  |
 |  J. C. A. Prentice, M. I. J. Probert, L. E. Ratcliff,         |
 |  M. Robinson, A. Ruiz Serrano, J. S. Spencer, E. W. Tait,     |
 |  G. Teobaldi, D. Turban, V. Vitale, K. A. Wilkinson,          |
 |  C. Weber, J. C. Womack, N. Yeung and T. J. Zuehlsdorff       |
 |                                                               |
 |                                   Copyright (c) 2004-2019     |
 |                                                               |
 |  Please cite:                                                 |
 |  "Introducing ONETEP: Linear-scaling density functional       |
 |   simulations on parallel computers".                         |
 |   C.-K. Skylaris, P. D. Haynes, A. A. Mostofi, M. C. Payne.   |
 |   J. Chem. Phys. 122 084119 (2005).                           |
 |                                                               |
 |          in all publications arising from your use of ONETEP. |
 |                                                               |
 +---------------------------------------------------------------+
 |                                                               |
 |   ONETEP is based on developments described in the following  |
 |   publications:                                               |
 |                                                               |
 |  "Nonorthogonal generalized Wannier function pseudopotential  |
 |   plane-wave method".                                         |
 |   C.-K. Skylaris, A. A. Mostofi, P. D. Haynes, O. Dieguez,    |
 |   M. C. Payne.                                                |
 |   Phys. Rev. B 66 035119 (2002).                              |
 |                                                               |
 |  "Preconditioned iterative minimization for linear-scaling    |
 |   electronic structure calculations".                         |
 |   A. A. Mostofi, P. D. Haynes, C.-K. Skylaris, M. C. Payne.   |
 |   J. Chem. Phys. 119(17), pp.8842-8848 (2003).                |
 |                                                               |
 |  "Total-energy calculations on a real space grid with         |
 |   localized functions and a plane-wave basis".                |
 |   A. A. Mostofi, C.-K. Skylaris, P. D. Haynes, M. C. Payne.   |
 |   Comput. Phys. Commun. 147, pp.788-802 (2002).               |
 |                                                               |
 |  "Accurate kinetic energy evaluation in electronic structure  |
 |   calculations with localized functions on real space grids"  |
 |   C.-K. Skylaris, A. A. Mostofi, P. D. Haynes, C. J. Pickard, |
 |   M. C. Payne.                                                |
 |   Comput. Phys. Commun. 140, pp.315-322 (2001).               |
 |                                                               |
 |  "Accurate ionic forces and geometry optimization in linear-  |
 |   scaling density-functional theory with local orbitals"      |
 |   N. D. M. Hine, M. Robinson, P. D. Haynes, C.-K. Skylaris,   |
 |   M. C. Payne, and A. A. Mostofi.                             |
 |   Phys. Rev. B 83 195102 (2011).                              |
 |                                                               |
 +---------------------------------------------------------------+

Job started: 07-04-2020 06:45 (+0100)
 
Reading parameters from file "host_33161.dat" ...... done

If your calculation crashes here, before "Checking processes and threads..."
is displayed, then your stack size is insufficient.
If so, use "ulimit -s unlimited" at runtime.
You can disable this check with "check_stack_size F".

Checking processes and threads...
   Determining the default number of threads...
      No default threads set at compilation time: defaulting to 1.
      OpenMP library call suggests 4 threads.
      Hybrid MPI-OpenMP compilation detected.
      Number of MPI processes > 1.
      OMP_NUM_THREADS environment variable present and
      its value matches the one obtained from the OpenMP library call.
      Using this value as default.
      Default threads: 4
      Default applies to threads_max and threads_num_fftboxes.
      Settings in the input file override this default.
   ... done

   Running with 60 MPI processes.
   There are 6 MPI processes running on the same node as the root process.
   Each MPI process is using: 
               1 threads for simulation cell FFTs.
               1 threads for parallel FFT box operations.
               4 threads for loops over batched FFT box operations.
               4 threads in other parallel regions.
... done

Basic input checks...... done

Reading geometry and species blocks from file "host_33161.dat" ...
  <species_atomic_set> block not found: NGWF initialisation set to SOLVE
IS: Dielectric excluded regions:
    - NONE.
    
  Number of PPD points along a3 set to 1.  This is 
  the default value, it may have been provided also in the input file.
... done
 Writing xyz coordinates to file "host_33161.xyz" ... done


--------------------------------------------------------------------------------
---------------------------------- INPUT FILE ----------------------------------
--------------------------------------------------------------------------------

cutoff_energy       : 800 eV                                                    
xc_functional VV10                                                              
task SINGLEPOINT                                                                
write_xyz true                                                                  
output_detail VERBOSE                                                           
ngwf_threshold_orig : 0.000002                                                  
kernel_cutoff       : 1000                                                      
k_zero              : 3.5                                                       
elec_cg_max 0                                                                   
occ_mix 1.0                                                                     
dispersion 0                                                                    
maxit_ngwf_cg 40                                                                
minit_lnv 10                                                                    
maxit_lnv 10                                                                    
write_denskern T                                                                
write_tightbox_ngwfs T                                                          
charge 9                                                                        
is_implicit_solvent T                                                           
is_auto_solvation T                                                             
is_include_apolar T                                                             
is_smeared_ion_rep T                                                            
is_solvent_surf_tension 4.7624E-5 Ha/bohr**2                                    
is_apolar_scaling_factor 0.281075                                               
is_solvation_beta 1.3                                                           
is_density_threshold 0.00035                                                    
is_bulk_permittivity 78.54                                                      
is_dielectric_model fix_initial                                                 
is_smeared_ion_width 0.8                                                        
mg_defco_fd_order 8                                                             
is_bc_coarseness 10                                                             
is_bc_surface_coarseness 1                                                      
fine_grid_scale 2.0                                                             
%block species                                                                  
N   N   7 4 8.0                                                                 
H   H   1 1 8.0                                                                 
C   C   6 4 8.0                                                                 
S   S  16 9 8.0                                                                 
O   O   8 4 8.0                                                                 
%endblock species                                                               
%block species_pot                                                              
N   N_00.recpot                                                                 
H   H_04.recpot                                                                 
C   C_01.recpot                                                                 
S   S_00.recpot                                                                 
O   O_02.recpot                                                                 
%endblock species_pot                                                           
%block lattice_cart                                                             
139.252   0.000   0.000                                                         
0.000 142.425   0.000                                                           
0.000   0.000   162.84                                                          
%endblock lattice_cart                                                          
%block positions_abs                                                            
     Hash =  -000004017684792962560460
%endblock positions_abs                                                         

--------------------------------------------------------------------------------
-------------------------------- END INPUT FILE --------------------------------
--------------------------------------------------------------------------------


 
 ESDF WARNING(1): "kernelcutoff" (esdf_physical) has no units. Assume "bohr".
 ESDF WARNING(2): "kzero" (esdf_physical) has no units. Assume "1/bohr".
 ESDF WARNING(3
 ): "issmearedionwidth" (esdf_physical) has no units. Assume "bohr".
<<<<<<<<<<<<<<<<<<<<<<<<<<<<<<<<< Full system >>>>>>>>>>>>>>>>>>>>>>>>>>>>>>>>>>
<<<<<<<<<<<<<<<<<<<<<<<<< Pseudopotential information >>>>>>>>>>>>>>>>>>>>>>>>>>
File: N_00.recpot [ 2001 points up to Gmax=  52.9 (1/bohr)]
  Atomic number:  7;  ionic charge:  5.000000
    Shell 1: l = 0; rc = 1.48 bohr
File: H_04.recpot [ 2001 points up to Gmax=  52.9 (1/bohr)]
  Atomic number:  1;  ionic charge:  1.000000
    Local potential
File: C_01.recpot [ 2001 points up to Gmax=  52.9 (1/bohr)]
  Atomic number:  6;  ionic charge:  4.000000
    Shell 1: l = 0; rc = 1.48 bohr
File: S_00.recpot [ 2001 points up to Gmax=  52.9 (1/bohr)]
  Atomic number: 16;  ionic charge:  6.000000
    Shell 1: l = 0; rc = 1.90 bohr
    Shell 2: l = 2; rc = 1.84 bohr
File: O_02.recpot [ 2001 points up to Gmax=  52.9 (1/bohr)]
  Atomic number:  8;  ionic charge:  6.000000
    Shell 1: l = 0; rc = 1.31 bohr
<<<<<<<<<<<<<<<<<<<<<<<<<<<<<<<<<<<<<<<<>>>>>>>>>>>>>>>>>>>>>>>>>>>>>>>>>>>>>>>>

-------------------------- Atom counting information ---------------------------
Symbol    Natoms    Nngwfs    Nprojs
  N        236       944       236
  H       1311      1311         0
  C        810      3240       810
  S          6        54        36
  O        239       956       239
.......   ......    ......    ......
Totals:   2602      6505      1321
--------------------------------------------------------------------------------

=============================== PSINC grid sizes ===============================
                      Simulation cell:  275 x 280 x 320
                              FFT-box:   99 x  99 x  99
                                  PPD:    5 x   5 x   1
Grid space d1=  0.506370909091a0 (KE cutoff=  29.62556Eh = 806.15239eV)
Grid space d2=  0.508660714286a0 (KE cutoff=  29.35943Eh = 798.91072eV)
Grid space d3=  0.508875000000a0 (KE cutoff=  29.33471Eh = 798.23802eV)
================================================================================

********************* Fourier parallelisation information **********************
       Coarse grid (whole simulation cell) dimensions:    275   280   320
          Real-space ('12') slabs/node (min max mean):      5     6     5
         Recip-space ('23') slabs/node (min max mean):      2     3     2
********************************************************************************

********************* Fourier parallelisation information **********************
       Double grid (whole simulation cell) dimensions:    550   560   640
          Real-space ('12') slabs/node (min max mean):     10    11    10
         Recip-space ('23') slabs/node (min max mean):      4     5     4
********************************************************************************
ONETEP fine grid is 550 x 560 x 640 gridpoints, 139.2520 x 142.4250 x 162.8400 bohr.
FD multigrid is     545 x 553 x 633 gridpoints, 137.9861 x 140.6447 x 161.0589 bohr.


Calculating local pseudopotential in open BC on a radial grid ...
Discrepancy between calculated realspace psloc and -Z/x on [5a0,257.280a0]:
max |rel. diff| # avg |rel. diff| #  avg rel. diff #  f # pseudopotential file
 0.000256370913    0.000003612608   0.000000072509   55  'N_00.recpot'
 0.000395389207    0.000016224277  -0.000000076597   55  'H_04.recpot'
 0.000377360759    0.000017565724   0.000000149252   55  'C_01.recpot'
 0.000469715301    0.000020587835   0.000000455518   55  'S_00.recpot'
 0.000665442002    0.000026079317   0.000000158685   55  'O_02.recpot'
... done

Atom SCF Calculation for N  : Z (AE atom) =   7 : Z (PS atom) =   5
Config String:
Orbitals (num,occ):  2     2.00 3.00
Orbitals   (num,l):  2        0    1
Real-space Grid (nr,dr,rmax): 1203    0.0066555740    8.0000000000
Spherical Bessel Basis (nsws,lmax,cutoff):   47    1  176.3951722778
Confining potential (l,width,scale):  0    3.0000000000  100.0000000000
Confining potential (l,width,scale):  1    3.0000000000  100.0000000000
  1         -4.7366890484   -3.4501654188    7.0523828109   -1.9619316308
  2         -9.7225420322   -2.0763080851    8.3068355706   -2.2908832437
  3         -9.7134243553   -2.1270543915    8.2534567806   -2.2819809971
  4         -9.7235185949   -2.1427582218    8.2369947390   -2.2802814234
  5         -9.7258373845   -2.1477905863    8.2317116314   -2.2798536235
  6         -9.7268932325   -2.1503512400    8.2290229806   -2.2796830099
  7         -9.7273189469   -2.1516634231    8.2276451699   -2.2796169657
  8         -9.7274675212   -2.1523365544    8.2269384796   -2.2795940092
  9         -9.7275041773   -2.1526817003    8.2265762312   -2.2795881371
 10         -9.7275008637   -2.1528585007    8.2263907413   -2.2795884060
 11         -9.7274868305   -2.1529489544    8.2262958841   -2.2795903922
 12         -9.7274755655   -2.1529859230    8.2262571347   -2.2795920452
 13         -9.7274662327   -2.1530083995    8.2262335832   -2.2795934369
 14         -9.7274589439   -2.1530220534    8.2262192809   -2.2795945372
 15         -9.7274534633   -2.1530303399    8.2262106039   -2.2795953734
 16         -9.7274494492   -2.1530353634    8.2262053452   -2.2795959920
 17         -9.7274465654   -2.1530384053    8.2262021621   -2.2795964406
 18         -9.7274445237   -2.1530402447    8.2262002378   -2.2795967611
 19         -9.7274430947   -2.1530413553    8.2261990762   -2.2795969874
 20         -9.7274421038   -2.1530420249    8.2261983762   -2.2795971458
 21         -9.7274414219   -2.1530424277    8.2261979551   -2.2795972557
 22         -9.7274409555   -2.1530426696    8.2261977024   -2.2795973315
 23         -9.7274406382   -2.1530428144    8.2261975510   -2.2795973835
 24         -9.7274404232   -2.1530429010    8.2261974606   -2.2795974190
 25         -9.7274402783   -2.1530429525    8.2261974067   -2.2795974432
 26         -9.7274401808   -2.1530429831    8.2261973748   -2.2795974596
Atom SCF converged after  26 iterations to a total energy of     -9.72744018

Atom SCF Calculation for H  : Z (AE atom) =   1 : Z (PS atom) =   1
Config String:
Orbitals (num,occ):  1     1.00
Orbitals   (num,l):  1        0
Real-space Grid (nr,dr,rmax): 1203    0.0066555740    8.0000000000
Spherical Bessel Basis (nsws,lmax,cutoff):   47    0  176.3951722778
Confining potential (l,width,scale):  0    3.0000000000  100.0000000000
  1         -0.3178661827   -0.2469879004    0.2820953124   -0.2487802071
  2         -0.3961824611   -0.2455070831    0.2902209900   -0.2567664324
  3         -0.4406462424   -0.2424227551    0.2948173255   -0.2622129794
  4         -0.4569739054   -0.2416771342    0.2960118236   -0.2639986016
  5         -0.4627745219   -0.2416114401    0.2961916694   -0.2644992007
  6         -0.4648634749   -0.2416666130    0.2961598921   -0.2646237065
  7         -0.4656347011   -0.2417155160    0.2961132802   -0.2646490719
  8         -0.4659271144   -0.2417438448    0.2960836537   -0.2646515522
  9         -0.4660407254   -0.2417580788    0.2960682004   -0.2646501482
 10         -0.4660857867   -0.2417647566    0.2960608087   -0.2646488305
 11         -0.4661039568   -0.2417677717    0.2960574330   -0.2646480606
 12         -0.4661113773   -0.2417691018    0.2960559329   -0.2646476727
 13         -0.4661144368   -0.2417696800    0.2960552775   -0.2646474903
 14         -0.4661157072   -0.2417699291    0.2960549942   -0.2646474079
 15         -0.4661162374   -0.2417700356    0.2960548727   -0.2646473715
 16         -0.4661164596   -0.2417700810    0.2960548208   -0.2646473556
 17         -0.4661165529   -0.2417701003    0.2960547987   -0.2646473488
Atom SCF converged after  17 iterations to a total energy of     -0.46611655

Atom SCF Calculation for C  : Z (AE atom) =   6 : Z (PS atom) =   4
Config String:
Orbitals (num,occ):  2     2.00 2.00
Orbitals   (num,l):  2        0    1
Real-space Grid (nr,dr,rmax): 1203    0.0066555740    8.0000000000
Spherical Bessel Basis (nsws,lmax,cutoff):   47    1  176.3951722778
Confining potential (l,width,scale):  0    3.0000000000  100.0000000000
Confining potential (l,width,scale):  1    3.0000000000  100.0000000000
  1         -5.2812238291   -1.3293161250    4.5135249990   -1.4716766231
  2         -5.3996591362   -1.3542148509    4.4876064308   -1.4645117417
  3         -5.4111847148   -1.3757224423    4.4645718036   -1.4593107263
  4         -5.4199203659   -1.3833334895    4.4563636676   -1.4579885221
  5         -5.4226876204   -1.3865104950    4.4529090432   -1.4575385943
  6         -5.4235070726   -1.3878131251    4.4514866831   -1.4573882877
  7         -5.4237271252   -1.3883401868    4.4509094528   -1.4573411661
  8         -5.4237693051   -1.3885521813    4.4506766230   -1.4573281030
  9         -5.4237656430   -1.3886371046    4.4505830704   -1.4573255254
 10         -5.4237547927   -1.3886709976    4.4505456041   -1.4573257244
 11         -5.4237478594   -1.3886817763    4.4505336403   -1.4573262476
 12         -5.4237429748   -1.3886873440    4.4505274417   -1.4573266921
 13         -5.4237397042   -1.3886902144    4.4505242350   -1.4573270222
 14         -5.4237375865   -1.3886916908    4.4505225792   -1.4573272507
 15         -5.4237362473   -1.3886924482    4.4505217259   -1.4573274021
 16         -5.4237354152   -1.3886928356    4.4505212873   -1.4573274996
 17         -5.4237349050   -1.3886930331    4.4505210623   -1.4573275610
 18         -5.4237345954   -1.3886931333    4.4505209473   -1.4573275991
 19         -5.4237344092   -1.3886931840    4.4505208887   -1.4573276224
 20         -5.4237342980   -1.3886932094    4.4505208590   -1.4573276366
 21         -5.4237342320   -1.3886932221    4.4505208440   -1.4573276451
Atom SCF converged after  21 iterations to a total energy of     -5.42373423

Atom SCF Calculation for S  : Z (AE atom) =  16 : Z (PS atom) =   6
Config String:
Orbitals (num,occ):  3     2.00 4.00 0.00
Orbitals   (num,l):  3        0    1    2
Real-space Grid (nr,dr,rmax): 1203    0.0066555740    8.0000000000
Spherical Bessel Basis (nsws,lmax,cutoff):   47    2  176.3951722778
Confining potential (l,width,scale):  0    3.0000000000  100.0000000000
Confining potential (l,width,scale):  1    3.0000000000  100.0000000000
Confining potential (l,width,scale):  2    3.0000000000  100.0000000000
  1        -12.4916237786   -1.0485914554   10.1554312477   -2.4822447765
  2         -9.9747083603   -2.4807597367    8.3138131863   -2.0618837268
  3        -10.1811370131   -2.3153496392    8.4906092179   -2.1137756843
  4        -10.1856385898   -2.2984912006    8.5093862195   -2.1218167101
  5        -10.1891317560   -2.2894783333    8.5195006030   -2.1261392389
  6        -10.1911142562   -2.2849160124    8.5246320974   -2.1283733378
  7        -10.1921506977   -2.2826473329    8.5271859473   -2.1295140514
  8        -10.1926851273   -2.2815219985    8.5284534218   -2.1300957983
  9        -10.1929632671   -2.2809620806    8.5290843811   -2.1303933136
 10        -10.1931100895   -2.2806822783    8.5293998452   -2.1305460626
 11        -10.1931885828   -2.2805418782    8.5295582201   -2.1306248009
 12        -10.1932309625   -2.2804711729    8.5296380158   -2.1306655459
 13        -10.1932540142   -2.2804354512    8.5296783476   -2.1306867097
 14        -10.1932666242   -2.2804173494    8.5296987927   -2.1306977435
 15        -10.1932735535   -2.2804081489    8.5297091868   -2.1307035175
 16        -10.1932773756   -2.2804034581    8.5297144867   -2.1307065505
 17        -10.1932794908   -2.2804010586    8.5297171976   -2.1307081499
 18        -10.1932806648   -2.2803998268    8.5297185890   -2.1307089965
 19        -10.1932813181   -2.2803991920    8.5297193057   -2.1307094466
 20        -10.1932816826   -2.2803988634    8.5297196763   -2.1307096867
 21        -10.1932818864   -2.2803986926    8.5297198688   -2.1307098154
 22        -10.1932820006   -2.2803986034    8.5297199692   -2.1307098847
 23        -10.1932820648   -2.2803985565    8.5297200219   -2.1307099221
Atom SCF converged after  23 iterations to a total energy of    -10.19328206

Atom SCF Calculation for O  : Z (AE atom) =   8 : Z (PS atom) =   6
Config String:
Orbitals (num,occ):  2     2.00 4.00
Orbitals   (num,l):  2        0    1
Real-space Grid (nr,dr,rmax): 1203    0.0066555740    8.0000000000
Spherical Bessel Basis (nsws,lmax,cutoff):   47    1  176.3951722778
Confining potential (l,width,scale):  0    3.0000000000  100.0000000000
Confining potential (l,width,scale):  1    3.0000000000  100.0000000000
  1         -1.9497477053   -7.5870966769   10.1554312477   -2.4822447765
  2        -15.9466298225   -3.1778351734   13.6353006614   -3.2931224232
  3        -16.0387051750   -3.0909030611   13.7305651010   -3.3194522996
  4        -15.9025031450   -3.1083023605   13.7128101414   -3.3180850501
  5        -15.8912953362   -3.1033022259   13.7185404266   -3.3206942093
  6        -15.8793912992   -3.1043100674   13.7175820250   -3.3209366960
  7        -15.8748748605   -3.1043975610   13.7175531476   -3.3211845618
  8        -15.8725354084   -3.1044655610   13.7175148333   -3.3213149154
  9        -15.8713193866   -3.1045129589   13.7174824743   -3.3213832909
 10        -15.8706863385   -3.1045436851   13.7174593895   -3.3214192053
 11        -15.8703562731   -3.1045627330   13.7174442347   -3.3214381098
 12        -15.8701839150   -3.1045741887   13.7174347673   -3.3214480859
 13        -15.8700937727   -3.1045809294   13.7174290448   -3.3214533647
 14        -15.8700465571   -3.1045848305   13.7174256662   -3.3214561658
 15        -15.8700217888   -3.1045870593   13.7174237063   -3.3214576563
 16        -15.8700087767   -3.1045883194   13.7174225849   -3.3214584516
 17        -15.8700019307   -3.1045890258   13.7174219502   -3.3214588771
 18        -15.8699983237   -3.1045894190   13.7174215942   -3.3214591053
 19        -15.8699964206   -3.1045896366   13.7174213960   -3.3214592281
 20        -15.8699954151   -3.1045897563   13.7174212864   -3.3214592942
 21        -15.8699948832   -3.1045898219   13.7174212260   -3.3214593299
 22        -15.8699946014   -3.1045898577   13.7174211930   -3.3214593493
 23        -15.8699944520   -3.1045898771   13.7174211750   -3.3214593597
 24        -15.8699943726   -3.1045898877   13.7174211652   -3.3214593654
Atom SCF converged after  24 iterations to a total energy of    -15.86999437

========================== Calculation in vacuum ==============================
= Adjusting the following parameters: 
= is_implicit_solvent: F
= is_include_apolar: F
= write_denskern: T
= write_tightbox_ngwfs: T
= restart read filename prefix: ""
= restart write filename prefix: "vacuum_"
===============================================================================

Determining parallel strategy ...
... using space-filling curve
... NGWF load balancing: max    109;  min    108;  average    108
... Projector load balancing: max     25;  min     21;  average     22
... done
Calculating direct Ion-Ion energy ...
Ion-Ion Energy        :    829158.89391551562585
Basis initialisation ...... NGWF spheres initialised
... Projector spheres initialised
... NGWF tight boxes initialised
... Tight-boxes gathered
... NGWF basis size (local,global):    1377468  82740635
... Nonlocal pseudopotential projector initialisation
... done

========================== Sparse matrix information ===========================
                        Overlap matrix filling:   6.81%
                        Density kernel filling: 100.00%
              NGWF-Proj overlap matrix filling:   1.79%
                    Hamiltonian matrix filling:   7.70%
                  NGWF diagonal matrix filling:   0.05%
                             KS matrix filling: 100.00% 
                           KSKS matrix filling: 100.00% 
================================================================================

Sparse matrix initialisation ... done

Generating smeared ion density ... done
Smeared ion self correction:     -14457.169564
Smeared ion non-self correction: -829110.805250
NGWF initialisation ...... done
============ Calculation of NGWF S^-1 using Hotelling algorithm ================ 
         Iteration  |  Frobenius norm and Maximum abs value    (of I-S*S_n^-1)   
               1       0.78439117E+02     0.98213511E+00
               2       0.76557009E+02     0.96477806E+00
               3       0.73516618E+02     0.93147243E+00
               4       0.69208832E+02     0.86983894E+00
               5       0.63861388E+02     0.76433415E+00
               6       0.57875104E+02     0.70451988E+00
               7       0.51883268E+02     0.66892994E+00
               8       0.46338193E+02     0.64268669E+00
               9       0.40209597E+02     0.60181212E+00
              10       0.31842572E+02     0.52952644E+00
              11       0.21222303E+02     0.42074549E+00
              12       0.10712389E+02     0.27862965E+00
              13       0.34686750E+01     0.12589123E+00
              14       0.53274320E+00     0.34764279E-01
              15       0.24324375E-01     0.32499207E-02
              16       0.12710640E-03     0.29570850E-04
              17       0.77103844E-08     0.24797022E-08
              18       0.88330973E-13     0.55511151E-14
================================================================================
Calculating local pseudopotential in open BC on the fine real space grid ...
... done

MG BCs: +ve charge blocks (gridpoints):     19723 (   15467233).
MG BCs: -ve charge blocks (gridpoints):      7882 (    1057002).
MG BCs:     Elided blocks (gridpoints):    177397 (  174252470).
MG BCs: Computational effort saved:  99.9855%.
MG BCs: Charge after coarse-graining:           -9.0002163.
MG DL_MG: Calling solver with defect correction order = 8
MG DL_MG: Solver finished
MG Hartree energy from (\int phi*rho dr):              1452.219684
MG Hartree energy from (\int eps (grad phi)^2 dr):     1451.593183
MG Discrepancy due to finite box and discretization:     -0.626501 (  -0.04314%)
MG Correction to account for finite box:                  0.463456
MG Remaining discrepancy, due to discretization:         -0.163044 (  -0.01123%)
Up spin density kernel initialisation ... 
======= Optimisation of K by Palser-Manolopoulos canonical purification ======== 
         Iteration  |  Band structure energy |    c_n   
               1       -2582.24612599703551    0.5265831
               2       -2758.24970865931573    0.5170740
               3       -2938.05857649448262    0.5159839
               4       -3087.34343925925577    0.5304522
               5       -3178.26681402003305    0.5679290
               6       -3215.83683895968534    0.6127523
               7       -3228.63553531204434    0.6222871
               8       -3234.30545864657961    0.6193066
               9       -3237.08281902637646    0.6327646
              10       -3238.23179774721666    0.6540457
              11       -3238.68200470413876    0.6612333
              12       -3238.88275542773818    0.6488144
              13       -3238.98393309700850    0.6165863
              14       -3239.03624385443391    0.5555010
              15       -3239.06217582223508    0.4891093
              16       -3239.06972448666875    0.4561905
              17       -3239.07056089373191    0.4520575
              18       -3239.07108920972132    0.4211764
              19       -3239.07141080137535    0.3842478
              20       -3239.07156236295987    0.3923577
              21       -3239.07168056972978    0.4249856
              22       -3239.07180470693584    0.4628280
              23       -3239.07191473934472    0.4907606
              24       -3239.07198179651141    0.4994471
              25       -3239.07200084586611    0.4999981
              26       -3239.07200207216783    0.5000001
              27       -3239.07200207686310    0.5000001
Termination criterion satisfied: band energy change below threshold.
Final occupancy bounds: [    0.00000000000001:    1.00000000000000]
Closest occupancy to 0.5:     0.99999999999999
================================================================================
... done

Writing density kernel to file "host_33161.vacuum_dkn" ... done

>>> Optimising kernel for current NGWFs:
   Initial electron number for spin 1:    7192.00000000
     Final electron number for spin 1:    7192.00000000

=================== Penalty functional idempotency correction ==================
 RMS occupancy error at iteration   1:  0.000000 (step -0.5000 Ne1=   7192.0000)
            Final RMS occupancy error   :  0.000000 (Ne1=   7192.0000)
               Final occupancy bounds   : [  0.0000,  1.0000]
================================================================================

................................................................................
<<<<<<<<<<<<<< LNV (Original version) density kernel optimisation >>>>>>>>>>>>>>
~~~~~~~~~~~~~~~~~~~~~~~~~~~~~~~~~~~~~~~~~~~~~~~~~~~~~~~~~~~~~~~~~~~~~~~~~~~~~~~~
   iter  |      energy (Eh)       | rms gradient |  commutator  |   dE (Eh)
MG BCs: +ve charge blocks (gridpoints):     30239 (   16691006).
MG BCs: -ve charge blocks (gridpoints):      8193 (    1084404).
MG BCs:     Elided blocks (gridpoints):    166875 (  173001295).
MG BCs: Computational effort saved:  99.9799%.
MG BCs: Charge after coarse-graining:           -9.0009468.
MG DL_MG: Calling solver with defect correction order = 8
MG DL_MG: Solver finished
MG Hartree energy from (\int phi*rho dr):              1416.084743
MG Hartree energy from (\int eps (grad phi)^2 dr):     1415.405084
MG Discrepancy due to finite box and discretization:     -0.679659 (  -0.04800%)
MG Correction to account for finite box:                  0.472522
MG Remaining discrepancy, due to discretization:         -0.207137 (  -0.01463%)
      ideal mu1:      -0.706898678116
             Q0:  -11522.486096927314
             G0:    -148.294729373897
   RMS gradient:       0.001872041866
MG BCs: +ve charge blocks (gridpoints):     30270 (   16771289).
MG BCs: -ve charge blocks (gridpoints):      8100 (    1067356).
MG BCs:     Elided blocks (gridpoints):    166845 (  172938060).
MG BCs: Computational effort saved:  99.9799%.
MG BCs: Charge after coarse-graining:           -9.0009664.
MG DL_MG: Calling solver with defect correction order = 8
MG DL_MG: Solver finished
MG Hartree energy from (\int phi*rho dr):              1435.793844
MG Hartree energy from (\int eps (grad phi)^2 dr):     1435.134859
MG Discrepancy due to finite box and discretization:     -0.658985 (  -0.04590%)
MG Correction to account for finite box:                  0.468879
MG Remaining discrepancy, due to discretization:         -0.190106 (  -0.01324%)
     Trial step:       0.500000000000
             Q1:  -11534.287390975049
 Quadratic coef:      62.346070639214
 Linear coef   :     -74.147364686949
           Qmin:  -11544.531719184066
Quadratic minimum step length (  0.297321723433) accepted
    Initial Ne1:    7192.00000000
      Final Ne1:    7192.00000000

=================== Penalty functional idempotency correction ==================
 RMS occupancy error at iteration   1:  0.003544 (step -0.4879 Ne1=   7192.0000)
 RMS occupancy error at iteration   2:  0.000028 (step -0.5000 Ne1=   7192.0000)
            Final RMS occupancy error   :  0.000000 (Ne1=   7192.0000)
               Final occupancy bounds   : [  0.0000,  1.0000]
================================================================================

    1        -1.152248609693E+04     1.8720E-03     1.6932E-03
MG BCs: +ve charge blocks (gridpoints):     30260 (   16739282).
MG BCs: -ve charge blocks (gridpoints):      8136 (    1075067).
MG BCs:     Elided blocks (gridpoints):    166855 (  172962356).
MG BCs: Computational effort saved:  99.9799%.
MG BCs: Charge after coarse-graining:           -9.0009589.
MG DL_MG: Calling solver with defect correction order = 8
MG DL_MG: Solver finished
MG Hartree energy from (\int phi*rho dr):              1419.633829
MG Hartree energy from (\int eps (grad phi)^2 dr):     1418.967581
MG Discrepancy due to finite box and discretization:     -0.666249 (  -0.04693%)
MG Correction to account for finite box:                  0.470182
MG Remaining discrepancy, due to discretization:         -0.196067 (  -0.01381%)
      ideal mu1:      -0.749506387877
             Q0:  -11544.974738509511
             G0:     -12.346058286389
   RMS gradient:       0.000536294834
MG BCs: +ve charge blocks (gridpoints):     30272 (   16756278).
MG BCs: -ve charge blocks (gridpoints):      8098 (    1070183).
MG BCs:     Elided blocks (gridpoints):    166842 (  172950244).
MG BCs: Computational effort saved:  99.9799%.
MG BCs: Charge after coarse-graining:           -9.0009628.
MG DL_MG: Calling solver with defect correction order = 8
MG DL_MG: Solver finished
MG Hartree energy from (\int phi*rho dr):              1423.973387
MG Hartree energy from (\int eps (grad phi)^2 dr):     1423.311856
MG Discrepancy due to finite box and discretization:     -0.661532 (  -0.04646%)
MG Correction to account for finite box:                  0.468882
MG Remaining discrepancy, due to discretization:         -0.192649 (  -0.01353%)
     Trial step:       0.385565638662
             Q1:  -11547.891234275652
 Quadratic coef:       1.843720082004
 Linear coef   :      -4.760215848146
           Qmin:  -11548.047283949312
Quadratic minimum step length (  0.497737070169) accepted
    Initial Ne1:    7191.99989746
      Final Ne1:    7192.00000000

=================== Penalty functional idempotency correction ==================
 RMS occupancy error at iteration   1:  0.001904 (step -0.4926 Ne1=   7192.0000)
 RMS occupancy error at iteration   2:  0.000013 (step -0.5003 Ne1=   7192.0000)
            Final RMS occupancy error   :  0.000000 (Ne1=   7192.0000)
               Final occupancy bounds   : [  0.0000,  1.0000]
================================================================================

    2        -1.154497473851E+04     5.3629E-04     4.8507E-04    -2.2489E+01
MG BCs: +ve charge blocks (gridpoints):     30272 (   16761140).
MG BCs: -ve charge blocks (gridpoints):      8094 (    1068916).
MG BCs:     Elided blocks (gridpoints):    166842 (  172946649).
MG BCs: Computational effort saved:  99.9799%.
MG BCs: Charge after coarse-graining:           -9.0009639.
MG DL_MG: Calling solver with defect correction order = 8
MG DL_MG: Solver finished
MG Hartree energy from (\int phi*rho dr):              1425.288506
MG Hartree energy from (\int eps (grad phi)^2 dr):     1424.628238
MG Discrepancy due to finite box and discretization:     -0.660268 (  -0.04633%)
MG Correction to account for finite box:                  0.468528
MG Remaining discrepancy, due to discretization:         -0.191740 (  -0.01345%)
      ideal mu1:      -0.773207753150
             Q0:  -11548.085802392103
             G0:      -2.014422989526
   RMS gradient:       0.000216862939
MG BCs: +ve charge blocks (gridpoints):     30278 (   16761350).
MG BCs: -ve charge blocks (gridpoints):      8101 (    1069539).
MG BCs:     Elided blocks (gridpoints):    166836 (  172945816).
MG BCs: Computational effort saved:  99.9799%.
MG BCs: Charge after coarse-graining:           -9.0009634.
MG DL_MG: Calling solver with defect correction order = 8
MG DL_MG: Solver finished
MG Hartree energy from (\int phi*rho dr):              1423.663467
MG Hartree energy from (\int eps (grad phi)^2 dr):     1423.003619
MG Discrepancy due to finite box and discretization:     -0.659847 (  -0.04635%)
MG Correction to account for finite box:                  0.468275
MG Remaining discrepancy, due to discretization:         -0.191572 (  -0.01346%)
     Trial step:       0.438075691343
             Q1:  -11548.610544843366
 Quadratic coef:       0.357727292530
 Linear coef   :      -0.882469743793
           Qmin:  -11548.630038787376
Quadratic minimum step length (  0.540339738082) accepted
    Initial Ne1:    7191.99988751
      Final Ne1:    7192.00000000

=================== Penalty functional idempotency correction ==================
 RMS occupancy error at iteration   1:  0.000734 (step -0.4942 Ne1=   7192.0000)
 RMS occupancy error at iteration   2:  0.000011 (step -0.5007 Ne1=   7192.0000)
            Final RMS occupancy error   :  0.000000 (Ne1=   7192.0000)
               Final occupancy bounds   : [  0.0000,  1.0000]
================================================================================

    3        -1.154808580239E+04     2.1686E-04     1.9615E-04    -3.1111E+00
MG BCs: +ve charge blocks (gridpoints):     30276 (   16761433).
MG BCs: -ve charge blocks (gridpoints):      8102 (    1069732).
MG BCs:     Elided blocks (gridpoints):    166838 (  172945540).
MG BCs: Computational effort saved:  99.9799%.
MG BCs: Charge after coarse-graining:           -9.0009633.
MG DL_MG: Calling solver with defect correction order = 8
MG DL_MG: Solver finished
MG Hartree energy from (\int phi*rho dr):              1423.293281
MG Hartree energy from (\int eps (grad phi)^2 dr):     1422.633519
MG Discrepancy due to finite box and discretization:     -0.659762 (  -0.04635%)
MG Correction to account for finite box:                  0.468216
MG Remaining discrepancy, due to discretization:         -0.191546 (  -0.01346%)
      ideal mu1:      -0.774151001593
             Q0:  -11548.635438980069
             G0:      -0.591727496843
   RMS gradient:       0.000117608186
MG BCs: +ve charge blocks (gridpoints):     30278 (   16762274).
MG BCs: -ve charge blocks (gridpoints):      8098 (    1069519).
MG BCs:     Elided blocks (gridpoints):    166836 (  172944912).
MG BCs: Computational effort saved:  99.9799%.
MG BCs: Charge after coarse-graining:           -9.0009634.
MG DL_MG: Calling solver with defect correction order = 8
MG DL_MG: Solver finished
MG Hartree energy from (\int phi*rho dr):              1424.436730
MG Hartree energy from (\int eps (grad phi)^2 dr):     1423.776971
MG Discrepancy due to finite box and discretization:     -0.659759 (  -0.04632%)
MG Correction to account for finite box:                  0.468136
MG Remaining discrepancy, due to discretization:         -0.191623 (  -0.01345%)
     Trial step:       0.486528215338
             Q1:  -11548.785414558952
 Quadratic coef:       0.137916544123
 Linear coef   :      -0.287892123006
           Qmin:  -11548.785678160973
Quadratic minimum step length (  0.507798544788) accepted
    Initial Ne1:    7191.99984644
      Final Ne1:    7192.00000000

=================== Penalty functional idempotency correction ==================
 RMS occupancy error at iteration   1:  0.000459 (step -0.4823 Ne1=   7192.0000)
 RMS occupancy error at iteration   2:  0.000012 (step -0.5002 Ne1=   7192.0000)
            Final RMS occupancy error   :  0.000000 (Ne1=   7192.0000)
               Final occupancy bounds   : [  0.0000,  1.0000]
================================================================================

    4        -1.154863543898E+04     1.1761E-04     1.0637E-04    -5.4964E-01
MG BCs: +ve charge blocks (gridpoints):     30279 (   16762282).
MG BCs: -ve charge blocks (gridpoints):      8098 (    1069534).
MG BCs:     Elided blocks (gridpoints):    166835 (  172944889).
MG BCs: Computational effort saved:  99.9799%.
MG BCs: Charge after coarse-graining:           -9.0009634.
MG DL_MG: Calling solver with defect correction order = 8
MG DL_MG: Solver finished
MG Hartree energy from (\int phi*rho dr):              1424.487965
MG Hartree energy from (\int eps (grad phi)^2 dr):     1423.828205
MG Discrepancy due to finite box and discretization:     -0.659759 (  -0.04632%)
MG Correction to account for finite box:                  0.468133
MG Remaining discrepancy, due to discretization:         -0.191627 (  -0.01345%)
      ideal mu1:      -0.774294754464
             Q0:  -11548.786459639668
             G0:      -0.243848699245
   RMS gradient:       0.000075733770
MG BCs: +ve charge blocks (gridpoints):     30281 (   16762334).
MG BCs: -ve charge blocks (gridpoints):      8099 (    1069336).
MG BCs:     Elided blocks (gridpoints):    166833 (  172945035).
MG BCs: Computational effort saved:  99.9799%.
MG BCs: Charge after coarse-graining:           -9.0009634.
MG DL_MG: Calling solver with defect correction order = 8
MG DL_MG: Solver finished
MG Hartree energy from (\int phi*rho dr):              1424.914258
MG Hartree energy from (\int eps (grad phi)^2 dr):     1424.254235
MG Discrepancy due to finite box and discretization:     -0.660023 (  -0.04632%)
MG Correction to account for finite box:                  0.468201
MG Remaining discrepancy, due to discretization:         -0.191822 (  -0.01346%)
     Trial step:       0.497049614975
             Q1:  -11548.865708897123
 Quadratic coef:       0.041955644618
 Linear coef   :      -0.121204902072
           Qmin:  -11548.873996301423
Quadratic minimum step length (  0.717958816472) accepted
    Initial Ne1:    7191.99979084
      Final Ne1:    7192.00000000

=================== Penalty functional idempotency correction ==================
 RMS occupancy error at iteration   1:  0.000962 (step -0.4376 Ne1=   7192.0000)
 RMS occupancy error at iteration   2:  0.000034 (step -0.4996 Ne1=   7192.0000)
            Final RMS occupancy error   :  0.000000 (Ne1=   7192.0000)
               Final occupancy bounds   : [ -0.0000,  1.0000]
================================================================================

    5        -1.154878645964E+04     7.5734E-05     6.8499E-05    -1.5102E-01
MG BCs: +ve charge blocks (gridpoints):     30279 (   16762401).
MG BCs: -ve charge blocks (gridpoints):      8097 (    1069264).
MG BCs:     Elided blocks (gridpoints):    166835 (  172945040).
MG BCs: Computational effort saved:  99.9799%.
MG BCs: Charge after coarse-graining:           -9.0009633.
MG DL_MG: Calling solver with defect correction order = 8
MG DL_MG: Solver finished
MG Hartree energy from (\int phi*rho dr):              1425.105784
MG Hartree energy from (\int eps (grad phi)^2 dr):     1424.445645
MG Discrepancy due to finite box and discretization:     -0.660139 (  -0.04632%)
MG Correction to account for finite box:                  0.468229
MG Remaining discrepancy, due to discretization:         -0.191909 (  -0.01347%)
      ideal mu1:      -0.773866598622
             Q0:  -11548.872913178755
             G0:      -0.202850115389
   RMS gradient:       0.000069503955
MG BCs: +ve charge blocks (gridpoints):     30279 (   16761474).
MG BCs: -ve charge blocks (gridpoints):      8100 (    1069714).
MG BCs:     Elided blocks (gridpoints):    166835 (  172945517).
MG BCs: Computational effort saved:  99.9799%.
MG BCs: Charge after coarse-graining:           -9.0009631.
MG DL_MG: Calling solver with defect correction order = 8
MG DL_MG: Solver finished
MG Hartree energy from (\int phi*rho dr):              1423.527767
MG Hartree energy from (\int eps (grad phi)^2 dr):     1422.867693
MG Discrepancy due to finite box and discretization:     -0.660074 (  -0.04637%)
MG Correction to account for finite box:                  0.468182
MG Remaining discrepancy, due to discretization:         -0.191892 (  -0.01348%)
     Trial step:       0.597378567824
             Q1:  -11548.952073341003
 Quadratic coef:       0.042018149166
 Linear coef   :      -0.121178311414
           Qmin:  -11548.960281277115
Quadratic minimum step length (  0.861405458833) accepted
    Initial Ne1:    7192.00019209
      Final Ne1:    7192.00000000

=================== Penalty functional idempotency correction ==================
 RMS occupancy error at iteration   1:  0.003068 (step -0.3422 Ne1=   7192.0000)
 RMS occupancy error at iteration   2:  0.000198 (step -0.4907 Ne1=   7192.0000)
 RMS occupancy error at iteration   3:  0.000003 (step -0.5000 Ne1=   7192.0000)
            Final RMS occupancy error   :  0.000000 (Ne1=   7192.0000)
               Final occupancy bounds   : [  0.0000,  1.0000]
================================================================================

    6        -1.154887291318E+04     6.9504E-05     6.2865E-05    -8.6454E-02
MG BCs: +ve charge blocks (gridpoints):     30282 (   16761010).
MG BCs: -ve charge blocks (gridpoints):      8100 (    1069950).
MG BCs:     Elided blocks (gridpoints):    166832 (  172945745).
MG BCs: Computational effort saved:  99.9799%.
MG BCs: Charge after coarse-graining:           -9.0009630.
MG DL_MG: Calling solver with defect correction order = 8
MG DL_MG: Solver finished
MG Hartree energy from (\int phi*rho dr):              1422.841243
MG Hartree energy from (\int eps (grad phi)^2 dr):     1422.181197
MG Discrepancy due to finite box and discretization:     -0.660045 (  -0.04639%)
MG Correction to account for finite box:                  0.468159
MG Remaining discrepancy, due to discretization:         -0.191886 (  -0.01349%)
      ideal mu1:      -0.773362231434
             Q0:  -11548.961787419044
             G0:      -0.204205902140
   RMS gradient:       0.000069468328
MG BCs: +ve charge blocks (gridpoints):     30280 (   16762676).
MG BCs: -ve charge blocks (gridpoints):      8098 (    1069197).
MG BCs:     Elided blocks (gridpoints):    166834 (  172944832).
MG BCs: Computational effort saved:  99.9799%.
MG BCs: Charge after coarse-graining:           -9.0009635.
MG DL_MG: Calling solver with defect correction order = 8
MG DL_MG: Solver finished
MG Hartree energy from (\int phi*rho dr):              1424.831770
MG Hartree energy from (\int eps (grad phi)^2 dr):     1424.171990
MG Discrepancy due to finite box and discretization:     -0.659781 (  -0.04631%)
MG Correction to account for finite box:                  0.468070
MG Remaining discrepancy, due to discretization:         -0.191711 (  -0.01345%)
     Trial step:       0.717345913290
             Q1:  -11549.031271293177
 Quadratic coef:       0.077002395237
 Linear coef   :      -0.146486269370
           Qmin:  -11549.031454820453
Quadratic minimum step length (  0.682325052110) accepted
    Initial Ne1:    7191.99999929
      Final Ne1:    7192.00000000

=================== Penalty functional idempotency correction ==================
 RMS occupancy error at iteration   1:  0.000150 (step -0.4914 Ne1=   7192.0000)
 RMS occupancy error at iteration   2:  0.000000 (step -0.5000 Ne1=   7192.0000)
            Final RMS occupancy error   :  0.000000 (Ne1=   7192.0000)
               Final occupancy bounds   : [  0.0000,  1.0000]
================================================================================

    7        -1.154896178742E+04     6.9468E-05     6.2833E-05    -8.8874E-02
MG BCs: +ve charge blocks (gridpoints):     30279 (   16762571).
MG BCs: -ve charge blocks (gridpoints):      8098 (    1069241).
MG BCs:     Elided blocks (gridpoints):    166835 (  172944893).
MG BCs: Computational effort saved:  99.9799%.
MG BCs: Charge after coarse-graining:           -9.0009635.
MG DL_MG: Calling solver with defect correction order = 8
MG DL_MG: Solver finished
MG Hartree energy from (\int phi*rho dr):              1424.734336
MG Hartree energy from (\int eps (grad phi)^2 dr):     1424.074542
MG Discrepancy due to finite box and discretization:     -0.659794 (  -0.04631%)
MG Correction to account for finite box:                  0.468074
MG Remaining discrepancy, due to discretization:         -0.191719 (  -0.01346%)
      ideal mu1:      -0.774580811164
             Q0:  -11549.031452868017
             G0:      -0.185785814694
   RMS gradient:       0.000066283443
MG BCs: +ve charge blocks (gridpoints):     30278 (   16762714).
MG BCs: -ve charge blocks (gridpoints):      8097 (    1069175).
MG BCs:     Elided blocks (gridpoints):    166836 (  172944816).
MG BCs: Computational effort saved:  99.9799%.
MG BCs: Charge after coarse-graining:           -9.0009635.
MG DL_MG: Calling solver with defect correction order = 8
MG DL_MG: Solver finished
MG Hartree energy from (\int phi*rho dr):              1424.771468
MG Hartree energy from (\int eps (grad phi)^2 dr):     1424.111903
MG Discrepancy due to finite box and discretization:     -0.659565 (  -0.04629%)
MG Correction to account for finite box:                  0.467975
MG Remaining discrepancy, due to discretization:         -0.191590 (  -0.01345%)
     Trial step:       0.699616386076
             Q1:  -11549.117576081306
 Quadratic coef:       0.043855586971
 Linear coef   :      -0.129978800261
           Qmin:  -11549.127760372283
Quadratic minimum step length (  1.036758424463) accepted
    Initial Ne1:    7191.99999898
      Final Ne1:    7192.00000000

=================== Penalty functional idempotency correction ==================
 RMS occupancy error at iteration   1:  0.001797 (step -0.4127 Ne1=   7192.0000)
 RMS occupancy error at iteration   2:  0.000033 (step -0.4996 Ne1=   7192.0000)
            Final RMS occupancy error   :  0.000000 (Ne1=   7192.0000)
               Final occupancy bounds   : [ -0.0000,  1.0000]
================================================================================

    8        -1.154903145287E+04     6.6283E-05     5.9952E-05    -6.9665E-02
MG BCs: +ve charge blocks (gridpoints):     30276 (   16762755).
MG BCs: -ve charge blocks (gridpoints):      8097 (    1069161).
MG BCs:     Elided blocks (gridpoints):    166838 (  172944789).
MG BCs: Computational effort saved:  99.9799%.
MG BCs: Charge after coarse-graining:           -9.0009636.
MG DL_MG: Calling solver with defect correction order = 8
MG DL_MG: Solver finished
MG Hartree energy from (\int phi*rho dr):              1424.793922
MG Hartree energy from (\int eps (grad phi)^2 dr):     1424.134464
MG Discrepancy due to finite box and discretization:     -0.659458 (  -0.04628%)
MG Correction to account for finite box:                  0.467929
MG Remaining discrepancy, due to discretization:         -0.191529 (  -0.01344%)
      ideal mu1:      -0.774829816184
             Q0:  -11549.122174304910
             G0:      -0.260625117254
   RMS gradient:       0.000080696599
MG BCs: +ve charge blocks (gridpoints):     30278 (   16761537).
MG BCs: -ve charge blocks (gridpoints):      8102 (    1069785).
MG BCs:     Elided blocks (gridpoints):    166836 (  172945383).
MG BCs: Computational effort saved:  99.9799%.
MG BCs: Charge after coarse-graining:           -9.0009634.
MG DL_MG: Calling solver with defect correction order = 8
MG DL_MG: Solver finished
MG Hartree energy from (\int phi*rho dr):              1423.169233
MG Hartree energy from (\int eps (grad phi)^2 dr):     1422.510082
MG Discrepancy due to finite box and discretization:     -0.659151 (  -0.04632%)
MG Correction to account for finite box:                  0.467725
MG Remaining discrepancy, due to discretization:         -0.191426 (  -0.01345%)
     Trial step:       0.851664947122
             Q1:  -11549.203763117781
 Quadratic coef:       0.140376463834
 Linear coef   :      -0.221965276705
           Qmin:  -11549.209917974178
Quadratic minimum step length (  0.673332410877) accepted
    Initial Ne1:    7192.00019202
      Final Ne1:    7192.00000000

=================== Penalty functional idempotency correction ==================
 RMS occupancy error at iteration   1:  0.004978 (step -0.3181 Ne1=   7192.0000)
 RMS occupancy error at iteration   2:  0.000155 (step -0.4979 Ne1=   7192.0000)
 RMS occupancy error at iteration   3:  0.000001 (step -0.5000 Ne1=   7192.0000)
            Final RMS occupancy error   :  0.000000 (Ne1=   7192.0000)
               Final occupancy bounds   : [  0.0000,  1.0000]
================================================================================

    9        -1.154912217430E+04     8.0697E-05     7.2988E-05    -9.0721E-02
MG BCs: +ve charge blocks (gridpoints):     30278 (   16761729).
MG BCs: -ve charge blocks (gridpoints):      8100 (    1069645).
MG BCs:     Elided blocks (gridpoints):    166836 (  172945331).
MG BCs: Computational effort saved:  99.9799%.
MG BCs: Charge after coarse-graining:           -9.0009635.
MG DL_MG: Calling solver with defect correction order = 8
MG DL_MG: Solver finished
MG Hartree energy from (\int phi*rho dr):              1423.497148
MG Hartree energy from (\int eps (grad phi)^2 dr):     1422.837949
MG Discrepancy due to finite box and discretization:     -0.659199 (  -0.04631%)
MG Correction to account for finite box:                  0.467756
MG Remaining discrepancy, due to discretization:         -0.191443 (  -0.01345%)
      ideal mu1:      -0.774232380346
   10        -1.154921782063E+04     7.7715E-05     7.0292E-05    -9.5646E-02
Finished density kernel iterations (  10)

Writing density kernel to file "host_33161.vacuum_dkn" ... done


>>> Density kernel optimised for the current NGWF basis:
     ~~~~~~~~~~~~~~~~~~~~~~~~~~~~~~~~~~~~~~~~~~~~~~~~~~~~~~~~~~~
     Total energy                =  -1.15492178206333E+04  Eh
     Estimated bandgap           =  -3.1446E-01  Eh
     RMS occupancy error         =   2.1301E-10
     [H,K] commutator            =   7.0292E-05
     Occupancy bounds            = [  0.000:  1.000]
     ~~~~~~~~~~~~~~~~~~~~~~~~~~~~~~~~~~~~~~~~~~~~~~~~~~~~~~~~~~~




################################################################################
########################### NGWF CG iteration  001 #############################
################################################################################
****** Reciprocal space K.E. preconditioning with k_zero =  3.5000 a0^-1 *******

>>> Checking for convergence of NGWFs:   NOT CONVERGED
  ========================================================================
         NGWF RMS gradient =  1.6485E-03 >  2.0000E-06  | above tolerance
  ========================================================================

>>> Improving NGWFs using line search:
============ Calculation of NGWF S^-1 using Hotelling algorithm ================ 
         Iteration  |  Frobenius norm and Maximum abs value    (of I-S*S_n^-1)   
               1       0.20776383E+00     0.54634862E-02
               2       0.10070959E-02     0.44790146E-04
               3       0.40375888E-07     0.30621249E-08
               4       0.12540722E-12     0.77715612E-14
================================================================================
MG BCs: +ve charge blocks (gridpoints):     29837 (   16701528).
MG BCs: -ve charge blocks (gridpoints):      8099 (    1069517).
MG BCs:     Elided blocks (gridpoints):    167282 (  173005660).
MG BCs: Computational effort saved:  99.9801%.
MG BCs: Charge after coarse-graining:           -9.0009629.
MG DL_MG: Calling solver with defect correction order = 8
MG DL_MG: Solver finished
MG Hartree energy from (\int phi*rho dr):              1390.669244
MG Hartree energy from (\int eps (grad phi)^2 dr):     1390.010908
MG Discrepancy due to finite box and discretization:     -0.658335 (  -0.04734%)
MG Correction to account for finite box:                  0.467668
MG Remaining discrepancy, due to discretization:         -0.190667 (  -0.01371%)
============ Calculation of NGWF S^-1 using Hotelling algorithm ================ 
         Iteration  |  Frobenius norm and Maximum abs value    (of I-S*S_n^-1)   
               1       0.18660025E+01     0.42195455E-01
               2       0.72722149E-01     0.24770740E-02
               3       0.15016819E-03     0.93882287E-05
               4       0.11870252E-08     0.15712487E-09
               5       0.11032666E-12     0.57731597E-14
================================================================================
------------------------------- NGWF line search -------------------------------
RMS gradient                =       0.00164849798335
Trial step length           =               0.122474
Gradient along search dir.  =       -289.25085514478
Functional at step 0        =  -11549.21782063331921
Functional at step 1        =  -11581.85086582903750
Functional predicted        =  -11661.55925547906554
Selected quadratic step     =               0.776775
--------------------------- NGWF line search finished --------------------------
                                               
Writing NGWFs to file "host_33161.vacuum_tightbox_ngwfs"....  done

>>> Optimising kernel for current NGWFs:
   Initial electron number for spin 1:    7227.68320271
     Final electron number for spin 1:    7192.00000000

=================== Penalty functional idempotency correction ==================
 RMS occupancy error at iteration   1:  0.004336 (step -0.4858 Ne1=   7192.0000)
 RMS occupancy error at iteration   2:  0.000071 (step -0.5003 Ne1=   7192.0000)
            Final RMS occupancy error   :  0.000000 (Ne1=   7192.0000)
               Final occupancy bounds   : [  0.0000,  1.0000]
================================================================================

................................................................................
<<<<<<<<<<<<<< LNV (Original version) density kernel optimisation >>>>>>>>>>>>>>
~~~~~~~~~~~~~~~~~~~~~~~~~~~~~~~~~~~~~~~~~~~~~~~~~~~~~~~~~~~~~~~~~~~~~~~~~~~~~~~~
   iter  |      energy (Eh)       | rms gradient |  commutator  |   dE (Eh)
MG BCs: +ve charge blocks (gridpoints):     24118 (   16348680).
MG BCs: -ve charge blocks (gridpoints):      8262 (    1052038).
MG BCs:     Elided blocks (gridpoints):    173002 (  173375987).
MG BCs: Computational effort saved:  99.9830%.
MG BCs: Charge after coarse-graining:           -9.0006804.
MG DL_MG: Calling solver with defect correction order = 8
MG DL_MG: Solver finished
MG Hartree energy from (\int phi*rho dr):              1237.688471
MG Hartree energy from (\int eps (grad phi)^2 dr):     1237.029972
MG Discrepancy due to finite box and discretization:     -0.658499 (  -0.05320%)
MG Correction to account for finite box:                  0.467238
MG Remaining discrepancy, due to discretization:         -0.191261 (  -0.01545%)
      ideal mu1:      -0.714125168661
             Q0:  -11660.631586104748
             G0:      -9.811219178227
   RMS gradient:       0.000481519842
MG BCs: +ve charge blocks (gridpoints):     24183 (   16371968).
MG BCs: -ve charge blocks (gridpoints):      8234 (    1045634).
MG BCs:     Elided blocks (gridpoints):    172937 (  173359103).
MG BCs: Computational effort saved:  99.9830%.
MG BCs: Charge after coarse-graining:           -9.0006737.
MG DL_MG: Calling solver with defect correction order = 8
MG DL_MG: Solver finished
MG Hartree energy from (\int phi*rho dr):              1258.744664
MG Hartree energy from (\int eps (grad phi)^2 dr):     1258.079460
MG Discrepancy due to finite box and discretization:     -0.665204 (  -0.05285%)
MG Correction to account for finite box:                  0.467548
MG Remaining discrepancy, due to discretization:         -0.197656 (  -0.01570%)
     Trial step:       0.757267199940
             Q1:  -11659.711683501955
 Quadratic coef:       8.349617077889
 Linear coef   :      -7.429714475097
           Qmin:  -11662.284376186812
Quadratic minimum step length (  0.336918389456) accepted
    Initial Ne1:    7191.99956836
      Final Ne1:    7192.00000000

=================== Penalty functional idempotency correction ==================
 RMS occupancy error at iteration   1:  0.000367 (step -0.4985 Ne1=   7192.0000)
 RMS occupancy error at iteration   2:  0.000000 (step -0.5000 Ne1=   7192.0000)
            Final RMS occupancy error   :  0.000000 (Ne1=   7192.0000)
               Final occupancy bounds   : [  0.0000,  1.0000]
================================================================================

    1        -1.166063158610E+04     4.8152E-04     4.3552E-04
MG BCs: +ve charge blocks (gridpoints):     24148 (   16359004).
MG BCs: -ve charge blocks (gridpoints):      8249 (    1049275).
MG BCs:     Elided blocks (gridpoints):    172972 (  173368426).
MG BCs: Computational effort saved:  99.9830%.
MG BCs: Charge after coarse-graining:           -9.0006774.
MG DL_MG: Calling solver with defect correction order = 8
MG DL_MG: Solver finished
MG Hartree energy from (\int phi*rho dr):              1246.065551
MG Hartree energy from (\int eps (grad phi)^2 dr):     1245.404162
MG Discrepancy due to finite box and discretization:     -0.661389 (  -0.05308%)
MG Correction to account for finite box:                  0.467364
MG Remaining discrepancy, due to discretization:         -0.194024 (  -0.01557%)
      ideal mu1:      -0.721775821427
             Q0:  -11662.254617628874
             G0:      -1.084836179160
   RMS gradient:       0.000160950053
MG BCs: +ve charge blocks (gridpoints):     24154 (   16359378).
MG BCs: -ve charge blocks (gridpoints):      8250 (    1049751).
MG BCs:     Elided blocks (gridpoints):    172966 (  173367576).
MG BCs: Computational effort saved:  99.9830%.
MG BCs: Charge after coarse-graining:           -9.0006772.
MG DL_MG: Calling solver with defect correction order = 8
MG DL_MG: Solver finished
MG Hartree energy from (\int phi*rho dr):              1247.528161
MG Hartree energy from (\int eps (grad phi)^2 dr):     1246.866423
MG Discrepancy due to finite box and discretization:     -0.661738 (  -0.05304%)
MG Correction to account for finite box:                  0.467353
MG Remaining discrepancy, due to discretization:         -0.194385 (  -0.01558%)
     Trial step:       0.505111121825
             Q1:  -11662.492119599716
 Quadratic coef:       0.310460848610
 Linear coef   :      -0.547962819452
           Qmin:  -11662.496405967764
Quadratic minimum step length (  0.445760094536) accepted
    Initial Ne1:    7191.99993618
      Final Ne1:    7192.00000000

=================== Penalty functional idempotency correction ==================
 RMS occupancy error at iteration   1:  0.000217 (step -0.4946 Ne1=   7192.0000)
 RMS occupancy error at iteration   2:  0.000002 (step -0.5000 Ne1=   7192.0000)
            Final RMS occupancy error   :  0.000000 (Ne1=   7192.0000)
               Final occupancy bounds   : [  0.0000,  1.0000]
================================================================================

    2        -1.166225461763E+04     1.6095E-04     1.4558E-04    -1.6230E+00
MG BCs: +ve charge blocks (gridpoints):     24154 (   16359315).
MG BCs: -ve charge blocks (gridpoints):      8249 (    1049713).
MG BCs:     Elided blocks (gridpoints):    172966 (  173367677).
MG BCs: Computational effort saved:  99.9830%.
MG BCs: Charge after coarse-graining:           -9.0006772.
MG DL_MG: Calling solver with defect correction order = 8
MG DL_MG: Solver finished
MG Hartree energy from (\int phi*rho dr):              1247.355925
MG Hartree energy from (\int eps (grad phi)^2 dr):     1246.694230
MG Discrepancy due to finite box and discretization:     -0.661696 (  -0.05305%)
MG Correction to account for finite box:                  0.467355
MG Remaining discrepancy, due to discretization:         -0.194341 (  -0.01558%)
      ideal mu1:      -0.722952280421
             Q0:  -11662.497021242511
             G0:      -0.246054331835
   RMS gradient:       0.000076176714
MG BCs: +ve charge blocks (gridpoints):     24151 (   16358298).
MG BCs: -ve charge blocks (gridpoints):      8253 (    1050240).
MG BCs:     Elided blocks (gridpoints):    172969 (  173368167).
MG BCs: Computational effort saved:  99.9830%.
MG BCs: Charge after coarse-graining:           -9.0006773.
MG DL_MG: Calling solver with defect correction order = 8
MG DL_MG: Solver finished
MG Hartree energy from (\int phi*rho dr):              1246.610011
MG Hartree energy from (\int eps (grad phi)^2 dr):     1245.948406
MG Discrepancy due to finite box and discretization:     -0.661605 (  -0.05307%)
MG Correction to account for finite box:                  0.467294
MG Remaining discrepancy, due to discretization:         -0.194311 (  -0.01559%)
     Trial step:       0.474508568327
             Q1:  -11662.583905786509
 Quadratic coef:       0.029870344732
 Linear coef   :      -0.116754888730
           Qmin:  -11662.611111857841
Quadratic minimum step length (  0.927361160279) accepted
    Initial Ne1:    7191.99996948
      Final Ne1:    7192.00000000

=================== Penalty functional idempotency correction ==================
 RMS occupancy error at iteration   1:  0.000863 (step -0.4410 Ne1=   7192.0000)
 RMS occupancy error at iteration   2:  0.000023 (step -0.4995 Ne1=   7192.0000)
            Final RMS occupancy error   :  0.000000 (Ne1=   7192.0000)
               Final occupancy bounds   : [ -0.0000,  1.0000]
================================================================================

    3        -1.166249702124E+04     7.6177E-05     6.8900E-05    -2.4240E-01
MG BCs: +ve charge blocks (gridpoints):     24147 (   16357517).
MG BCs: -ve charge blocks (gridpoints):      8254 (    1050681).
MG BCs:     Elided blocks (gridpoints):    172973 (  173368507).
MG BCs: Computational effort saved:  99.9830%.
MG BCs: Charge after coarse-graining:           -9.0006773.
MG DL_MG: Calling solver with defect correction order = 8
MG DL_MG: Solver finished
MG Hartree energy from (\int phi*rho dr):              1245.901292
MG Hartree energy from (\int eps (grad phi)^2 dr):     1245.239758
MG Discrepancy due to finite box and discretization:     -0.661533 (  -0.05310%)
MG Correction to account for finite box:                  0.467248
MG Remaining discrepancy, due to discretization:         -0.194285 (  -0.01559%)
      ideal mu1:      -0.721339749770
             Q0:  -11662.607961944188
             G0:      -0.163067017562
   RMS gradient:       0.000063039476
MG BCs: +ve charge blocks (gridpoints):     24147 (   16358194).
MG BCs: -ve charge blocks (gridpoints):      8252 (    1050470).
MG BCs:     Elided blocks (gridpoints):    172973 (  173368041).
MG BCs: Computational effort saved:  99.9830%.
MG BCs: Charge after coarse-graining:           -9.0006772.
MG DL_MG: Calling solver with defect correction order = 8
MG DL_MG: Solver finished
MG Hartree energy from (\int phi*rho dr):              1246.215364
MG Hartree energy from (\int eps (grad phi)^2 dr):     1245.554147
MG Discrepancy due to finite box and discretization:     -0.661217 (  -0.05306%)
MG Correction to account for finite box:                  0.467141
MG Remaining discrepancy, due to discretization:         -0.194076 (  -0.01557%)
     Trial step:       0.663355723942
             Q1:  -11662.668807496550
 Quadratic coef:       0.047325887124
 Linear coef   :      -0.108171439486
           Qmin:  -11662.669773042888
Quadratic minimum step length (  0.758106692873) accepted
    Initial Ne1:    7192.00036811
      Final Ne1:    7192.00000000

=================== Penalty functional idempotency correction ==================
 RMS occupancy error at iteration   1:  0.001677 (step -0.3953 Ne1=   7192.0000)
 RMS occupancy error at iteration   2:  0.000059 (step -0.4965 Ne1=   7192.0000)
 RMS occupancy error at iteration   3:  0.000000 (step -0.5000 Ne1=   7192.0000)
            Final RMS occupancy error   :  0.000000 (Ne1=   7192.0000)
               Final occupancy bounds   : [  0.0000,  1.0000]
================================================================================

    4        -1.166260796194E+04     6.3039E-05     5.7018E-05    -1.1094E-01
MG BCs: +ve charge blocks (gridpoints):     24147 (   16358251).
MG BCs: -ve charge blocks (gridpoints):      8252 (    1050462).
MG BCs:     Elided blocks (gridpoints):    172973 (  173367992).
MG BCs: Computational effort saved:  99.9830%.
MG BCs: Charge after coarse-graining:           -9.0006772.
MG DL_MG: Calling solver with defect correction order = 8
MG DL_MG: Solver finished
MG Hartree energy from (\int phi*rho dr):              1246.263443
MG Hartree energy from (\int eps (grad phi)^2 dr):     1245.602273
MG Discrepancy due to finite box and discretization:     -0.661170 (  -0.05305%)
MG Correction to account for finite box:                  0.467123
MG Remaining discrepancy, due to discretization:         -0.194046 (  -0.01557%)
      ideal mu1:      -0.721854528449
             Q0:  -11662.670989192440
             G0:      -0.133208567317
   RMS gradient:       0.000054459848
MG BCs: +ve charge blocks (gridpoints):     24150 (   16360478).
MG BCs: -ve charge blocks (gridpoints):      8248 (    1049664).
MG BCs:     Elided blocks (gridpoints):    172970 (  173366563).
MG BCs: Computational effort saved:  99.9830%.
MG BCs: Charge after coarse-graining:           -9.0006768.
MG DL_MG: Calling solver with defect correction order = 8
MG DL_MG: Solver finished
MG Hartree energy from (\int phi*rho dr):              1247.666207
MG Hartree energy from (\int eps (grad phi)^2 dr):     1247.005185
MG Discrepancy due to finite box and discretization:     -0.661021 (  -0.05298%)
MG Correction to account for finite box:                  0.467056
MG Remaining discrepancy, due to discretization:         -0.193965 (  -0.01555%)
     Trial step:       0.709150487609
             Q1:  -11662.713947498007
 Quadratic coef:       0.051506614900
 Linear coef   :      -0.094464920467
           Qmin:  -11662.714302178627
Quadratic minimum step length (  0.650303310952) accepted
    Initial Ne1:    7192.00023566
      Final Ne1:    7192.00000000

=================== Penalty functional idempotency correction ==================
 RMS occupancy error at iteration   1:  0.002045 (step -0.3798 Ne1=   7192.0000)
 RMS occupancy error at iteration   2:  0.000088 (step -0.4941 Ne1=   7192.0000)
 RMS occupancy error at iteration   3:  0.000000 (step -0.5000 Ne1=   7192.0000)
            Final RMS occupancy error   :  0.000000 (Ne1=   7192.0000)
               Final occupancy bounds   : [  0.0000,  1.0000]
================================================================================

    5        -1.166267098919E+04     5.4460E-05     4.9258E-05    -6.3027E-02
MG BCs: +ve charge blocks (gridpoints):     24149 (   16360287).
MG BCs: -ve charge blocks (gridpoints):      8248 (    1049712).
MG BCs:     Elided blocks (gridpoints):    172971 (  173366706).
MG BCs: Computational effort saved:  99.9830%.
MG BCs: Charge after coarse-graining:           -9.0006768.
MG DL_MG: Calling solver with defect correction order = 8
MG DL_MG: Solver finished
MG Hartree energy from (\int phi*rho dr):              1247.547139
MG Hartree energy from (\int eps (grad phi)^2 dr):     1246.886136
MG Discrepancy due to finite box and discretization:     -0.661003 (  -0.05298%)
MG Correction to account for finite box:                  0.467032
MG Remaining discrepancy, due to discretization:         -0.193971 (  -0.01555%)
      ideal mu1:      -0.723226755046
             Q0:  -11662.717008780339
             G0:      -0.072654342287
   RMS gradient:       0.000039075141
MG BCs: +ve charge blocks (gridpoints):     24151 (   16359732).
MG BCs: -ve charge blocks (gridpoints):      8251 (    1050029).
MG BCs:     Elided blocks (gridpoints):    172969 (  173366944).
MG BCs: Computational effort saved:  99.9830%.
MG BCs: Charge after coarse-graining:           -9.0006769.
MG DL_MG: Calling solver with defect correction order = 8
MG DL_MG: Solver finished
MG Hartree energy from (\int phi*rho dr):              1246.991577
MG Hartree energy from (\int eps (grad phi)^2 dr):     1246.330553
MG Discrepancy due to finite box and discretization:     -0.661023 (  -0.05301%)
MG Correction to account for finite box:                  0.466993
MG Remaining discrepancy, due to discretization:         -0.194030 (  -0.01556%)
     Trial step:       0.679089765830
             Q1:  -11662.746739387047
 Quadratic coef:       0.019608213583
 Linear coef   :      -0.049338820290
           Qmin:  -11662.748045763608
Quadratic minimum step length (  0.854373800452) accepted
    Initial Ne1:    7192.00015937
      Final Ne1:    7192.00000000

=================== Penalty functional idempotency correction ==================
 RMS occupancy error at iteration   1:  0.002015 (step -0.3857 Ne1=   7192.0000)
 RMS occupancy error at iteration   2:  0.000099 (step -0.4940 Ne1=   7192.0000)
 RMS occupancy error at iteration   3:  0.000001 (step -0.5000 Ne1=   7192.0000)
            Final RMS occupancy error   :  0.000000 (Ne1=   7192.0000)
               Final occupancy bounds   : [  0.0000,  1.0000]
================================================================================

    6        -1.166271700878E+04     3.9075E-05     3.5343E-05    -4.6020E-02
MG BCs: +ve charge blocks (gridpoints):     24151 (   16359592).
MG BCs: -ve charge blocks (gridpoints):      8251 (    1050093).
MG BCs:     Elided blocks (gridpoints):    172969 (  173367020).
MG BCs: Computational effort saved:  99.9830%.
MG BCs: Charge after coarse-graining:           -9.0006769.
MG DL_MG: Calling solver with defect correction order = 8
MG DL_MG: Solver finished
MG Hartree energy from (\int phi*rho dr):              1246.848229
MG Hartree energy from (\int eps (grad phi)^2 dr):     1246.187214
MG Discrepancy due to finite box and discretization:     -0.661016 (  -0.05301%)
MG Correction to account for finite box:                  0.466971
MG Remaining discrepancy, due to discretization:         -0.194045 (  -0.01556%)
      ideal mu1:      -0.722822875456
             Q0:  -11662.750790829421
             G0:      -0.046047655415
   RMS gradient:       0.000032988036
MG BCs: +ve charge blocks (gridpoints):     24149 (   16358758).
MG BCs: -ve charge blocks (gridpoints):      8255 (    1050243).
MG BCs:     Elided blocks (gridpoints):    172971 (  173367704).
MG BCs: Computational effort saved:  99.9830%.
MG BCs: Charge after coarse-graining:           -9.0006772.
MG DL_MG: Calling solver with defect correction order = 8
MG DL_MG: Solver finished
MG Hartree energy from (\int phi*rho dr):              1246.501252
MG Hartree energy from (\int eps (grad phi)^2 dr):     1245.840249
MG Discrepancy due to finite box and discretization:     -0.661003 (  -0.05303%)
MG Correction to account for finite box:                  0.466956
MG Remaining discrepancy, due to discretization:         -0.194047 (  -0.01557%)
     Trial step:       0.761706310910
             Q1:  -11662.765729784733
 Quadratic coef:       0.020135834420
 Linear coef   :      -0.035074789732
           Qmin:  -11662.766065101760
Quadratic minimum step length (  0.663411511421) accepted
    Initial Ne1:    7191.99999997
      Final Ne1:    7192.00000000

=================== Penalty functional idempotency correction ==================
 RMS occupancy error at iteration   1:  0.000040 (step -0.4976 Ne1=   7192.0000)
            Final RMS occupancy error   :  0.000000 (Ne1=   7192.0000)
               Final occupancy bounds   : [ -0.0000,  1.0000]
================================================================================

    7        -1.166275079083E+04     3.2988E-05     2.9837E-05    -3.3782E-02
MG BCs: +ve charge blocks (gridpoints):     24149 (   16358845).
MG BCs: -ve charge blocks (gridpoints):      8255 (    1050229).
MG BCs:     Elided blocks (gridpoints):    172971 (  173367631).
MG BCs: Computational effort saved:  99.9830%.
MG BCs: Charge after coarse-graining:           -9.0006771.
MG DL_MG: Calling solver with defect correction order = 8
MG DL_MG: Solver finished
MG Hartree energy from (\int phi*rho dr):              1246.545534
MG Hartree energy from (\int eps (grad phi)^2 dr):     1245.884530
MG Discrepancy due to finite box and discretization:     -0.661005 (  -0.05303%)
MG Correction to account for finite box:                  0.466958
MG Remaining discrepancy, due to discretization:         -0.194047 (  -0.01557%)
      ideal mu1:      -0.722317416397
             Q0:  -11662.766069976613
             G0:      -0.042079135318
   RMS gradient:       0.000031533372
MG BCs: +ve charge blocks (gridpoints):     24149 (   16358771).
MG BCs: -ve charge blocks (gridpoints):      8253 (    1050194).
MG BCs:     Elided blocks (gridpoints):    172971 (  173367740).
MG BCs: Computational effort saved:  99.9830%.
MG BCs: Charge after coarse-graining:           -9.0006771.
[...]
MG Hartree energy from (\int phi*rho dr):              1202.746480
MG Hartree energy from (\int eps (grad phi)^2 dr):     1202.546788
MG Discrepancy due to finite box and discretization:     -0.199693 (  -0.01660%)
MG Correction to account for finite box:                  0.006416
MG Remaining discrepancy, due to discretization:         -0.193277 (  -0.01607%)
             Q2:  -11696.837989856489
  Cubic LS coeff:       1.039863392189
Predicted energy:  -11696.837989856778
Cubic minimum step length accepted
    Initial Ne1:    7192.00000000
      Final Ne1:    7192.00000000

=================== Penalty functional idempotency correction ==================
 RMS occupancy error at iteration   1:  0.000000 (step -0.5000 Ne1=   7192.0000)
            Final RMS occupancy error   :  0.000000 (Ne1=   7192.0000)
               Final occupancy bounds   : [  0.0000,  1.0000]
================================================================================

    7        -1.169683798985E+04     1.1959E-08     1.0817E-08    -4.4238E-09

Reusing previously generated solute cavity.
MG BCs: +ve charge blocks (gridpoints):     28465 (   18495294).
MG BCs: -ve charge blocks (gridpoints):      8246 (    1019931).
MG BCs:     Elided blocks (gridpoints):    168655 (  171261480).
MG BCs: Computational effort saved:  99.9808%.
MG BCs: Charge after coarse-graining:           -9.0009499.
MG DL_MG: Calling solver with defect correction order = 8
MG DL_MG: Solver finished
MG Hartree energy from (\int phi*rho dr):              1202.746470
MG Hartree energy from (\int eps (grad phi)^2 dr):     1202.546777
MG Discrepancy due to finite box and discretization:     -0.199693 (  -0.01660%)
MG Correction to account for finite box:                  0.006416
MG Remaining discrepancy, due to discretization:         -0.193277 (  -0.01607%)
      ideal mu1:      -0.485542989259
             Q0:  -11696.837989856489
             G0:      -0.000000007287
   RMS gradient:       0.000000016247

Reusing previously generated solute cavity.
MG BCs: +ve charge blocks (gridpoints):     28465 (   18495294).
MG BCs: -ve charge blocks (gridpoints):      8246 (    1019931).
MG BCs:     Elided blocks (gridpoints):    168655 (  171261480).
MG BCs: Computational effort saved:  99.9808%.
MG BCs: Charge after coarse-graining:           -9.0009499.
MG DL_MG: Calling solver with defect correction order = 8
MG DL_MG: Solver finished
MG Hartree energy from (\int phi*rho dr):              1202.746458
MG Hartree energy from (\int eps (grad phi)^2 dr):     1202.546765
MG Discrepancy due to finite box and discretization:     -0.199693 (  -0.01660%)
MG Correction to account for finite box:                  0.006416
MG Remaining discrepancy, due to discretization:         -0.193277 (  -0.01607%)
     Trial step:       0.789947773427
             Q1:  -11696.837989859981
 Quadratic coef:       0.000000002265
 Linear coef   :      -0.000000005756
           Qmin:  -11696.837989860147
Quadratic minimum step length (  1.003939146732) accepted
    Initial Ne1:    7192.00000000
      Final Ne1:    7192.00000000

=================== Penalty functional idempotency correction ==================
 RMS occupancy error at iteration   1:  0.000000 (step -0.5000 Ne1=   7192.0000)
            Final RMS occupancy error   :  0.000000 (Ne1=   7192.0000)
               Final occupancy bounds   : [  0.0000,  1.0000]
================================================================================

    8        -1.169683798986E+04     1.6247E-08     1.4695E-08    -5.4715E-09

Reusing previously generated solute cavity.
MG BCs: +ve charge blocks (gridpoints):     28465 (   18495294).
MG BCs: -ve charge blocks (gridpoints):      8246 (    1019931).
MG BCs:     Elided blocks (gridpoints):    168655 (  171261480).
MG BCs: Computational effort saved:  99.9808%.
MG BCs: Charge after coarse-graining:           -9.0009499.
MG DL_MG: Calling solver with defect correction order = 8
MG DL_MG: Solver finished
MG Hartree energy from (\int phi*rho dr):              1202.746454
MG Hartree energy from (\int eps (grad phi)^2 dr):     1202.546762
MG Discrepancy due to finite box and discretization:     -0.199693 (  -0.01660%)
MG Correction to account for finite box:                  0.006416
MG Remaining discrepancy, due to discretization:         -0.193277 (  -0.01607%)
      ideal mu1:      -0.485542947388
             Q0:  -11696.837989860098
             G0:      -0.000000009159
   RMS gradient:       0.000000015492

Reusing previously generated solute cavity.
MG BCs: +ve charge blocks (gridpoints):     28465 (   18495295).
MG BCs: -ve charge blocks (gridpoints):      8246 (    1019932).
MG BCs:     Elided blocks (gridpoints):    168655 (  171261478).
MG BCs: Computational effort saved:  99.9808%.
MG BCs: Charge after coarse-graining:           -9.0009499.
MG DL_MG: Calling solver with defect correction order = 8
MG DL_MG: Solver finished
MG Hartree energy from (\int phi*rho dr):              1202.746348
MG Hartree energy from (\int eps (grad phi)^2 dr):     1202.546655
MG Discrepancy due to finite box and discretization:     -0.199693 (  -0.01660%)
MG Correction to account for finite box:                  0.006416
MG Remaining discrepancy, due to discretization:         -0.193277 (  -0.01607%)
     Trial step:       0.890538878218
             Q1:  -11696.837989859283
 Quadratic coef:       0.000000008971
 Linear coef   :      -0.000000008156
           Qmin:  -11696.837989861951
Quadratic minimum step length (  0.404812371473) accepted
    Initial Ne1:    7192.00000000
      Final Ne1:    7192.00000000

=================== Penalty functional idempotency correction ==================
 RMS occupancy error at iteration   1:  0.000000 (step -0.5000 Ne1=   7192.0000)
            Final RMS occupancy error   :  0.000000 (Ne1=   7192.0000)
               Final occupancy bounds   : [  0.0000,  1.0000]
================================================================================

    9        -1.169683798986E+04     1.5492E-08     1.4012E-08    -3.6089E-09

Reusing previously generated solute cavity.
MG BCs: +ve charge blocks (gridpoints):     28465 (   18495294).
MG BCs: -ve charge blocks (gridpoints):      8246 (    1019932).
MG BCs:     Elided blocks (gridpoints):    168655 (  171261479).
MG BCs: Computational effort saved:  99.9808%.
MG BCs: Charge after coarse-graining:           -9.0009499.
MG DL_MG: Calling solver with defect correction order = 8
MG DL_MG: Solver finished
MG Hartree energy from (\int phi*rho dr):              1202.746406
MG Hartree energy from (\int eps (grad phi)^2 dr):     1202.546713
MG Discrepancy due to finite box and discretization:     -0.199693 (  -0.01660%)
MG Correction to account for finite box:                  0.006416
MG Remaining discrepancy, due to discretization:         -0.193277 (  -0.01607%)
      ideal mu1:      -0.485542914142
   10        -1.169683798986E+04     1.0212E-08     9.2367E-09    -1.5134E-09
Finished density kernel iterations (  10)

Writing density kernel to file "host_33161.dkn" ... done


>>> Density kernel optimised for the current NGWF basis:
     ~~~~~~~~~~~~~~~~~~~~~~~~~~~~~~~~~~~~~~~~~~~~~~~~~~~~~~~~~~~
     Total energy                =  -1.16968379898616E+04  Eh
     Estimated bandgap           =   7.9128E-02  Eh
     RMS occupancy error         =   3.5379E-16
     [H,K] commutator            =   9.2367E-09
     Occupancy bounds            = [  0.000:  1.000]
     ~~~~~~~~~~~~~~~~~~~~~~~~~~~~~~~~~~~~~~~~~~~~~~~~~~~~~~~~~~~




################################################################################
########################### NGWF CG iteration  004 #############################
################################################################################
****** Reciprocal space K.E. preconditioning with k_zero =  3.5000 a0^-1 *******

>>> Checking for convergence of NGWFs: 
           ........................................................
           |         *** NGWF optimisation converged ***          |
           | RMS NGWF gradient =    0.00000181719342              |
           | Criteria satisfied:                                  |
           | -> RMS NGWF gradient lower than set threshold.       |
           ========================================================

Reusing previously generated solute cavity.
MG BCs: +ve charge blocks (gridpoints):     28465 (   18495294).
MG BCs: -ve charge blocks (gridpoints):      8246 (    1019932).
MG BCs:     Elided blocks (gridpoints):    168655 (  171261479).
MG BCs: Computational effort saved:  99.9808%.
MG BCs: Charge after coarse-graining:           -9.0009499.
MG DL_MG: Calling solver with defect correction order = 8
MG DL_MG: Solver finished
MG Hartree energy from (\int phi*rho dr):              1202.746406
MG Hartree energy from (\int eps (grad phi)^2 dr):     1202.546713
MG Discrepancy due to finite box and discretization:     -0.199693 (  -0.01660%)
MG Correction to account for finite box:                  0.006416
MG Remaining discrepancy, due to discretization:         -0.193277 (  -0.01607%)

================================================================================
           ---------------- ENERGY COMPONENTS (Eh) ----------------
           | Kinetic                    :     8556.75143515066884 |
           | Pseudo. (local,OBC,corr'd) :    -5070.16863472320074 |
           | Pseudopotential (non-local):     1404.79062426547762 |
           | Hartree (molecular)        :     1202.74640584600570 |
           | Exchange-correlation       :    -3382.50476423937016 |
           | Ion-ion (open BC)          :   829158.89391551562585 |
           | Smeared ion non-self corr. :  -829110.80525028379634 |
           | Smeared ion self corr.     :   -14457.16956389741972 |
           | Solvent cavitation energy  :        2.23371877425508 |
           | Solute-solvent dis-rep en. :       -1.60587626978134 |
           | Total                      :   -11696.83798986166767 |
           --------------------------------------------------------
           ------ LOCAL ENERGY COMPONENTS FROM MATRIX TRACES ------
           | Pseudopotential (local)    :    -5070.16863472320802 |
           | Hartree                    :    -2003.22619588380144 |
           --------------------------------------------------------
           Integrated density           :     7191.99999999899319
           Integrated density tr(KS)    :     7192.00000000000000
================================================================================


                        <<<<< CALCULATION SUMMARY >>>>>                         
|ITER|    RMS GRADIENT   |     TOTAL ENERGY    |   step   |     Epredicted              
   0     0.00004164358524 -11696.77197054389399   0.619491 -11696.82914460926622        
   1     0.00000924414219 -11696.83760090742726   0.070649 -11696.83792220679243        
   2     0.00000407289903 -11696.83797678840347   0.012992 -11696.83798825795566        
   3     0.00000181719342 -11696.83798986161128  <-- CG                                 

=================== Finished the calculation in solvent ========================
= Adjusting the following parameters: 
= read_denskern: F
= read_tightbox_ngwfs: F
= maxit_pen: 0 (restored to user-specified value)
= restart read filename prefix: ""
= restart write filename prefix: ""
================================================================================

================================================================================
IS: Calculation in solvent completed (NGWFs converged).      

Individual components of total energy in solvent:     hartree           kcal/mol
- Usual non-electrostatic DFT terms:    -12900.21223821209242    -8095005.221281
- Electrostatic fixed charge energy:      1202.74640584600570      754734.748190
- Apolar cavitation energy:                  2.23371877425508        1401.679663
- Apolar dispersion-repulsion energy:       -1.60587626978134       -1007.702552
 -------------------------------------------------------------------------------
- Total energy in solvent:              -11696.83798986161128    -7339876.495980

Components of total energy in solvent:                hartree           kcal/mol
- Usual non-electrostatic DFT terms:    -12900.21223821209242    -8095005.221281
- Electrostatic energy:                   1202.74640584600570      754734.748190
- Apolar energy terms:                       0.62784250447375         393.977111
 -------------------------------------------------------------------------------
- Total energy in solvent:              -11696.83798986161128    -7339876.495980

Calculation of free energy of solvation:              hartree           kcal/mol
- Total energy in solvent:         (+)  -11696.83798986161128    -7339876.495980
- Total energy in vacuum:          (-)  -11693.08940638229251    -7337524.224383
 -------------------------------------------------------------------------------
- Total free energy of solvation:           -3.74858347931877       -2352.271597

Components of polar term in f.e. of solvation:        hartree           kcal/mol
- Electrostatic:                            -4.36627603850957       -2739.879521
- Change in nonelectrostatic DFT terms:     -0.01014994528487          -6.369187
 -------------------------------------------------------------------------------
- Polar term in f.e. of solvation:          -4.37642598379443       -2746.248708

Components of free energy of solvation:               hartree           kcal/mol
- Polar term in f.e. of solvation: (+)      -4.37642598379443       -2746.248708
- Apolar (cavitation, dis., rep.): (+)       0.62784250447375         393.977111
 -------------------------------------------------------------------------------
- Total free energy of solvation:           -3.74858347932069       -2352.271597
================================================================================


------------------------------ TIMING INFORMATION ------------------------------
AVERAGE TIME:   32496.031s on     60 node(s)                                    
TOTAL TIME:     32496.031s on     60 node(s)                                    
================= AVERAGE TIMINGS FROM ALL NODES (CUMULATIVE) ==================
|| TAG                                    #calls    cpu time   %total  Gflops ||
|| work_imbalance                       :     1        0.00s   0.000%  ------ ||
|| sparse_set_to_garbage                :   164        0.03s   0.000%  ------ ||
|| parallel_prepare_fd_halos_request    :  1827        0.03s   0.000%  ------ ||
|| ngwfs_initialise_from_radial         :     1        0.09s   0.000%  ------ ||
|| parallel_prepare_fd_halos_alloc      :  1827        0.13s   0.000%  ------ ||
|| basis_extract_function_from_box      :  3360        0.15s   0.000%  ------ ||
|| parallel_prepare_fd_halos_satisfy    :  1827        0.62s   0.002%  ------ ||
|| pseudopotentials_nonlocal_mat        :    28        2.24s   0.007%  ------ ||
|| openbc_locps_radial                  :     1        4.72s   0.015%  ------ ||
|| restart_ngwfs_tightbox_input         :     1        6.45s   0.020%  ------ ||
|| restart_kernel_read                  :     1        9.70s   0.030%  ------ ||
|| parallel_prepare_fd_halos_comms_imbal:  1827       10.57s   0.033%  ------ ||
|| density_init_guess_real              :     1       11.79s   0.036%  ------ ||
|| parallel_prepare_fd_halos_clear      :  1827       18.09s   0.056%  ------ ||
|| parallel_prepare_fd_halos_comms_wait :  1827       22.86s   0.070%  ------ ||
|| sparse_init                          :     2       23.99s   0.074%  ------ ||
|| projectors_func_ovlp_box             :    28       25.38s   0.078%  ------ ||
|| function_ops_brappd_ketppd           :    28       27.42s   0.084%  ------ ||
|| projectors_init_fftbox_recip         :   133       30.48s   0.094%  ------ ||
|| palser_mano_kernel_optimise          :     1       37.40s   0.115%  ------ ||
|| basis_copy_function_to_box           : 54533       40.14s   0.124%  ------ ||
|| ngwf_gradient_coeffs                 :    15       48.45s   0.149%  ------ ||
|| fourier_apply_box_pair               :  4776       50.27s   0.155% 550.029 ||
|| parallel_prepare_fd_halos            :  1827       52.30s   0.161%  ------ ||
|| pseudo_make_structure_factor         :     2       57.94s   0.178%  ------ ||
|| sparse_embed_hotelling_invert_embed  :    28       77.72s   0.239%  ------ ||
|| restart_kernel_write                 :    16       94.85s   0.292%  ------ ||
|| finite_difference_derivative         :  1827      122.38s   0.377%  ------ ||
|| integrals_kinetic                    :    28      142.00s   0.437%  ------ ||
|| projectors_gradient_batch            :   105      144.56s   0.445%  ------ ||
|| basis_dot_function_with_box          : 8.384M     185.59s   0.571%  ------ ||
|| sparse_trace                         :  5261      190.63s   0.587%  ------ ||
|| openbc_locps_on_grid                 :     2      269.03s   0.828%  ------ ||
|| kernel_purify                        :   464      289.93s   0.892%  ------ ||
|| basis_add_function_to_box            : 17.44M     405.45s   1.248%  ------ ||
|| lnv_gradient_norm                    :   150      430.75s   1.326%  ------ ||
|| hamiltonian_energy_components        :     4      537.48s   1.654%  ------ ||
|| kernel_fix                           :   150      565.34s   1.740%  ------ ||
|| ngwf_gradient_build_batch            :   105      729.87s   2.246%  ------ ||
|| integrals_locpot_mat_els_batch       :  1113      740.83s   2.280%  ------ ||
|| restart_ngwfs_tightbox_output        :    13      930.81s   2.864%  ------ ||
|| density_batch_row_sums               :  2121      994.89s   3.062%  ------ ||
|| ngwf_gradient_batch                  :   105     1014.37s   3.122%  ------ ||
|| ngwf_gradient_lnv                    :    15     1162.36s   3.577%  ------ ||
|| cell_grid_deposit_box_real           : 34897     1245.82s   3.834%  ------ ||
|| fourier_apply_cell_forward           :  8513     1335.98s   4.111%  86.736 ||
|| cell_grid_extract_box_real           : 38581     1466.31s   4.512%  ------ ||
|| fourier_apply_cell_backward          :  9123     1484.59s   4.569%  83.647 ||
|| density_fftbox_deposit_to_cell       : 33027     1834.42s   5.645%  ------ ||
|| sparse_product                       :  6415     1840.79s   5.665%  ------ ||
|| potential_apply_to_ngwf_batch        :  1113     3392.49s  10.440%  ------ ||
|| density_fftbox_interpolate_multiply  : 33027     3515.91s  10.820%  ------ ||
|| xc_energy_potential                  :   304     3701.68s  11.391%  ------ ||
|| integrals_locpot_dbl_grid            :   159     4153.01s  12.780%  ------ ||
|| multigrid_prepare_bound_cond         :   304     4186.42s  12.883%  ------ ||
|| fourier_apply_box                    : 113.8k    4317.81s  13.287% 740.295 ||
|| nlxc_vdw_energy                      :   608     6052.30s  18.625%  ------ ||
|| density_batch_interp_deposit         :  2121     6188.14s  19.043%  ------ ||
|| dl_mg_solver_calls                   :   304     6992.11s  21.517%  ------ ||
|| density_on_dbl_grid                  :   303     7573.86s  23.307%  ------ ||
|| multigrid_calculate_hartree          :   304    11349.87s  34.927%  ------ ||
|| hamiltonian_lhxc_calculate           :   299    22506.47s  69.259%  ------ ||
|| lnv_denskernel_optimise_cg           :    15    27486.99s  84.586%  ------ ||
|| ngwf_cg_optimise                     :     2    31488.46s  96.899%  ------ ||
|| total_time                           :     1    32496.03s 100.000%  ------ ||
================================================================================
Overhead of generating timer report: 
- 0 ms averaging over threads,
- 15 ms ensuring consistency across MPI ranks,
- 0 ms printing in order.

Job completed: 07-04-2020 15:46 (+0100)

Application 40129262 resources: utime ~6525298s, stime ~220840s, Rss ~3735616, inblocks ~299423840, outblocks ~61349663
