 +---------------------------------------------------------------+
 |                                                               |
 |        ####### #     # ####### ####### ####### ######         |
 |        #     # ##    # #          #    #       #     #        |
 |        #     # # #   # #          #    #       #     #        |
 |        #     # #  #  # #####      #    #####   ######         |
 |        #     # #   # # #          #    #       #              |
 |        #     # #    ## #          #    #       #              |
 |        ####### #     # #######    #    ####### #              |
 |                                                               |
 |        Linear-Scaling Ab Initio Total Energy Program          |
 |                                                               |
 |          Release for academic collaborators of ODG            |
 |                                             Version 5.3.2.6.  |
 |                                                               |
 +---------------------------------------------------------------+
 |                                                               |
 |  Authors:                                                     |
 |  Jacek Dziedzic, Peter D. Haynes, Nicholas D. M. Hine,        |
 |  Arash. A. Mostofi, Mike C. Payne and Chris-Kriton Skylaris   |
 |                                                               |
 |  Contributors:                                                |
 |  J. Aarons, L. Andrinopoulos, P. W. Avraam, R. A. Bell,       |
 |  A. Bhandari, G. A. Bramley, R. J. Charlton, S. J. Clark,     |
 |  R. J. Clements, G. C. Constantinescu, F. Corsetti,           |
 |  N. Corsini, O. Dieguez, S. M. M. Dubois, K. K. B. Duff,      |
 |  J. M. Escartin, A. Greco, H. Helal, Q. O. Hill, L. P. Lee,   |
 |  J.-H. Li, E. B. Linscott, G. Moynihan, D. D. O`Regan,        |
 |  O. K. Okan, M. J. S. Phipps, C. J. Pickard,                  |
 |  J. C. A. Prentice, M. I. J. Probert, L. E. Ratcliff,         |
 |  M. Robinson, A. Ruiz Serrano, J. S. Spencer, E. W. Tait,     |
 |  G. Teobaldi, D. Turban, V. Vitale, K. A. Wilkinson,          |
 |  C. Weber, J. C. Womack, N. Yeung and T. J. Zuehlsdorff       |
 |                                                               |
 |                                   Copyright (c) 2004-2019     |
 |                                                               |
 |  Please cite:                                                 |
 |  "Introducing ONETEP: Linear-scaling density functional       |
 |   simulations on parallel computers".                         |
 |   C.-K. Skylaris, P. D. Haynes, A. A. Mostofi, M. C. Payne.   |
 |   J. Chem. Phys. 122 084119 (2005).                           |
 |                                                               |
 |          in all publications arising from your use of ONETEP. |
 |                                                               |
 +---------------------------------------------------------------+
 |                                                               |
 |   ONETEP is based on developments described in the following  |
 |   publications:                                               |
 |                                                               |
 |  "Nonorthogonal generalized Wannier function pseudopotential  |
 |   plane-wave method".                                         |
 |   C.-K. Skylaris, A. A. Mostofi, P. D. Haynes, O. Dieguez,    |
 |   M. C. Payne.                                                |
 |   Phys. Rev. B 66 035119 (2002).                              |
 |                                                               |
 |  "Preconditioned iterative minimization for linear-scaling    |
 |   electronic structure calculations".                         |
 |   A. A. Mostofi, P. D. Haynes, C.-K. Skylaris, M. C. Payne.   |
 |   J. Chem. Phys. 119(17), pp.8842-8848 (2003).                |
 |                                                               |
 |  "Total-energy calculations on a real space grid with         |
 |   localized functions and a plane-wave basis".                |
 |   A. A. Mostofi, C.-K. Skylaris, P. D. Haynes, M. C. Payne.   |
 |   Comput. Phys. Commun. 147, pp.788-802 (2002).               |
 |                                                               |
 |  "Accurate kinetic energy evaluation in electronic structure  |
 |   calculations with localized functions on real space grids"  |
 |   C.-K. Skylaris, A. A. Mostofi, P. D. Haynes, C. J. Pickard, |
 |   M. C. Payne.                                                |
 |   Comput. Phys. Commun. 140, pp.315-322 (2001).               |
 |                                                               |
 |  "Accurate ionic forces and geometry optimization in linear-  |
 |   scaling density-functional theory with local orbitals"      |
 |   N. D. M. Hine, M. Robinson, P. D. Haynes, C.-K. Skylaris,   |
 |   M. C. Payne, and A. A. Mostofi.                             |
 |   Phys. Rev. B 83 195102 (2011).                              |
 |                                                               |
 +---------------------------------------------------------------+

Job started: 10-03-2020 14:03 (-0000)
 
Reading parameters from file "host_10361.dat" ...... done

If your calculation crashes here, before "Checking processes and threads..."
is displayed, then your stack size is insufficient.
If so, use "ulimit -s unlimited" at runtime.
You can disable this check with "check_stack_size F".

Checking processes and threads...
   Determining the default number of threads...
      No default threads set at compilation time: defaulting to 1.
      OpenMP library call suggests 4 threads.
      Hybrid MPI-OpenMP compilation detected.
      Number of MPI processes > 1.
      OMP_NUM_THREADS environment variable present and
      its value matches the one obtained from the OpenMP library call.
      Using this value as default.
      Default threads: 4
      Default applies to threads_max and threads_num_fftboxes.
      Settings in the input file override this default.
   ... done

   Running with 60 MPI processes.
   There are 6 MPI processes running on the same node as the root process.
   Each MPI process is using: 
               1 threads for simulation cell FFTs.
               1 threads for parallel FFT box operations.
               4 threads for loops over batched FFT box operations.
               4 threads in other parallel regions.
... done

Basic input checks...... done

Reading geometry and species blocks from file "host_10361.dat" ...
  <species_atomic_set> block not found: NGWF initialisation set to SOLVE
IS: Dielectric excluded regions:
    - NONE.
    
  Number of PPD points along a3 set to 1.  This is 
  the default value, it may have been provided also in the input file.
... done
 Writing xyz coordinates to file "host_10361.xyz" ... done


--------------------------------------------------------------------------------
---------------------------------- INPUT FILE ----------------------------------
--------------------------------------------------------------------------------

cutoff_energy       : 800 eV                                                    
xc_functional VV10                                                              
task SINGLEPOINT                                                                
write_xyz true                                                                  
output_detail VERBOSE                                                           
ngwf_threshold_orig : 0.000002                                                  
kernel_cutoff       : 1000                                                      
k_zero              : 3.5                                                       
elec_cg_max 0                                                                   
occ_mix 1.0                                                                     
dispersion 0                                                                    
maxit_ngwf_cg 40                                                                
minit_lnv 10                                                                    
maxit_lnv 10                                                                    
write_denskern T                                                                
write_tightbox_ngwfs T                                                          
charge 9                                                                        
is_implicit_solvent T                                                           
is_auto_solvation T                                                             
is_include_apolar T                                                             
is_smeared_ion_rep T                                                            
is_solvent_surf_tension 4.7624E-5 Ha/bohr**2                                    
is_apolar_scaling_factor 0.281075                                               
is_solvation_beta 1.3                                                           
is_density_threshold 0.00035                                                    
is_bulk_permittivity 78.54                                                      
is_dielectric_model fix_initial                                                 
is_smeared_ion_width 0.8                                                        
mg_defco_fd_order 8                                                             
is_bc_coarseness 10                                                             
is_bc_surface_coarseness 1                                                      
fine_grid_scale 2.0                                                             
%block species                                                                  
N   N   7 4 8.0                                                                 
H   H   1 1 8.0                                                                 
C   C   6 4 8.0                                                                 
S   S  16 9 8.0                                                                 
O   O   8 4 8.0                                                                 
%endblock species                                                               
%block species_pot                                                              
N   N_00.recpot                                                                 
H   H_04.recpot                                                                 
C   C_01.recpot                                                                 
S   S_00.recpot                                                                 
O   O_02.recpot                                                                 
%endblock species_pot                                                           
%block lattice_cart                                                             
139.252   0.000   0.000                                                         
0.000 142.425   0.000                                                           
0.000   0.000   162.84                                                          
%endblock lattice_cart                                                          
%block positions_abs                                                            
     Hash =   000002915253790715071128
%endblock positions_abs                                                         

--------------------------------------------------------------------------------
-------------------------------- END INPUT FILE --------------------------------
--------------------------------------------------------------------------------


 
 ESDF WARNING(1): "kernelcutoff" (esdf_physical) has no units. Assume "bohr".
 ESDF WARNING(2): "kzero" (esdf_physical) has no units. Assume "1/bohr".
 ESDF WARNING(3
 ): "issmearedionwidth" (esdf_physical) has no units. Assume "bohr".
<<<<<<<<<<<<<<<<<<<<<<<<<<<<<<<<< Full system >>>>>>>>>>>>>>>>>>>>>>>>>>>>>>>>>>
<<<<<<<<<<<<<<<<<<<<<<<<< Pseudopotential information >>>>>>>>>>>>>>>>>>>>>>>>>>
File: N_00.recpot [ 2001 points up to Gmax=  52.9 (1/bohr)]
  Atomic number:  7;  ionic charge:  5.000000
    Shell 1: l = 0; rc = 1.48 bohr
File: H_04.recpot [ 2001 points up to Gmax=  52.9 (1/bohr)]
  Atomic number:  1;  ionic charge:  1.000000
    Local potential
File: C_01.recpot [ 2001 points up to Gmax=  52.9 (1/bohr)]
  Atomic number:  6;  ionic charge:  4.000000
    Shell 1: l = 0; rc = 1.48 bohr
File: S_00.recpot [ 2001 points up to Gmax=  52.9 (1/bohr)]
  Atomic number: 16;  ionic charge:  6.000000
    Shell 1: l = 0; rc = 1.90 bohr
    Shell 2: l = 2; rc = 1.84 bohr
File: O_02.recpot [ 2001 points up to Gmax=  52.9 (1/bohr)]
  Atomic number:  8;  ionic charge:  6.000000
    Shell 1: l = 0; rc = 1.31 bohr
<<<<<<<<<<<<<<<<<<<<<<<<<<<<<<<<<<<<<<<<>>>>>>>>>>>>>>>>>>>>>>>>>>>>>>>>>>>>>>>>

-------------------------- Atom counting information ---------------------------
Symbol    Natoms    Nngwfs    Nprojs
  N        236       944       236
  H       1311      1311         0
  C        810      3240       810
  S          6        54        36
  O        239       956       239
.......   ......    ......    ......
Totals:   2602      6505      1321
--------------------------------------------------------------------------------

=============================== PSINC grid sizes ===============================
                      Simulation cell:  275 x 280 x 320
                              FFT-box:   99 x  99 x  99
                                  PPD:    5 x   5 x   1
Grid space d1=  0.506370909091a0 (KE cutoff=  29.62556Eh = 806.15239eV)
Grid space d2=  0.508660714286a0 (KE cutoff=  29.35943Eh = 798.91072eV)
Grid space d3=  0.508875000000a0 (KE cutoff=  29.33471Eh = 798.23802eV)
================================================================================

********************* Fourier parallelisation information **********************
       Coarse grid (whole simulation cell) dimensions:    275   280   320
          Real-space ('12') slabs/node (min max mean):      5     6     5
         Recip-space ('23') slabs/node (min max mean):      2     3     2
********************************************************************************

********************* Fourier parallelisation information **********************
       Double grid (whole simulation cell) dimensions:    550   560   640
          Real-space ('12') slabs/node (min max mean):     10    11    10
         Recip-space ('23') slabs/node (min max mean):      4     5     4
********************************************************************************
ONETEP fine grid is 550 x 560 x 640 gridpoints, 139.2520 x 142.4250 x 162.8400 bohr.
FD multigrid is     545 x 553 x 633 gridpoints, 137.9861 x 140.6447 x 161.0589 bohr.


Calculating local pseudopotential in open BC on a radial grid ...
Discrepancy between calculated realspace psloc and -Z/x on [5a0,257.280a0]:
max |rel. diff| # avg |rel. diff| #  avg rel. diff #  f # pseudopotential file
 0.000256370913    0.000003612608   0.000000072509   55  'N_00.recpot'
 0.000395389207    0.000016224277  -0.000000076597   55  'H_04.recpot'
 0.000377360759    0.000017565724   0.000000149252   55  'C_01.recpot'
 0.000469715301    0.000020587835   0.000000455518   55  'S_00.recpot'
 0.000665442002    0.000026079317   0.000000158685   55  'O_02.recpot'
... done

Atom SCF Calculation for N  : Z (AE atom) =   7 : Z (PS atom) =   5
Config String:
Orbitals (num,occ):  2     2.00 3.00
Orbitals   (num,l):  2        0    1
Real-space Grid (nr,dr,rmax): 1203    0.0066555740    8.0000000000
Spherical Bessel Basis (nsws,lmax,cutoff):   47    1  176.3951722778
Confining potential (l,width,scale):  0    3.0000000000  100.0000000000
Confining potential (l,width,scale):  1    3.0000000000  100.0000000000
  1         -4.7366890484   -3.4501654188    7.0523828109   -1.9619316308
  2         -9.7225420322   -2.0763080851    8.3068355706   -2.2908832437
  3         -9.7134243553   -2.1270543915    8.2534567806   -2.2819809971
  4         -9.7235185949   -2.1427582218    8.2369947390   -2.2802814234
  5         -9.7258373845   -2.1477905863    8.2317116314   -2.2798536235
  6         -9.7268932325   -2.1503512400    8.2290229806   -2.2796830099
  7         -9.7273189469   -2.1516634231    8.2276451699   -2.2796169657
  8         -9.7274675212   -2.1523365544    8.2269384796   -2.2795940092
  9         -9.7275041773   -2.1526817003    8.2265762312   -2.2795881371
 10         -9.7275008637   -2.1528585007    8.2263907413   -2.2795884060
 11         -9.7274868305   -2.1529489544    8.2262958841   -2.2795903922
 12         -9.7274755655   -2.1529859230    8.2262571347   -2.2795920452
 13         -9.7274662327   -2.1530083995    8.2262335832   -2.2795934369
 14         -9.7274589439   -2.1530220534    8.2262192809   -2.2795945372
 15         -9.7274534633   -2.1530303399    8.2262106039   -2.2795953734
 16         -9.7274494492   -2.1530353634    8.2262053452   -2.2795959920
 17         -9.7274465654   -2.1530384053    8.2262021621   -2.2795964406
 18         -9.7274445237   -2.1530402447    8.2262002378   -2.2795967611
 19         -9.7274430947   -2.1530413553    8.2261990762   -2.2795969874
 20         -9.7274421038   -2.1530420249    8.2261983762   -2.2795971458
 21         -9.7274414219   -2.1530424277    8.2261979551   -2.2795972557
 22         -9.7274409555   -2.1530426696    8.2261977024   -2.2795973315
 23         -9.7274406382   -2.1530428144    8.2261975510   -2.2795973835
 24         -9.7274404232   -2.1530429010    8.2261974606   -2.2795974190
 25         -9.7274402783   -2.1530429525    8.2261974067   -2.2795974432
 26         -9.7274401808   -2.1530429831    8.2261973748   -2.2795974596
Atom SCF converged after  26 iterations to a total energy of     -9.72744018

Atom SCF Calculation for H  : Z (AE atom) =   1 : Z (PS atom) =   1
Config String:
Orbitals (num,occ):  1     1.00
Orbitals   (num,l):  1        0
Real-space Grid (nr,dr,rmax): 1203    0.0066555740    8.0000000000
Spherical Bessel Basis (nsws,lmax,cutoff):   47    0  176.3951722778
Confining potential (l,width,scale):  0    3.0000000000  100.0000000000
  1         -0.3178661827   -0.2469879004    0.2820953124   -0.2487802071
  2         -0.3961824611   -0.2455070831    0.2902209900   -0.2567664324
  3         -0.4406462424   -0.2424227551    0.2948173255   -0.2622129794
  4         -0.4569739054   -0.2416771342    0.2960118236   -0.2639986016
  5         -0.4627745219   -0.2416114401    0.2961916694   -0.2644992007
  6         -0.4648634749   -0.2416666130    0.2961598921   -0.2646237065
  7         -0.4656347011   -0.2417155160    0.2961132802   -0.2646490719
  8         -0.4659271144   -0.2417438448    0.2960836537   -0.2646515522
  9         -0.4660407254   -0.2417580788    0.2960682004   -0.2646501482
 10         -0.4660857867   -0.2417647566    0.2960608087   -0.2646488305
 11         -0.4661039568   -0.2417677717    0.2960574330   -0.2646480606
 12         -0.4661113773   -0.2417691018    0.2960559329   -0.2646476727
 13         -0.4661144368   -0.2417696800    0.2960552775   -0.2646474903
 14         -0.4661157072   -0.2417699291    0.2960549942   -0.2646474079
 15         -0.4661162374   -0.2417700356    0.2960548727   -0.2646473715
 16         -0.4661164596   -0.2417700810    0.2960548208   -0.2646473556
 17         -0.4661165529   -0.2417701003    0.2960547987   -0.2646473488
Atom SCF converged after  17 iterations to a total energy of     -0.46611655

Atom SCF Calculation for C  : Z (AE atom) =   6 : Z (PS atom) =   4
Config String:
Orbitals (num,occ):  2     2.00 2.00
Orbitals   (num,l):  2        0    1
Real-space Grid (nr,dr,rmax): 1203    0.0066555740    8.0000000000
Spherical Bessel Basis (nsws,lmax,cutoff):   47    1  176.3951722778
Confining potential (l,width,scale):  0    3.0000000000  100.0000000000
Confining potential (l,width,scale):  1    3.0000000000  100.0000000000
  1         -5.2812238291   -1.3293161250    4.5135249990   -1.4716766231
  2         -5.3996591362   -1.3542148509    4.4876064308   -1.4645117417
  3         -5.4111847148   -1.3757224423    4.4645718036   -1.4593107263
  4         -5.4199203659   -1.3833334895    4.4563636676   -1.4579885221
  5         -5.4226876204   -1.3865104950    4.4529090432   -1.4575385943
  6         -5.4235070726   -1.3878131251    4.4514866831   -1.4573882877
  7         -5.4237271252   -1.3883401868    4.4509094528   -1.4573411661
  8         -5.4237693051   -1.3885521813    4.4506766230   -1.4573281030
  9         -5.4237656430   -1.3886371046    4.4505830704   -1.4573255254
 10         -5.4237547927   -1.3886709976    4.4505456041   -1.4573257244
 11         -5.4237478594   -1.3886817763    4.4505336403   -1.4573262476
 12         -5.4237429748   -1.3886873440    4.4505274417   -1.4573266921
 13         -5.4237397042   -1.3886902144    4.4505242350   -1.4573270222
 14         -5.4237375865   -1.3886916908    4.4505225792   -1.4573272507
 15         -5.4237362473   -1.3886924482    4.4505217259   -1.4573274021
 16         -5.4237354152   -1.3886928356    4.4505212873   -1.4573274996
 17         -5.4237349050   -1.3886930331    4.4505210623   -1.4573275610
 18         -5.4237345954   -1.3886931333    4.4505209473   -1.4573275991
 19         -5.4237344092   -1.3886931840    4.4505208887   -1.4573276224
 20         -5.4237342980   -1.3886932094    4.4505208590   -1.4573276366
 21         -5.4237342320   -1.3886932221    4.4505208440   -1.4573276451
Atom SCF converged after  21 iterations to a total energy of     -5.42373423

Atom SCF Calculation for S  : Z (AE atom) =  16 : Z (PS atom) =   6
Config String:
Orbitals (num,occ):  3     2.00 4.00 0.00
Orbitals   (num,l):  3        0    1    2
Real-space Grid (nr,dr,rmax): 1203    0.0066555740    8.0000000000
Spherical Bessel Basis (nsws,lmax,cutoff):   47    2  176.3951722778
Confining potential (l,width,scale):  0    3.0000000000  100.0000000000
Confining potential (l,width,scale):  1    3.0000000000  100.0000000000
Confining potential (l,width,scale):  2    3.0000000000  100.0000000000
  1        -12.4916237786   -1.0485914554   10.1554312477   -2.4822447765
  2         -9.9747083603   -2.4807597367    8.3138131863   -2.0618837268
  3        -10.1811370131   -2.3153496392    8.4906092179   -2.1137756843
  4        -10.1856385898   -2.2984912006    8.5093862195   -2.1218167101
  5        -10.1891317560   -2.2894783333    8.5195006030   -2.1261392389
  6        -10.1911142562   -2.2849160124    8.5246320974   -2.1283733378
  7        -10.1921506977   -2.2826473329    8.5271859473   -2.1295140514
  8        -10.1926851273   -2.2815219985    8.5284534218   -2.1300957983
  9        -10.1929632671   -2.2809620806    8.5290843811   -2.1303933136
 10        -10.1931100895   -2.2806822783    8.5293998452   -2.1305460626
 11        -10.1931885828   -2.2805418782    8.5295582201   -2.1306248009
 12        -10.1932309625   -2.2804711729    8.5296380158   -2.1306655459
 13        -10.1932540142   -2.2804354512    8.5296783476   -2.1306867097
 14        -10.1932666242   -2.2804173494    8.5296987927   -2.1306977435
 15        -10.1932735535   -2.2804081489    8.5297091868   -2.1307035175
 16        -10.1932773756   -2.2804034581    8.5297144867   -2.1307065505
 17        -10.1932794908   -2.2804010586    8.5297171976   -2.1307081499
 18        -10.1932806648   -2.2803998268    8.5297185890   -2.1307089965
 19        -10.1932813181   -2.2803991920    8.5297193057   -2.1307094466
 20        -10.1932816826   -2.2803988634    8.5297196763   -2.1307096867
 21        -10.1932818864   -2.2803986926    8.5297198688   -2.1307098154
 22        -10.1932820006   -2.2803986034    8.5297199692   -2.1307098847
 23        -10.1932820648   -2.2803985565    8.5297200219   -2.1307099221
Atom SCF converged after  23 iterations to a total energy of    -10.19328206

Atom SCF Calculation for O  : Z (AE atom) =   8 : Z (PS atom) =   6
Config String:
Orbitals (num,occ):  2     2.00 4.00
Orbitals   (num,l):  2        0    1
Real-space Grid (nr,dr,rmax): 1203    0.0066555740    8.0000000000
Spherical Bessel Basis (nsws,lmax,cutoff):   47    1  176.3951722778
Confining potential (l,width,scale):  0    3.0000000000  100.0000000000
Confining potential (l,width,scale):  1    3.0000000000  100.0000000000
  1         -1.9497477053   -7.5870966769   10.1554312477   -2.4822447765
  2        -15.9466298225   -3.1778351734   13.6353006614   -3.2931224232
  3        -16.0387051750   -3.0909030611   13.7305651010   -3.3194522996
  4        -15.9025031450   -3.1083023605   13.7128101414   -3.3180850501
  5        -15.8912953362   -3.1033022259   13.7185404266   -3.3206942093
  6        -15.8793912992   -3.1043100674   13.7175820250   -3.3209366960
  7        -15.8748748605   -3.1043975610   13.7175531476   -3.3211845618
  8        -15.8725354084   -3.1044655610   13.7175148333   -3.3213149154
  9        -15.8713193866   -3.1045129589   13.7174824743   -3.3213832909
 10        -15.8706863385   -3.1045436851   13.7174593895   -3.3214192053
 11        -15.8703562731   -3.1045627330   13.7174442347   -3.3214381098
 12        -15.8701839150   -3.1045741887   13.7174347673   -3.3214480859
 13        -15.8700937727   -3.1045809294   13.7174290448   -3.3214533647
 14        -15.8700465571   -3.1045848305   13.7174256662   -3.3214561658
 15        -15.8700217888   -3.1045870593   13.7174237063   -3.3214576563
 16        -15.8700087767   -3.1045883194   13.7174225849   -3.3214584516
 17        -15.8700019307   -3.1045890258   13.7174219502   -3.3214588771
 18        -15.8699983237   -3.1045894190   13.7174215942   -3.3214591053
 19        -15.8699964206   -3.1045896366   13.7174213960   -3.3214592281
 20        -15.8699954151   -3.1045897563   13.7174212864   -3.3214592942
 21        -15.8699948832   -3.1045898219   13.7174212260   -3.3214593299
 22        -15.8699946014   -3.1045898577   13.7174211930   -3.3214593493
 23        -15.8699944520   -3.1045898771   13.7174211750   -3.3214593597
 24        -15.8699943726   -3.1045898877   13.7174211652   -3.3214593654
Atom SCF converged after  24 iterations to a total energy of    -15.86999437

========================== Calculation in vacuum ==============================
= Adjusting the following parameters: 
= is_implicit_solvent: F
= is_include_apolar: F
= write_denskern: T
= write_tightbox_ngwfs: T
= restart read filename prefix: ""
= restart write filename prefix: "vacuum_"
===============================================================================

Determining parallel strategy ...
... using space-filling curve
... NGWF load balancing: max    109;  min    108;  average    108
... Projector load balancing: max     25;  min     21;  average     22
... done
Calculating direct Ion-Ion energy ...
Ion-Ion Energy        :    826007.95363009837456
Basis initialisation ...... NGWF spheres initialised
... Projector spheres initialised
... NGWF tight boxes initialised
... Tight-boxes gathered
... NGWF basis size (local,global):    1373348  82718427
... Nonlocal pseudopotential projector initialisation
... done

========================== Sparse matrix information ===========================
                        Overlap matrix filling:   6.83%
                        Density kernel filling: 100.00%
              NGWF-Proj overlap matrix filling:   1.80%
                    Hamiltonian matrix filling:   7.73%
                  NGWF diagonal matrix filling:   0.05%
                             KS matrix filling: 100.00% 
                           KSKS matrix filling: 100.00% 
================================================================================

Sparse matrix initialisation ... done

Generating smeared ion density ... done
Smeared ion self correction:     -14457.169564
Smeared ion non-self correction: -825959.901880
NGWF initialisation ...... done
============ Calculation of NGWF S^-1 using Hotelling algorithm ================ 
         Iteration  |  Frobenius norm and Maximum abs value    (of I-S*S_n^-1)   
               1       0.78497094E+02     0.98286654E+00
               2       0.76655737E+02     0.96613190E+00
               3       0.73665604E+02     0.93380240E+00
               4       0.69402044E+02     0.87335400E+00
               5       0.64082486E+02     0.77011736E+00
               6       0.58105383E+02     0.70482463E+00
               7       0.52095526E+02     0.67156845E+00
               8       0.46535217E+02     0.64543041E+00
               9       0.40456998E+02     0.60771765E+00
              10       0.32186616E+02     0.54107888E+00
              11       0.21626057E+02     0.43158481E+00
              12       0.11056905E+02     0.27908064E+00
              13       0.36557784E+01     0.12766960E+00
              14       0.58370591E+00     0.38474515E-01
              15       0.29652718E-01     0.41661361E-02
              16       0.21041751E-03     0.50418238E-04
              17       0.23182313E-07     0.74209444E-08
              18       0.95836575E-13     0.45519144E-14
================================================================================
Calculating local pseudopotential in open BC on the fine real space grid ...
... done

MG BCs: +ve charge blocks (gridpoints):     19683 (   15419968).
MG BCs: -ve charge blocks (gridpoints):      7876 (    1057702).
MG BCs:     Elided blocks (gridpoints):    177437 (  174299035).
MG BCs: Computational effort saved:  99.9856%.
MG BCs: Charge after coarse-graining:           -9.0002174.
MG DL_MG: Calling solver with defect correction order = 8
MG DL_MG: Solver finished
MG Hartree energy from (\int phi*rho dr):              1452.429811
MG Hartree energy from (\int eps (grad phi)^2 dr):     1451.803152
MG Discrepancy due to finite box and discretization:     -0.626659 (  -0.04315%)
MG Correction to account for finite box:                  0.463634
MG Remaining discrepancy, due to discretization:         -0.163025 (  -0.01122%)
Up spin density kernel initialisation ... 
======= Optimisation of K by Palser-Manolopoulos canonical purification ======== 
         Iteration  |  Band structure energy |    c_n   
               1       -2572.49385835855719    0.5272142
               2       -2748.18578033829181    0.5175225
               3       -2928.38328395778808    0.5160728
               4       -3078.86134920990116    0.5299818
               5       -3171.36637424749642    0.5663247
               6       -3210.06776046347841    0.6110501
               7       -3223.27421680901534    0.6221779
               8       -3229.04628106502241    0.6207407
               9       -3231.85696175130579    0.6381158
              10       -3233.01116791095865    0.6684820
              11       -3233.45615092652770    0.6909415
              12       -3233.65170088423338    0.6949002
              13       -3233.75327479133011    0.6690120
              14       -3233.81618011976207    0.6235004
              15       -3233.85525741183937    0.5659181
              16       -3233.87566773049821    0.5057340
              17       -3233.88270863504022    0.4508616
              18       -3233.88373118811614    0.4249255
              19       -3233.88427320853725    0.4412875
              20       -3233.88465849942304    0.4745397
              21       -3233.88487547744853    0.4950603
              22       -3233.88492490735098    0.4998070
              23       -3233.88492692068667    0.5000038
              24       -3233.88492692383124    0.5000038
Termination criterion satisfied: band energy change below threshold.
Final occupancy bounds: [   -0.00000000000000:    1.00000000000000]
Closest occupancy to 0.5:     1.00000000000000
================================================================================
... done

Writing density kernel to file "host_10361.vacuum_dkn" ... done

>>> Optimising kernel for current NGWFs:
   Initial electron number for spin 1:    7192.00000000
     Final electron number for spin 1:    7192.00000000

=================== Penalty functional idempotency correction ==================
 RMS occupancy error at iteration   1:  0.000000 (step -0.5000 Ne1=   7192.0000)
            Final RMS occupancy error   :  0.000000 (Ne1=   7192.0000)
               Final occupancy bounds   : [ -0.0000,  1.0000]
================================================================================

................................................................................
<<<<<<<<<<<<<< LNV (Original version) density kernel optimisation >>>>>>>>>>>>>>
~~~~~~~~~~~~~~~~~~~~~~~~~~~~~~~~~~~~~~~~~~~~~~~~~~~~~~~~~~~~~~~~~~~~~~~~~~~~~~~~
   iter  |      energy (Eh)       | rms gradient |  commutator  |   dE (Eh)
MG BCs: +ve charge blocks (gridpoints):     30264 (   16654176).
MG BCs: -ve charge blocks (gridpoints):      8220 (    1085319).
MG BCs:     Elided blocks (gridpoints):    166844 (  173037210).
MG BCs: Computational effort saved:  99.9798%.
MG BCs: Charge after coarse-graining:           -9.0009544.
MG DL_MG: Calling solver with defect correction order = 8
MG DL_MG: Solver finished
MG Hartree energy from (\int phi*rho dr):              1414.869892
MG Hartree energy from (\int eps (grad phi)^2 dr):     1414.191777
MG Discrepancy due to finite box and discretization:     -0.678115 (  -0.04793%)
MG Correction to account for finite box:                  0.470224
MG Remaining discrepancy, due to discretization:         -0.207891 (  -0.01469%)
      ideal mu1:      -0.732049428359
             Q0:  -11524.593580480083
             G0:    -143.964692398956
   RMS gradient:       0.001844508649
MG BCs: +ve charge blocks (gridpoints):     30298 (   16727001).
MG BCs: -ve charge blocks (gridpoints):      8124 (    1068835).
MG BCs:     Elided blocks (gridpoints):    166809 (  172980869).
MG BCs: Computational effort saved:  99.9799%.
MG BCs: Charge after coarse-graining:           -9.0009781.
MG DL_MG: Calling solver with defect correction order = 8
MG DL_MG: Solver finished
MG Hartree energy from (\int phi*rho dr):              1435.871146
MG Hartree energy from (\int eps (grad phi)^2 dr):     1435.211951
MG Discrepancy due to finite box and discretization:     -0.659194 (  -0.04591%)
MG Correction to account for finite box:                  0.468505
MG Remaining discrepancy, due to discretization:         -0.190690 (  -0.01328%)
     Trial step:       0.500000000000
             Q1:  -11535.576314093312
 Quadratic coef:      60.999612586249
 Linear coef   :     -71.982346199478
           Qmin:  -11545.829199628710
Quadratic minimum step length (  0.295011489203) accepted
    Initial Ne1:    7192.00000000
      Final Ne1:    7192.00000000

=================== Penalty functional idempotency correction ==================
 RMS occupancy error at iteration   1:  0.003396 (step -0.4885 Ne1=   7192.0000)
 RMS occupancy error at iteration   2:  0.000025 (step -0.5000 Ne1=   7192.0000)
            Final RMS occupancy error   :  0.000000 (Ne1=   7192.0000)
               Final occupancy bounds   : [  0.0000,  1.0000]
================================================================================

    1        -1.152459358048E+04     1.8445E-03     1.6683E-03
MG BCs: +ve charge blocks (gridpoints):     30280 (   16698103).
MG BCs: -ve charge blocks (gridpoints):      8161 (    1076186).
MG BCs:     Elided blocks (gridpoints):    166827 (  173002416).
MG BCs: Computational effort saved:  99.9799%.
MG BCs: Charge after coarse-graining:           -9.0009687.
MG DL_MG: Calling solver with defect correction order = 8
MG DL_MG: Solver finished
MG Hartree energy from (\int phi*rho dr):              1419.236465
MG Hartree energy from (\int eps (grad phi)^2 dr):     1418.570613
MG Discrepancy due to finite box and discretization:     -0.665852 (  -0.04692%)
MG Correction to account for finite box:                  0.469050
MG Remaining discrepancy, due to discretization:         -0.196801 (  -0.01387%)
      ideal mu1:      -0.767521146135
             Q0:  -11546.243224387756
             G0:     -11.582021081067
   RMS gradient:       0.000519532190
MG BCs: +ve charge blocks (gridpoints):     30296 (   16713299).
MG BCs: -ve charge blocks (gridpoints):      8146 (    1071792).
MG BCs:     Elided blocks (gridpoints):    166811 (  172991614).
MG BCs: Computational effort saved:  99.9798%.
MG BCs: Charge after coarse-graining:           -9.0009728.
MG DL_MG: Calling solver with defect correction order = 8
MG DL_MG: Solver finished
MG Hartree energy from (\int phi*rho dr):              1423.858642
MG Hartree energy from (\int eps (grad phi)^2 dr):     1423.196888
MG Discrepancy due to finite box and discretization:     -0.661754 (  -0.04648%)
MG Correction to account for finite box:                  0.468361
MG Remaining discrepancy, due to discretization:         -0.193392 (  -0.01358%)
     Trial step:       0.384064766155
             Q1:  -11548.985345736961
 Quadratic coef:       1.706124868893
 Linear coef   :      -4.448246218099
           Qmin:  -11549.142615689294
Quadratic minimum step length (  0.500671045450) accepted
    Initial Ne1:    7191.99991632
      Final Ne1:    7192.00000000

=================== Penalty functional idempotency correction ==================
 RMS occupancy error at iteration   1:  0.001796 (step -0.4932 Ne1=   7192.0000)
 RMS occupancy error at iteration   2:  0.000010 (step -0.5001 Ne1=   7192.0000)
            Final RMS occupancy error   :  0.000000 (Ne1=   7192.0000)
               Final occupancy bounds   : [  0.0000,  1.0000]
================================================================================

    2        -1.154624322439E+04     5.1953E-04     4.6991E-04    -2.1650E+01
MG BCs: +ve charge blocks (gridpoints):     30296 (   16717983).
MG BCs: -ve charge blocks (gridpoints):      8139 (    1070328).
MG BCs:     Elided blocks (gridpoints):    166811 (  172988394).
MG BCs: Computational effort saved:  99.9799%.
MG BCs: Charge after coarse-graining:           -9.0009741.
MG DL_MG: Calling solver with defect correction order = 8
MG DL_MG: Solver finished
MG Hartree energy from (\int phi*rho dr):              1425.300504
MG Hartree energy from (\int eps (grad phi)^2 dr):     1424.639904
MG Discrepancy due to finite box and discretization:     -0.660601 (  -0.04635%)
MG Correction to account for finite box:                  0.468170
MG Remaining discrepancy, due to discretization:         -0.192431 (  -0.01350%)
      ideal mu1:      -0.786854447047
             Q0:  -11549.177554081660
             G0:      -1.836876806498
   RMS gradient:       0.000207110823
MG BCs: +ve charge blocks (gridpoints):     30299 (   16717459).
MG BCs: -ve charge blocks (gridpoints):      8146 (    1071154).
MG BCs:     Elided blocks (gridpoints):    166808 (  172988092).
MG BCs: Computational effort saved:  99.9798%.
MG BCs: Charge after coarse-graining:           -9.0009737.
MG DL_MG: Calling solver with defect correction order = 8
MG DL_MG: Solver finished
MG Hartree energy from (\int phi*rho dr):              1423.524095
MG Hartree energy from (\int eps (grad phi)^2 dr):     1422.863843
MG Discrepancy due to finite box and discretization:     -0.660252 (  -0.04638%)
MG Correction to account for finite box:                  0.467936
MG Remaining discrepancy, due to discretization:         -0.192317 (  -0.01351%)
     Trial step:       0.438508959989
             Q1:  -11549.640905003878
 Quadratic coef:       0.342136015828
 Linear coef   :      -0.805486938046
           Qmin:  -11549.651641270195
Quadratic minimum step length (  0.516188333217) accepted
    Initial Ne1:    7191.99996305
      Final Ne1:    7192.00000000

=================== Penalty functional idempotency correction ==================
 RMS occupancy error at iteration   1:  0.000595 (step -0.4976 Ne1=   7192.0000)
 RMS occupancy error at iteration   2:  0.000001 (step -0.5000 Ne1=   7192.0000)
            Final RMS occupancy error   :  0.000000 (Ne1=   7192.0000)
               Final occupancy bounds   : [  0.0000,  1.0000]
================================================================================

    3        -1.154917755408E+04     2.0711E-04     1.8733E-04    -2.9343E+00
MG BCs: +ve charge blocks (gridpoints):     30298 (   16717453).
MG BCs: -ve charge blocks (gridpoints):      8145 (    1071310).
MG BCs:     Elided blocks (gridpoints):    166809 (  172987942).
MG BCs: Computational effort saved:  99.9798%.
MG BCs: Charge after coarse-graining:           -9.0009736.
MG DL_MG: Calling solver with defect correction order = 8
MG DL_MG: Solver finished
MG Hartree energy from (\int phi*rho dr):              1423.216150
MG Hartree energy from (\int eps (grad phi)^2 dr):     1422.555949
MG Discrepancy due to finite box and discretization:     -0.660200 (  -0.04639%)
MG Correction to account for finite box:                  0.467895
MG Remaining discrepancy, due to discretization:         -0.192305 (  -0.01351%)
      ideal mu1:      -0.787746888306
             Q0:  -11549.656113291974
             G0:      -0.438045942916
   RMS gradient:       0.000101210932
MG BCs: +ve charge blocks (gridpoints):     30296 (   16718504).
MG BCs: -ve charge blocks (gridpoints):      8145 (    1071068).
MG BCs:     Elided blocks (gridpoints):    166810 (  172987133).
MG BCs: Computational effort saved:  99.9799%.
MG BCs: Charge after coarse-graining:           -9.0009738.
MG DL_MG: Calling solver with defect correction order = 8
MG DL_MG: Solver finished
MG Hartree energy from (\int phi*rho dr):              1424.361667
MG Hartree energy from (\int eps (grad phi)^2 dr):     1423.701412
MG Discrepancy due to finite box and discretization:     -0.660255 (  -0.04635%)
MG Correction to account for finite box:                  0.467836
MG Remaining discrepancy, due to discretization:         -0.192419 (  -0.01351%)
     Trial step:       0.475765918449
             Q1:  -11549.754901724984
 Quadratic coef:       0.109618897344
 Linear coef   :      -0.208407330354
           Qmin:  -11549.755169240350
Quadratic minimum step length (  0.452262827577) accepted
    Initial Ne1:    7191.99999211
      Final Ne1:    7192.00000000

=================== Penalty functional idempotency correction ==================
 RMS occupancy error at iteration   1:  0.000190 (step -0.4992 Ne1=   7192.0000)
 RMS occupancy error at iteration   2:  0.000000 (step -0.5000 Ne1=   7192.0000)
            Final RMS occupancy error   :  0.000000 (Ne1=   7192.0000)
               Final occupancy bounds   : [  0.0000,  1.0000]
================================================================================

    4        -1.154965611329E+04     1.0121E-04     9.1543E-05    -4.7856E-01
MG BCs: +ve charge blocks (gridpoints):     30297 (   16718441).
MG BCs: -ve charge blocks (gridpoints):      8145 (    1071091).
MG BCs:     Elided blocks (gridpoints):    166809 (  172987173).
MG BCs: Computational effort saved:  99.9798%.
MG BCs: Charge after coarse-graining:           -9.0009738.
MG DL_MG: Calling solver with defect correction order = 8
MG DL_MG: Solver finished
MG Hartree energy from (\int phi*rho dr):              1424.304965
MG Hartree energy from (\int eps (grad phi)^2 dr):     1423.644713
MG Discrepancy due to finite box and discretization:     -0.660252 (  -0.04636%)
MG Correction to account for finite box:                  0.467839
MG Remaining discrepancy, due to discretization:         -0.192413 (  -0.01351%)
      ideal mu1:      -0.788117265090
             Q0:  -11549.755615363945
             G0:      -0.104096612838
   RMS gradient:       0.000049491476
MG BCs: +ve charge blocks (gridpoints):     30298 (   16718636).
MG BCs: -ve charge blocks (gridpoints):      8143 (    1070943).
MG BCs:     Elided blocks (gridpoints):    166808 (  172987126).
MG BCs: Computational effort saved:  99.9799%.
MG BCs: Charge after coarse-graining:           -9.0009737.
MG DL_MG: Calling solver with defect correction order = 8
MG DL_MG: Solver finished
MG Hartree energy from (\int phi*rho dr):              1424.609459
MG Hartree energy from (\int eps (grad phi)^2 dr):     1423.949049
MG Discrepancy due to finite box and discretization:     -0.660410 (  -0.04636%)
MG Correction to account for finite box:                  0.467842
MG Remaining discrepancy, due to discretization:         -0.192568 (  -0.01352%)
     Trial step:       0.463865540370
             Q1:  -11549.781627579010
 Quadratic coef:       0.022274616500
 Linear coef   :      -0.048286831565
           Qmin:  -11549.781784367826
Quadratic minimum step length (  0.502783004516) accepted
    Initial Ne1:    7191.99999790
      Final Ne1:    7192.00000000

=================== Penalty functional idempotency correction ==================
 RMS occupancy error at iteration   1:  0.000068 (step -0.4997 Ne1=   7192.0000)
            Final RMS occupancy error   :  0.000000 (Ne1=   7192.0000)
               Final occupancy bounds   : [ -0.0000,  1.0000]
================================================================================

    5        -1.154975561536E+04     4.9491E-05     4.4764E-05    -9.9502E-02
MG BCs: +ve charge blocks (gridpoints):     30298 (   16718658).
MG BCs: -ve charge blocks (gridpoints):      8142 (    1070922).
MG BCs:     Elided blocks (gridpoints):    166808 (  172987125).
MG BCs: Computational effort saved:  99.9799%.
MG BCs: Charge after coarse-graining:           -9.0009737.
MG DL_MG: Calling solver with defect correction order = 8
MG DL_MG: Solver finished
MG Hartree energy from (\int phi*rho dr):              1424.635008
MG Hartree energy from (\int eps (grad phi)^2 dr):     1423.974585
MG Discrepancy due to finite box and discretization:     -0.660423 (  -0.04636%)
MG Correction to account for finite box:                  0.467842
MG Remaining discrepancy, due to discretization:         -0.192581 (  -0.01352%)
      ideal mu1:      -0.788056269977
             Q0:  -11549.781837496441
             G0:      -0.031348721197
   RMS gradient:       0.000027182978
MG BCs: +ve charge blocks (gridpoints):     30299 (   16718247).
MG BCs: -ve charge blocks (gridpoints):      8143 (    1071126).
MG BCs:     Elided blocks (gridpoints):    166808 (  172987332).
MG BCs: Computational effort saved:  99.9798%.
MG BCs: Charge after coarse-graining:           -9.0009736.
MG DL_MG: Calling solver with defect correction order = 8
MG DL_MG: Solver finished
MG Hartree energy from (\int phi*rho dr):              1423.997820
MG Hartree energy from (\int eps (grad phi)^2 dr):     1423.337403
MG Discrepancy due to finite box and discretization:     -0.660417 (  -0.04638%)
MG Correction to account for finite box:                  0.467845
MG Remaining discrepancy, due to discretization:         -0.192571 (  -0.01352%)
     Trial step:       0.482932407360
             Q1:  -11549.791790946270
 Quadratic coef:       0.005185863565
 Linear coef   :      -0.015139313396
           Qmin:  -11549.792886707783
Quadratic minimum step length (  0.704922620114) accepted
    Initial Ne1:    7192.00035113
      Final Ne1:    7192.00000000

=================== Penalty functional idempotency correction ==================
 RMS occupancy error at iteration   1:  0.000042 (step -0.4997 Ne1=   7192.0000)
            Final RMS occupancy error   :  0.000000 (Ne1=   7192.0000)
               Final occupancy bounds   : [ -0.0000,  1.0000]
================================================================================

    6        -1.154978183750E+04     2.7183E-05     2.4586E-05    -2.6222E-02
MG BCs: +ve charge blocks (gridpoints):     30300 (   16718062).
MG BCs: -ve charge blocks (gridpoints):      8145 (    1071211).
MG BCs:     Elided blocks (gridpoints):    166807 (  172987432).
MG BCs: Computational effort saved:  99.9798%.
MG BCs: Charge after coarse-graining:           -9.0009735.
MG DL_MG: Calling solver with defect correction order = 8
MG DL_MG: Solver finished
MG Hartree energy from (\int phi*rho dr):              1423.704125
MG Hartree energy from (\int eps (grad phi)^2 dr):     1423.043712
MG Discrepancy due to finite box and discretization:     -0.660413 (  -0.04639%)
MG Correction to account for finite box:                  0.467846
MG Remaining discrepancy, due to discretization:         -0.192567 (  -0.01353%)
      ideal mu1:      -0.787699322506
             Q0:  -11549.792896186584
             G0:      -0.017457123522
   RMS gradient:       0.000020311362
MG BCs: +ve charge blocks (gridpoints):     30299 (   16718594).
MG BCs: -ve charge blocks (gridpoints):      8143 (    1070950).
MG BCs:     Elided blocks (gridpoints):    166807 (  172987161).
MG BCs: Computational effort saved:  99.9798%.
MG BCs: Charge after coarse-graining:           -9.0009737.
MG DL_MG: Calling solver with defect correction order = 8
MG DL_MG: Solver finished
MG Hartree energy from (\int phi*rho dr):              1424.397516
MG Hartree energy from (\int eps (grad phi)^2 dr):     1423.737139
MG Discrepancy due to finite box and discretization:     -0.660377 (  -0.04636%)
MG Correction to account for finite box:                  0.467830
MG Remaining discrepancy, due to discretization:         -0.192547 (  -0.01352%)
     Trial step:       0.583463776025
             Q1:  -11549.797481543152
 Quadratic coef:       0.005600242641
 Linear coef   :      -0.010185599209
           Qmin:  -11549.797527523024
Quadratic minimum step length (  0.530595597065) accepted
    Initial Ne1:    7192.00020244
      Final Ne1:    7192.00000000

=================== Penalty functional idempotency correction ==================
 RMS occupancy error at iteration   1:  0.000003 (step -0.5000 Ne1=   7192.0000)
            Final RMS occupancy error   :  0.000000 (Ne1=   7192.0000)
               Final occupancy bounds   : [  0.0000,  1.0000]
================================================================================

    7        -1.154979289619E+04     2.0311E-05     1.8371E-05    -1.1059E-02
MG BCs: +ve charge blocks (gridpoints):     30299 (   16718547).
MG BCs: -ve charge blocks (gridpoints):      8143 (    1070972).
MG BCs:     Elided blocks (gridpoints):    166807 (  172987186).
MG BCs: Computational effort saved:  99.9798%.
MG BCs: Charge after coarse-graining:           -9.0009737.
MG DL_MG: Calling solver with defect correction order = 8
MG DL_MG: Solver finished
MG Hartree energy from (\int phi*rho dr):              1424.334597
MG Hartree energy from (\int eps (grad phi)^2 dr):     1423.674217
MG Discrepancy due to finite box and discretization:     -0.660380 (  -0.04636%)
MG Correction to account for finite box:                  0.467831
MG Remaining discrepancy, due to discretization:         -0.192549 (  -0.01352%)
      ideal mu1:      -0.788067686071
             Q0:  -11549.797527706018
             G0:      -0.010830780587
   RMS gradient:       0.000015999546
MG BCs: +ve charge blocks (gridpoints):     30299 (   16718595).
MG BCs: -ve charge blocks (gridpoints):      8143 (    1070955).
MG BCs:     Elided blocks (gridpoints):    166807 (  172987155).
MG BCs: Computational effort saved:  99.9798%.
MG BCs: Charge after coarse-graining:           -9.0009737.
MG DL_MG: Calling solver with defect correction order = 8
MG DL_MG: Solver finished
MG Hartree energy from (\int phi*rho dr):              1424.382067
MG Hartree energy from (\int eps (grad phi)^2 dr):     1423.721736
MG Discrepancy due to finite box and discretization:     -0.660331 (  -0.04636%)
MG Correction to account for finite box:                  0.467818
MG Remaining discrepancy, due to discretization:         -0.192513 (  -0.01352%)
     Trial step:       0.556402112330
             Q1:  -11549.802142746281
 Quadratic coef:       0.001411228934
 Linear coef   :      -0.006026269197
           Qmin:  -11549.803961091766
Quadratic minimum step length (  1.187981917994) accepted
    Initial Ne1:    7192.00027897
      Final Ne1:    7192.00000000

=================== Penalty functional idempotency correction ==================
 RMS occupancy error at iteration   1:  0.000043 (step -0.4987 Ne1=   7192.0000)
            Final RMS occupancy error   :  0.000000 (Ne1=   7192.0000)
               Final occupancy bounds   : [ -0.0000,  1.0000]
================================================================================

    8        -1.154979752771E+04     1.6000E-05     1.4471E-05    -4.6315E-03
MG BCs: +ve charge blocks (gridpoints):     30300 (   16718692).
MG BCs: -ve charge blocks (gridpoints):      8143 (    1070897).
MG BCs:     Elided blocks (gridpoints):    166806 (  172987116).
MG BCs: Computational effort saved:  99.9798%.
MG BCs: Charge after coarse-graining:           -9.0009738.
MG DL_MG: Calling solver with defect correction order = 8
MG DL_MG: Solver finished
MG Hartree energy from (\int phi*rho dr):              1424.432683
MG Hartree energy from (\int eps (grad phi)^2 dr):     1423.772409
MG Discrepancy due to finite box and discretization:     -0.660274 (  -0.04635%)
MG Correction to account for finite box:                  0.467802
MG Remaining discrepancy, due to discretization:         -0.192472 (  -0.01351%)
      ideal mu1:      -0.788120694144
             Q0:  -11549.803927680128
             G0:      -0.019203954899
   RMS gradient:       0.000021405793
MG BCs: +ve charge blocks (gridpoints):     30302 (   16718486).
MG BCs: -ve charge blocks (gridpoints):      8145 (    1071082).
MG BCs:     Elided blocks (gridpoints):    166804 (  172987137).
MG BCs: Computational effort saved:  99.9798%.
MG BCs: Charge after coarse-graining:           -9.0009737.
MG DL_MG: Calling solver with defect correction order = 8
MG DL_MG: Solver finished
MG Hartree energy from (\int phi*rho dr):              1424.032224
MG Hartree energy from (\int eps (grad phi)^2 dr):     1423.372045
MG Discrepancy due to finite box and discretization:     -0.660178 (  -0.04636%)
MG Correction to account for finite box:                  0.467770
MG Remaining discrepancy, due to discretization:         -0.192408 (  -0.01351%)
     Trial step:       0.813016388877
             Q1:  -11549.814033488277
 Quadratic coef:       0.005507321916
 Linear coef   :      -0.015613130065
           Qmin:  -11549.814993395650
Quadratic minimum step length (  1.152441315295) accepted
    Initial Ne1:    7192.00119464
      Final Ne1:    7192.00000000

=================== Penalty functional idempotency correction ==================
 RMS occupancy error at iteration   1:  0.000325 (step -0.4897 Ne1=   7192.0000)
 RMS occupancy error at iteration   2:  0.000003 (step -0.5000 Ne1=   7192.0000)
            Final RMS occupancy error   :  0.000000 (Ne1=   7192.0000)
               Final occupancy bounds   : [  0.0000,  1.0000]
================================================================================

    9        -1.154980392768E+04     2.1406E-05     1.9361E-05    -6.4000E-03
MG BCs: +ve charge blocks (gridpoints):     30302 (   16718419).
MG BCs: -ve charge blocks (gridpoints):      8147 (    1071147).
MG BCs:     Elided blocks (gridpoints):    166804 (  172987139).
MG BCs: Computational effort saved:  99.9798%.
MG BCs: Charge after coarse-graining:           -9.0009737.
MG DL_MG: Calling solver with defect correction order = 8
MG DL_MG: Solver finished
MG Hartree energy from (\int phi*rho dr):              1423.857087
MG Hartree energy from (\int eps (grad phi)^2 dr):     1423.196953
MG Discrepancy due to finite box and discretization:     -0.660134 (  -0.04636%)
MG Correction to account for finite box:                  0.467755
MG Remaining discrepancy, due to discretization:         -0.192379 (  -0.01351%)
      ideal mu1:      -0.787322247232
   10        -1.154981466185E+04     2.6880E-05     2.4312E-05    -1.0734E-02
Finished density kernel iterations (  10)

Writing density kernel to file "host_10361.vacuum_dkn" ... done


>>> Density kernel optimised for the current NGWF basis:
     ~~~~~~~~~~~~~~~~~~~~~~~~~~~~~~~~~~~~~~~~~~~~~~~~~~~~~~~~~~~
     Total energy                =  -1.15498146618517E+04  Eh
     Estimated bandgap           =  -2.7433E-01  Eh
     RMS occupancy error         =   5.6556E-10
     [H,K] commutator            =   2.4312E-05
     Occupancy bounds            = [  0.000:  1.000]
     ~~~~~~~~~~~~~~~~~~~~~~~~~~~~~~~~~~~~~~~~~~~~~~~~~~~~~~~~~~~




################################################################################
########################### NGWF CG iteration  001 #############################
################################################################################
****** Reciprocal space K.E. preconditioning with k_zero =  3.5000 a0^-1 *******

>>> Checking for convergence of NGWFs:   NOT CONVERGED
  ========================================================================
         NGWF RMS gradient =  1.6484E-03 >  2.0000E-06  | above tolerance
  ========================================================================

>>> Improving NGWFs using line search:
============ Calculation of NGWF S^-1 using Hotelling algorithm ================ 
         Iteration  |  Frobenius norm and Maximum abs value    (of I-S*S_n^-1)   
               1       0.20889882E+00     0.55652201E-02
               2       0.10262013E-02     0.46054881E-04
               3       0.42401164E-07     0.31125388E-08
               4       0.12543575E-12     0.62172489E-14
================================================================================
MG BCs: +ve charge blocks (gridpoints):     29826 (   16656041).
MG BCs: -ve charge blocks (gridpoints):      8139 (    1070603).
MG BCs:     Elided blocks (gridpoints):    167288 (  173050061).
MG BCs: Computational effort saved:  99.9801%.
MG BCs: Charge after coarse-graining:           -9.0009743.
MG DL_MG: Calling solver with defect correction order = 8
MG DL_MG: Solver finished
MG Hartree energy from (\int phi*rho dr):              1391.071598
MG Hartree energy from (\int eps (grad phi)^2 dr):     1390.412477
MG Discrepancy due to finite box and discretization:     -0.659122 (  -0.04738%)
MG Correction to account for finite box:                  0.467690
MG Remaining discrepancy, due to discretization:         -0.191432 (  -0.01376%)
============ Calculation of NGWF S^-1 using Hotelling algorithm ================ 
         Iteration  |  Frobenius norm and Maximum abs value    (of I-S*S_n^-1)   
               1       0.18672472E+01     0.42895412E-01
               2       0.73036454E-01     0.24799033E-02
               3       0.15266203E-03     0.90496169E-05
               4       0.12054722E-08     0.12336931E-09
               5       0.10966576E-12     0.46629367E-14
================================================================================
------------------------------- NGWF line search -------------------------------
RMS gradient                =       0.00164840377222
Trial step length           =               0.122474
Gradient along search dir.  =       -289.21779490336
Functional at step 0        =  -11549.81466185173485
Functional at step 1        =  -11582.44259090325795
Functional predicted        =  -11662.08751924503667
Selected quadratic step     =               0.776390
--------------------------- NGWF line search finished --------------------------
                                               
Writing NGWFs to file "host_10361.vacuum_tightbox_ngwfs"....  done

>>> Optimising kernel for current NGWFs:
   Initial electron number for spin 1:    7227.97628165
     Final electron number for spin 1:    7192.00000000

=================== Penalty functional idempotency correction ==================
 RMS occupancy error at iteration   1:  0.004423 (step -0.4852 Ne1=   7192.0000)
 RMS occupancy error at iteration   2:  0.000075 (step -0.5002 Ne1=   7192.0000)
            Final RMS occupancy error   :  0.000000 (Ne1=   7192.0000)
               Final occupancy bounds   : [  0.0000,  1.0000]
================================================================================

................................................................................
<<<<<<<<<<<<<< LNV (Original version) density kernel optimisation >>>>>>>>>>>>>>
~~~~~~~~~~~~~~~~~~~~~~~~~~~~~~~~~~~~~~~~~~~~~~~~~~~~~~~~~~~~~~~~~~~~~~~~~~~~~~~~
   iter  |      energy (Eh)       | rms gradient |  commutator  |   dE (Eh)
MG BCs: +ve charge blocks (gridpoints):     24294 (   16311603).
MG BCs: -ve charge blocks (gridpoints):      8277 (    1052246).
MG BCs:     Elided blocks (gridpoints):    172826 (  173412856).
MG BCs: Computational effort saved:  99.9829%.
MG BCs: Charge after coarse-graining:           -9.0006830.
MG DL_MG: Calling solver with defect correction order = 8
MG DL_MG: Solver finished
MG Hartree energy from (\int phi*rho dr):              1238.382917
MG Hartree energy from (\int eps (grad phi)^2 dr):     1237.724383
MG Discrepancy due to finite box and discretization:     -0.658534 (  -0.05318%)
MG Correction to account for finite box:                  0.467390
MG Remaining discrepancy, due to discretization:         -0.191145 (  -0.01544%)
      ideal mu1:      -0.726036733931
             Q0:  -11661.157062408864
             G0:      -9.610734545104
   RMS gradient:       0.000476574708
MG BCs: +ve charge blocks (gridpoints):     24390 (   16342713).
MG BCs: -ve charge blocks (gridpoints):      8242 (    1043476).
MG BCs:     Elided blocks (gridpoints):    172730 (  173390516).
MG BCs: Computational effort saved:  99.9829%.
MG BCs: Charge after coarse-graining:           -9.0006741.
MG DL_MG: Calling solver with defect correction order = 8
MG DL_MG: Solver finished
MG Hartree energy from (\int phi*rho dr):              1266.554634
MG Hartree energy from (\int eps (grad phi)^2 dr):     1265.888161
MG Discrepancy due to finite box and discretization:     -0.666473 (  -0.05262%)
MG Correction to account for finite box:                  0.467256
MG Remaining discrepancy, due to discretization:         -0.199217 (  -0.01573%)
     Trial step:       0.967963675224
             Q1:  -11657.017563846312
 Quadratic coef:      13.442340494435
 Linear coef   :      -9.302841931884
           Qmin:  -11662.766582492912
Quadratic minimum step length (  0.334942157958) accepted
    Initial Ne1:    7191.99952912
      Final Ne1:    7192.00000000

=================== Penalty functional idempotency correction ==================
 RMS occupancy error at iteration   1:  0.000357 (step -0.4986 Ne1=   7192.0000)
 RMS occupancy error at iteration   2:  0.000000 (step -0.5000 Ne1=   7192.0000)
            Final RMS occupancy error   :  0.000000 (Ne1=   7192.0000)
               Final occupancy bounds   : [  0.0000,  1.0000]
================================================================================

    1        -1.166115706241E+04     4.7657E-04     4.3105E-04
MG BCs: +ve charge blocks (gridpoints):     24329 (   16322420).
MG BCs: -ve charge blocks (gridpoints):      8259 (    1049341).
MG BCs:     Elided blocks (gridpoints):    172791 (  173404944).
MG BCs: Computational effort saved:  99.9829%.
MG BCs: Charge after coarse-graining:           -9.0006799.
MG DL_MG: Calling solver with defect correction order = 8
MG DL_MG: Solver finished
MG Hartree energy from (\int phi*rho dr):              1246.654764
MG Hartree energy from (\int eps (grad phi)^2 dr):     1245.993632
MG Discrepancy due to finite box and discretization:     -0.661132 (  -0.05303%)
MG Correction to account for finite box:                  0.467316
MG Remaining discrepancy, due to discretization:         -0.193816 (  -0.01555%)
      ideal mu1:      -0.734981889809
             Q0:  -11662.722083063098
             G0:      -0.983507567969
   RMS gradient:       0.000154049621
MG BCs: +ve charge blocks (gridpoints):     24332 (   16323183).
MG BCs: -ve charge blocks (gridpoints):      8263 (    1049758).
MG BCs:     Elided blocks (gridpoints):    172788 (  173403764).
MG BCs: Computational effort saved:  99.9829%.
MG BCs: Charge after coarse-graining:           -9.0006796.
MG DL_MG: Calling solver with defect correction order = 8
MG DL_MG: Solver finished
MG Hartree energy from (\int phi*rho dr):              1248.512883
MG Hartree energy from (\int eps (grad phi)^2 dr):     1247.851395
MG Discrepancy due to finite box and discretization:     -0.661488 (  -0.05298%)
MG Correction to account for finite box:                  0.467346
MG Remaining discrepancy, due to discretization:         -0.194143 (  -0.01555%)
     Trial step:       0.569396032832
             Q1:  -11662.902497308794
 Quadratic coef:       0.379591061765
 Linear coef   :      -0.560005307461
           Qmin:  -11662.928625034165
Quadratic minimum step length (  0.420010944081) accepted
    Initial Ne1:    7191.99993829
      Final Ne1:    7192.00000000

=================== Penalty functional idempotency correction ==================
 RMS occupancy error at iteration   1:  0.000141 (step -0.4994 Ne1=   7192.0000)
            Final RMS occupancy error   :  0.000000 (Ne1=   7192.0000)
               Final occupancy bounds   : [ -0.0000,  1.0000]
================================================================================

    2        -1.166272208306E+04     1.5405E-04     1.3933E-04    -1.5650E+00
MG BCs: +ve charge blocks (gridpoints):     24330 (   16323010).
MG BCs: -ve charge blocks (gridpoints):      8263 (    1049636).
MG BCs:     Elided blocks (gridpoints):    172790 (  173404059).
MG BCs: Computational effort saved:  99.9829%.
MG BCs: Charge after coarse-graining:           -9.0006796.
MG DL_MG: Calling solver with defect correction order = 8
MG DL_MG: Solver finished
MG Hartree energy from (\int phi*rho dr):              1248.023617
MG Hartree energy from (\int eps (grad phi)^2 dr):     1247.362226
MG Discrepancy due to finite box and discretization:     -0.661391 (  -0.05300%)
MG Correction to account for finite box:                  0.467338
MG Remaining discrepancy, due to discretization:         -0.194053 (  -0.01555%)
      ideal mu1:      -0.736257503273
             Q0:  -11662.929149992648
             G0:      -0.152845301471
   RMS gradient:       0.000060030466
MG BCs: +ve charge blocks (gridpoints):     24328 (   16322027).
MG BCs: -ve charge blocks (gridpoints):      8264 (    1050129).
MG BCs:     Elided blocks (gridpoints):    172792 (  173404549).
MG BCs: Computational effort saved:  99.9829%.
MG BCs: Charge after coarse-graining:           -9.0006797.
MG DL_MG: Calling solver with defect correction order = 8
MG DL_MG: Solver finished
MG Hartree energy from (\int phi*rho dr):              1247.394785
MG Hartree energy from (\int eps (grad phi)^2 dr):     1246.733431
MG Discrepancy due to finite box and discretization:     -0.661354 (  -0.05302%)
MG Correction to account for finite box:                  0.467340
MG Remaining discrepancy, due to discretization:         -0.194014 (  -0.01555%)
     Trial step:       0.489032274299
             Q1:  -11662.976649777731
 Quadratic coef:       0.027246500311
 Linear coef   :      -0.074746285394
           Qmin:  -11662.980413522977
Quadratic minimum step length (  0.670789744090) accepted
    Initial Ne1:    7192.00062630
      Final Ne1:    7192.00000000

=================== Penalty functional idempotency correction ==================
 RMS occupancy error at iteration   1:  0.000066 (step -0.4998 Ne1=   7192.0000)
            Final RMS occupancy error   :  0.000000 (Ne1=   7192.0000)
               Final occupancy bounds   : [ -0.0000,  1.0000]
================================================================================

    3        -1.166292914999E+04     6.0030E-05     5.4296E-05    -2.0707E-01
MG BCs: +ve charge blocks (gridpoints):     24328 (   16321713).
MG BCs: -ve charge blocks (gridpoints):      8264 (    1050287).
MG BCs:     Elided blocks (gridpoints):    172792 (  173404705).
MG BCs: Computational effort saved:  99.9829%.
MG BCs: Charge after coarse-graining:           -9.0006797.
MG DL_MG: Calling solver with defect correction order = 8
MG DL_MG: Solver finished
MG Hartree energy from (\int phi*rho dr):              1247.160930
MG Hartree energy from (\int eps (grad phi)^2 dr):     1246.499589
MG Discrepancy due to finite box and discretization:     -0.661341 (  -0.05303%)
MG Correction to account for finite box:                  0.467341
MG Remaining discrepancy, due to discretization:         -0.194000 (  -0.01556%)
      ideal mu1:      -0.735162748458
             Q0:  -11662.980509374640
             G0:      -0.036804144684
   RMS gradient:       0.000029448190
MG BCs: +ve charge blocks (gridpoints):     24326 (   16321718).
MG BCs: -ve charge blocks (gridpoints):      8264 (    1050265).
MG BCs:     Elided blocks (gridpoints):    172794 (  173404722).
MG BCs: Computational effort saved:  99.9829%.
MG BCs: Charge after coarse-graining:           -9.0006798.
MG DL_MG: Calling solver with defect correction order = 8
MG DL_MG: Solver finished
MG Hartree energy from (\int phi*rho dr):              1247.284848
MG Hartree energy from (\int eps (grad phi)^2 dr):     1246.623627
MG Discrepancy due to finite box and discretization:     -0.661221 (  -0.05301%)
MG Correction to account for finite box:                  0.467332
MG Remaining discrepancy, due to discretization:         -0.193889 (  -0.01554%)
     Trial step:       0.572745872206
             Q1:  -11662.990029281005
 Quadratic coef:       0.011559515582
 Linear coef   :      -0.021079421948
           Qmin:  -11662.990119250298
Quadratic minimum step length (  0.522217035102) accepted
    Initial Ne1:    7192.00024958
      Final Ne1:    7192.00000000

=================== Penalty functional idempotency correction ==================
 RMS occupancy error at iteration   1:  0.000020 (step -0.4999 Ne1=   7192.0000)
            Final RMS occupancy error   :  0.000000 (Ne1=   7192.0000)
               Final occupancy bounds   : [ -0.0000,  1.0000]
================================================================================

    4        -1.166298050937E+04     2.9448E-05     2.6635E-05    -5.1359E-02
MG BCs: +ve charge blocks (gridpoints):     24326 (   16321704).
MG BCs: -ve charge blocks (gridpoints):      8264 (    1050270).
MG BCs:     Elided blocks (gridpoints):    172794 (  173404731).
MG BCs: Computational effort saved:  99.9829%.
MG BCs: Charge after coarse-graining:           -9.0006798.
MG DL_MG: Calling solver with defect correction order = 8
MG DL_MG: Solver finished
MG Hartree energy from (\int phi*rho dr):              1247.273775
MG Hartree energy from (\int eps (grad phi)^2 dr):     1246.612544
MG Discrepancy due to finite box and discretization:     -0.661232 (  -0.05301%)
MG Correction to account for finite box:                  0.467333
MG Remaining discrepancy, due to discretization:         -0.193898 (  -0.01555%)
      ideal mu1:      -0.735218397183
             Q0:  -11662.990124726552
             G0:      -0.013401161860
   RMS gradient:       0.000017791852
MG BCs: +ve charge blocks (gridpoints):     24326 (   16322267).
MG BCs: -ve charge blocks (gridpoints):      8263 (    1050057).
MG BCs:     Elided blocks (gridpoints):    172794 (  173404381).
MG BCs: Computational effort saved:  99.9829%.
MG BCs: Charge after coarse-graining:           -9.0006796.
MG DL_MG: Calling solver with defect correction order = 8
MG DL_MG: Solver finished
MG Hartree energy from (\int phi*rho dr):              1247.710090
MG Hartree energy from (\int eps (grad phi)^2 dr):     1247.048908
MG Discrepancy due to finite box and discretization:     -0.661183 (  -0.05299%)
MG Correction to account for finite box:                  0.467323
MG Remaining discrepancy, due to discretization:         -0.193860 (  -0.01554%)
     Trial step:       0.546898209222
             Q1:  -11662.994025593856
 Quadratic coef:       0.003428204118
 Linear coef   :      -0.007329071423
           Qmin:  -11662.994041885950
Quadratic minimum step length (  0.584599968159) accepted
    Initial Ne1:    7192.00012080
      Final Ne1:    7192.00000000

=================== Penalty functional idempotency correction ==================
 RMS occupancy error at iteration   1:  0.000012 (step -0.4999 Ne1=   7192.0000)
            Final RMS occupancy error   :  0.000000 (Ne1=   7192.0000)
               Final occupancy bounds   : [ -0.0000,  1.0000]
================================================================================

    5        -1.166299012473E+04     1.7792E-05     1.6092E-05    -9.6154E-03
MG BCs: +ve charge blocks (gridpoints):     24326 (   16322286).
MG BCs: -ve charge blocks (gridpoints):      8263 (    1050052).
MG BCs:     Elided blocks (gridpoints):    172794 (  173404367).
MG BCs: Computational effort saved:  99.9829%.
MG BCs: Charge after coarse-graining:           -9.0006797.
MG DL_MG: Calling solver with defect correction order = 8
MG DL_MG: Solver finished
MG Hartree energy from (\int phi*rho dr):              1247.740196
MG Hartree energy from (\int eps (grad phi)^2 dr):     1247.079016
MG Discrepancy due to finite box and discretization:     -0.661179 (  -0.05299%)
MG Correction to account for finite box:                  0.467322
MG Remaining discrepancy, due to discretization:         -0.193857 (  -0.01554%)
      ideal mu1:      -0.735587497447
             Q0:  -11662.994043264072
             G0:      -0.004900042261
   RMS gradient:       0.000010759406
MG BCs: +ve charge blocks (gridpoints):     24326 (   16322225).
MG BCs: -ve charge blocks (gridpoints):      8264 (    1050090).
MG BCs:     Elided blocks (gridpoints):    172794 (  173404390).
MG BCs: Computational effort saved:  99.9829%.
MG BCs: Charge after coarse-graining:           -9.0006797.
MG DL_MG: Calling solver with defect correction order = 8
MG DL_MG: Solver finished
MG Hartree energy from (\int phi*rho dr):              1247.640707
MG Hartree energy from (\int eps (grad phi)^2 dr):     1246.979538
MG Discrepancy due to finite box and discretization:     -0.661168 (  -0.05299%)
MG Correction to account for finite box:                  0.467314
MG Remaining discrepancy, due to discretization:         -0.193854 (  -0.01554%)
     Trial step:       0.565434943824
             Q1:  -11662.995858121314
 Quadratic coef:       0.000955797879
 Linear coef   :      -0.002770655121
           Qmin:  -11662.996051149308
Quadratic minimum step length (  0.819537925627) accepted
    Initial Ne1:    7192.00009495
      Final Ne1:    7192.00000000

=================== Penalty functional idempotency correction ==================
 RMS occupancy error at iteration   1:  0.000013 (step -0.4997 Ne1=   7192.0000)
            Final RMS occupancy error   :  0.000000 (Ne1=   7192.0000)
               Final occupancy bounds   : [ -0.0000,  1.0000]
================================================================================

    6        -1.166299404326E+04     1.0759E-05     9.7316E-06    -3.9185E-03
MG BCs: +ve charge blocks (gridpoints):     24325 (   16322180).
MG BCs: -ve charge blocks (gridpoints):      8264 (    1050119).
MG BCs:     Elided blocks (gridpoints):    172795 (  173404406).
MG BCs: Computational effort saved:  99.9829%.
MG BCs: Charge after coarse-graining:           -9.0006797.
MG DL_MG: Calling solver with defect correction order = 8
MG DL_MG: Solver finished
MG Hartree energy from (\int phi*rho dr):              1247.595856
MG Hartree energy from (\int eps (grad phi)^2 dr):     1246.934693
MG Discrepancy due to finite box and discretization:     -0.661163 (  -0.05299%)
MG Correction to account for finite box:                  0.467311
MG Remaining discrepancy, due to discretization:         -0.193852 (  -0.01554%)
      ideal mu1:      -0.735476551363
             Q0:  -11662.996050745016
             G0:      -0.003535605529
   RMS gradient:       0.000009140808
MG BCs: +ve charge blocks (gridpoints):     24326 (   16322030).
MG BCs: -ve charge blocks (gridpoints):      8266 (    1050160).
MG BCs:     Elided blocks (gridpoints):    172794 (  173404515).
MG BCs: Computational effort saved:  99.9829%.
MG BCs: Charge after coarse-graining:           -9.0006797.
MG DL_MG: Calling solver with defect correction order = 8
MG DL_MG: Solver finished
MG Hartree energy from (\int phi*rho dr):              1247.547412
MG Hartree energy from (\int eps (grad phi)^2 dr):     1246.886227
MG Discrepancy due to finite box and discretization:     -0.661185 (  -0.05300%)
MG Correction to account for finite box:                  0.467321
MG Remaining discrepancy, due to discretization:         -0.193864 (  -0.01554%)
     Trial step:       0.680731504294
             Q1:  -11662.996823057067
 Quadratic coef:       0.001634486020
 Linear coef   :      -0.002406798070
           Qmin:  -11662.996936753963
Quadratic minimum step length (  0.501192194736) accepted
    Initial Ne1:    7192.00006296
      Final Ne1:    7192.00000000

=================== Penalty functional idempotency correction ==================
 RMS occupancy error at iteration   1:  0.000001 (step -0.5000 Ne1=   7192.0000)
            Final RMS occupancy error   :  0.000000 (Ne1=   7192.0000)
               Final occupancy bounds   : [  0.0000,  1.0000]
================================================================================

    7        -1.166299605075E+04     9.1408E-06     8.2677E-06    -2.0075E-03
MG BCs: +ve charge blocks (gridpoints):     24326 (   16322075).
MG BCs: -ve charge blocks (gridpoints):      8266 (    1050144).
MG BCs:     Elided blocks (gridpoints):    172794 (  173404486).
MG BCs: Computational effort saved:  99.9829%.
MG BCs: Charge after coarse-graining:           -9.0006797.
MG DL_MG: Calling solver with defect correction order = 8
MG DL_MG: Solver finished
MG Hartree energy from (\int phi*rho dr):              1247.560100
MG Hartree energy from (\int eps (grad phi)^2 dr):     1246.898920
MG Discrepancy due to finite box and discretization:     -0.661179 (  -0.05300%)
MG Correction to account for finite box:                  0.467318
MG Remaining discrepancy, due to discretization:         -0.193861 (  -0.01554%)
      ideal mu1:      -0.735369866504
             Q0:  -11662.996936760144
             G0:      -0.002290941206
   RMS gradient:       0.000007357929
MG BCs: +ve charge blocks (gridpoints):     24326 (   16322071).
MG BCs: -ve charge blocks (gridpoints):      8266 (    1050156).
MG BCs:     Elided blocks (gridpoints):    172794 (  173404478).
MG BCs: Computational effort saved:  99.9829%.
MG BCs: Charge after coarse-graining:           -9.0006797.
MG DL_MG: Calling solver with defect correction order = 8
MG DL_MG: Solver finished
MG Hartree energy from (\int phi*rho dr):              1247.520018
MG Hartree energy from (\int eps (grad phi)^2 dr):     1246.858827
MG Discrepancy due to finite box and discretization:     -0.661191 (  -0.05300%)
MG Correction to account for finite box:                  0.467321
MG Remaining discrepancy, due to discretization:         -0.193871 (  -0.01554%)
     Trial step:       0.584103857771
             Q1:  -11662.997979713487
 Quadratic coef:       0.000295194253
 Linear coef   :      -0.001338147596
           Qmin:  -11662.998453252225
Quadratic minimum step length (  1.323903098560) accepted
    Initial Ne1:    7192.00010755
      Final Ne1:    7192.00000000

=================== Penalty functional idempotency correction ==================
 RMS occupancy error at iteration   1:  0.000018 (step -0.4992 Ne1=   7192.0000)
            Final RMS occupancy error   :  0.000000 (Ne1=   7192.0000)
               Final occupancy bounds   : [ -0.0000,  1.0000]
================================================================================

    8        -1.166299693676E+04     7.3579E-06     6.6551E-06    -8.8602E-04
MG BCs: +ve charge blocks (gridpoints):     24326 (   16322055).
MG BCs: -ve charge blocks (gridpoints):      8266 (    1050183).
[...]
MG Hartree energy from (\int phi*rho dr):              1203.537667
MG Hartree energy from (\int eps (grad phi)^2 dr):     1203.338297
MG Discrepancy due to finite box and discretization:     -0.199370 (  -0.01657%)
MG Correction to account for finite box:                  0.006405
MG Remaining discrepancy, due to discretization:         -0.192964 (  -0.01603%)
             Q2:  -11696.910069037578
  Cubic LS coeff:       0.938871523081
Predicted energy:  -11696.910069037618
Cubic minimum step length accepted
    Initial Ne1:    7192.00000000
      Final Ne1:    7192.00000000

=================== Penalty functional idempotency correction ==================
 RMS occupancy error at iteration   1:  0.000000 (step -0.5000 Ne1=   7192.0000)
            Final RMS occupancy error   :  0.000000 (Ne1=   7192.0000)
               Final occupancy bounds   : [  0.0000,  1.0000]
================================================================================

    7        -1.169691006903E+04     8.7942E-09     7.9541E-09    -1.8626E-09

Reusing previously generated solute cavity.
MG BCs: +ve charge blocks (gridpoints):     28603 (   18465226).
MG BCs: -ve charge blocks (gridpoints):      8254 (    1020424).
MG BCs:     Elided blocks (gridpoints):    168517 (  171291055).
MG BCs: Computational effort saved:  99.9807%.
MG BCs: Charge after coarse-graining:           -9.0009595.
MG DL_MG: Calling solver with defect correction order = 8
MG DL_MG: Solver finished
MG Hartree energy from (\int phi*rho dr):              1203.537662
MG Hartree energy from (\int eps (grad phi)^2 dr):     1203.338292
MG Discrepancy due to finite box and discretization:     -0.199370 (  -0.01657%)
MG Correction to account for finite box:                  0.006405
MG Remaining discrepancy, due to discretization:         -0.192964 (  -0.01603%)
      ideal mu1:      -0.485606227692
             Q0:  -11696.910069037811
             G0:      -0.000000003694
   RMS gradient:       0.000000008176

Reusing previously generated solute cavity.
MG BCs: +ve charge blocks (gridpoints):     28603 (   18465226).
MG BCs: -ve charge blocks (gridpoints):      8254 (    1020424).
MG BCs:     Elided blocks (gridpoints):    168517 (  171291055).
MG BCs: Computational effort saved:  99.9807%.
MG BCs: Charge after coarse-graining:           -9.0009595.
MG DL_MG: Calling solver with defect correction order = 8
MG DL_MG: Solver finished
MG Hartree energy from (\int phi*rho dr):              1203.537644
MG Hartree energy from (\int eps (grad phi)^2 dr):     1203.338274
MG Discrepancy due to finite box and discretization:     -0.199369 (  -0.01657%)
MG Correction to account for finite box:                  0.006405
MG Remaining discrepancy, due to discretization:         -0.192964 (  -0.01603%)
     Trial step:       0.633899773164
             Q1:  -11696.910069039674
 Quadratic coef:       0.000000000478
 Linear coef   :      -0.000000002341
           Qmin:  -11696.910069040676
Quadratic minimum step length (  1.551224475157) accepted
    Initial Ne1:    7192.00000000
      Final Ne1:    7192.00000000

=================== Penalty functional idempotency correction ==================
 RMS occupancy error at iteration   1:  0.000000 (step -0.5000 Ne1=   7192.0000)
            Final RMS occupancy error   :  0.000000 (Ne1=   7192.0000)
               Final occupancy bounds   : [  0.0000,  1.0000]
================================================================================

    8        -1.169691006904E+04     8.1763E-09     7.3953E-09    -3.2596E-09

Reusing previously generated solute cavity.
MG BCs: +ve charge blocks (gridpoints):     28603 (   18465226).
MG BCs: -ve charge blocks (gridpoints):      8254 (    1020423).
MG BCs:     Elided blocks (gridpoints):    168517 (  171291056).
MG BCs: Computational effort saved:  99.9807%.
MG BCs: Charge after coarse-graining:           -9.0009595.
MG DL_MG: Calling solver with defect correction order = 8
MG DL_MG: Solver finished
MG Hartree energy from (\int phi*rho dr):              1203.537618
MG Hartree energy from (\int eps (grad phi)^2 dr):     1203.338248
MG Discrepancy due to finite box and discretization:     -0.199369 (  -0.01657%)
MG Correction to account for finite box:                  0.006405
MG Remaining discrepancy, due to discretization:         -0.192964 (  -0.01603%)
      ideal mu1:      -0.485606210116
             Q0:  -11696.910069040023
             G0:      -0.000000004014
   RMS gradient:       0.000000011922

Reusing previously generated solute cavity.
MG BCs: +ve charge blocks (gridpoints):     28603 (   18465226).
MG BCs: -ve charge blocks (gridpoints):      8254 (    1020424).
MG BCs:     Elided blocks (gridpoints):    168517 (  171291055).
MG BCs: Computational effort saved:  99.9807%.
MG BCs: Charge after coarse-graining:           -9.0009595.
MG DL_MG: Calling solver with defect correction order = 8
MG DL_MG: Solver finished
MG Hartree energy from (\int phi*rho dr):              1203.537643
MG Hartree energy from (\int eps (grad phi)^2 dr):     1203.338273
MG Discrepancy due to finite box and discretization:     -0.199370 (  -0.01657%)
MG Correction to account for finite box:                  0.006405
MG Remaining discrepancy, due to discretization:         -0.192964 (  -0.01603%)
     Trial step:       0.991625354117
             Q1:  -11696.910069038509
 Quadratic coef:       0.000000005493
 Linear coef   :      -0.000000003981
           Qmin:  -11696.910069040743
Quadratic minimum step length (  0.359277026523) accepted
    Initial Ne1:    7192.00000000
      Final Ne1:    7192.00000000

=================== Penalty functional idempotency correction ==================
 RMS occupancy error at iteration   1:  0.000000 (step -0.5000 Ne1=   7192.0000)
            Final RMS occupancy error   :  0.000000 (Ne1=   7192.0000)
               Final occupancy bounds   : [  0.0000,  1.0000]
================================================================================

    9        -1.169691006904E+04     1.1922E-08     1.0783E-08    -2.2119E-09

Reusing previously generated solute cavity.
MG BCs: +ve charge blocks (gridpoints):     28603 (   18465225).
MG BCs: -ve charge blocks (gridpoints):      8254 (    1020424).
MG BCs:     Elided blocks (gridpoints):    168517 (  171291056).
MG BCs: Computational effort saved:  99.9807%.
MG BCs: Charge after coarse-graining:           -9.0009595.
MG DL_MG: Calling solver with defect correction order = 8
MG DL_MG: Solver finished
MG Hartree energy from (\int phi*rho dr):              1203.537627
MG Hartree energy from (\int eps (grad phi)^2 dr):     1203.338257
MG Discrepancy due to finite box and discretization:     -0.199369 (  -0.01657%)
MG Correction to account for finite box:                  0.006405
MG Remaining discrepancy, due to discretization:         -0.192964 (  -0.01603%)
      ideal mu1:      -0.485606216834
   10        -1.169691006904E+04     7.7377E-09     6.9985E-09    -5.8208E-10
Finished density kernel iterations (  10)

Writing density kernel to file "host_10361.dkn" ... done


>>> Density kernel optimised for the current NGWF basis:
     ~~~~~~~~~~~~~~~~~~~~~~~~~~~~~~~~~~~~~~~~~~~~~~~~~~~~~~~~~~~
     Total energy                =  -1.16969100690406E+04  Eh
     Estimated bandgap           =   8.4255E-02  Eh
     RMS occupancy error         =   3.5793E-16
     [H,K] commutator            =   6.9985E-09
     Occupancy bounds            = [  0.000:  1.000]
     ~~~~~~~~~~~~~~~~~~~~~~~~~~~~~~~~~~~~~~~~~~~~~~~~~~~~~~~~~~~




################################################################################
########################### NGWF CG iteration  004 #############################
################################################################################
****** Reciprocal space K.E. preconditioning with k_zero =  3.5000 a0^-1 *******

>>> Checking for convergence of NGWFs: 
           ........................................................
           |         *** NGWF optimisation converged ***          |
           | RMS NGWF gradient =    0.00000173841096              |
           | Criteria satisfied:                                  |
           | -> RMS NGWF gradient lower than set threshold.       |
           ========================================================

Reusing previously generated solute cavity.
MG BCs: +ve charge blocks (gridpoints):     28603 (   18465225).
MG BCs: -ve charge blocks (gridpoints):      8254 (    1020424).
MG BCs:     Elided blocks (gridpoints):    168517 (  171291056).
MG BCs: Computational effort saved:  99.9807%.
MG BCs: Charge after coarse-graining:           -9.0009595.
MG DL_MG: Calling solver with defect correction order = 8
MG DL_MG: Solver finished
MG Hartree energy from (\int phi*rho dr):              1203.537627
MG Hartree energy from (\int eps (grad phi)^2 dr):     1203.338257
MG Discrepancy due to finite box and discretization:     -0.199369 (  -0.01657%)
MG Correction to account for finite box:                  0.006405
MG Remaining discrepancy, due to discretization:         -0.192964 (  -0.01603%)

================================================================================
           ---------------- ENERGY COMPONENTS (Eh) ----------------
           | Kinetic                    :     8554.08345365893547 |
           | Pseudo. (local,OBC,corr'd) :    -5068.87354429545394 |
           | Pseudopotential (non-local):     1404.68937039573530 |
           | Hartree (molecular)        :     1203.53762683114019 |
           | Exchange-correlation       :    -3381.85465566562561 |
           | Ion-ion (open BC)          :   826007.95363009837456 |
           | Smeared ion non-self corr. :  -825959.90187950909603 |
           | Smeared ion self corr.     :   -14457.16956389741972 |
           | Solvent cavitation energy  :        2.22536099889024 |
           | Solute-solvent dis-rep en. :       -1.59986765612717 |
           | Total                      :   -11696.91006904059577 |
           --------------------------------------------------------
           ------ LOCAL ENERGY COMPONENTS FROM MATRIX TRACES ------
           | Pseudopotential (local)    :    -5068.87354429544757 |
           | Hartree                    :    -2003.15476170390502 |
           --------------------------------------------------------
           Integrated density           :     7191.99999999903685
           Integrated density tr(KS)    :     7192.00000000000091
================================================================================


                        <<<<< CALCULATION SUMMARY >>>>>                         
|ITER|    RMS GRADIENT   |     TOTAL ENERGY    |   step   |     Epredicted              
   0     0.00004221369710 -11696.84165577439126   0.625694 -11696.90099424102664        
   1     0.00000874857120 -11696.90975823719054   0.063120 -11696.91001534165844        
   2     0.00000388304719 -11696.91005820373539   0.011832 -11696.91006769803425        
   3     0.00000173841096 -11696.91006904060487  <-- CG                                 

=================== Finished the calculation in solvent ========================
= Adjusting the following parameters: 
= read_denskern: F
= read_tightbox_ngwfs: F
= maxit_pen: 0 (restored to user-specified value)
= restart read filename prefix: ""
= restart write filename prefix: ""
================================================================================

================================================================================
IS: Calculation in solvent completed (NGWFs converged).      

Individual components of total energy in solvent:     hartree           kcal/mol
- Usual non-electrostatic DFT terms:    -12901.07318921451042    -8095545.476180
- Electrostatic fixed charge energy:      1203.53762683114019      755231.246843
- Apolar cavitation energy:                  2.22536099889024        1396.435080
- Apolar dispersion-repulsion energy:       -1.59986765612717       -1003.932090
 -------------------------------------------------------------------------------
- Total energy in solvent:              -11696.91006904060487    -7339921.726347

Components of total energy in solvent:                hartree           kcal/mol
- Usual non-electrostatic DFT terms:    -12901.07318921451042    -8095545.476180
- Electrostatic energy:                   1203.53762683114019      755231.246843
- Apolar energy terms:                       0.62549334276307         392.502990
 -------------------------------------------------------------------------------
- Total energy in solvent:              -11696.91006904060487    -7339921.726347

Calculation of free energy of solvation:              hartree           kcal/mol
- Total energy in solvent:         (+)  -11696.91006904060487    -7339921.726347
- Total energy in vacuum:          (-)  -11693.00977583287749    -7337474.255460
 -------------------------------------------------------------------------------
- Total free energy of solvation:           -3.90029320772737       -2447.470886

Components of polar term in f.e. of solvation:        hartree           kcal/mol
- Electrostatic:                            -4.46833793240990       -2803.924325
- Change in nonelectrostatic DFT terms:     -0.05744861808307         -36.049551
 -------------------------------------------------------------------------------
- Polar term in f.e. of solvation:          -4.52578655049297       -2839.973876

Components of free energy of solvation:               hartree           kcal/mol
- Polar term in f.e. of solvation: (+)      -4.52578655049297       -2839.973876
- Apolar (cavitation, dis., rep.): (+)       0.62549334276307         392.502990
 -------------------------------------------------------------------------------
- Total free energy of solvation:           -3.90029320772989       -2447.470886
================================================================================


------------------------------ TIMING INFORMATION ------------------------------
AVERAGE TIME:   32815.653s on     60 node(s)                                    
TOTAL TIME:     32815.653s on     60 node(s)                                    
================= AVERAGE TIMINGS FROM ALL NODES (CUMULATIVE) ==================
|| TAG                                    #calls    cpu time   %total  Gflops ||
|| work_imbalance                       :     1        0.00s   0.000%  ------ ||
|| sparse_set_to_garbage                :   164        0.03s   0.000%  ------ ||
|| parallel_prepare_fd_halos_request    :  1827        0.03s   0.000%  ------ ||
|| ngwfs_initialise_from_radial         :     1        0.09s   0.000%  ------ ||
|| parallel_prepare_fd_halos_alloc      :  1827        0.13s   0.000%  ------ ||
|| basis_extract_function_from_box      :  3360        0.15s   0.000%  ------ ||
|| parallel_prepare_fd_halos_satisfy    :  1827        0.62s   0.002%  ------ ||
|| pseudopotentials_nonlocal_mat        :    28        2.38s   0.007%  ------ ||
|| restart_kernel_read                  :     1        4.13s   0.013%  ------ ||
|| openbc_locps_radial                  :     1        4.62s   0.014%  ------ ||
|| restart_ngwfs_tightbox_input         :     1        8.12s   0.025%  ------ ||
|| density_init_guess_real              :     1        9.19s   0.028%  ------ ||
|| parallel_prepare_fd_halos_comms_imbal:  1827        9.96s   0.030%  ------ ||
|| parallel_prepare_fd_halos_clear      :  1827       18.28s   0.056%  ------ ||
|| parallel_prepare_fd_halos_comms_wait :  1827       22.40s   0.068%  ------ ||
|| sparse_init                          :     2       22.76s   0.069%  ------ ||
|| projectors_func_ovlp_box             :    28       24.90s   0.076%  ------ ||
|| function_ops_brappd_ketppd           :    28       27.55s   0.084%  ------ ||
|| projectors_init_fftbox_recip         :   133       30.74s   0.094%  ------ ||
|| palser_mano_kernel_optimise          :     1       33.09s   0.101%  ------ ||
|| basis_copy_function_to_box           : 54533       39.43s   0.120%  ------ ||
|| ngwf_gradient_coeffs                 :    15       48.39s   0.147%  ------ ||
|| fourier_apply_box_pair               :  4776       49.74s   0.152% 555.903 ||
|| parallel_prepare_fd_halos            :  1827       51.43s   0.157%  ------ ||
|| pseudo_make_structure_factor         :     2       62.79s   0.191%  ------ ||
|| sparse_embed_hotelling_invert_embed  :    28       76.67s   0.234%  ------ ||
|| restart_kernel_write                 :    16       90.86s   0.277%  ------ ||
|| finite_difference_derivative         :  1827      121.82s   0.371%  ------ ||
|| integrals_kinetic                    :    28      141.31s   0.431%  ------ ||
|| projectors_gradient_batch            :   105      142.65s   0.435%  ------ ||
|| sparse_trace                         :  4948      183.58s   0.559%  ------ ||
|| basis_dot_function_with_box          : 8.407M     186.25s   0.568%  ------ ||
|| openbc_locps_on_grid                 :     2      264.94s   0.807%  ------ ||
|| kernel_purify                        :   464      287.45s   0.876%  ------ ||
|| basis_add_function_to_box            : 17.49M     410.49s   1.251%  ------ ||
|| lnv_gradient_norm                    :   150      426.62s   1.300%  ------ ||
|| kernel_fix                           :   150      502.21s   1.530%  ------ ||
|| hamiltonian_energy_components        :     4      531.08s   1.618%  ------ ||
|| ngwf_gradient_build_batch            :   105      717.39s   2.186%  ------ ||
|| integrals_locpot_mat_els_batch       :  1113      731.48s   2.229%  ------ ||
|| ngwf_gradient_batch                  :   105     1006.04s   3.066%  ------ ||
|| density_batch_row_sums               :  2121     1008.26s   3.073%  ------ ||
|| restart_ngwfs_tightbox_output        :    13     1148.30s   3.499%  ------ ||
|| ngwf_gradient_lnv                    :    15     1154.45s   3.518%  ------ ||
|| cell_grid_deposit_box_real           : 34897     1220.17s   3.718%  ------ ||
|| fourier_apply_cell_forward           :  8513     1336.68s   4.073%  86.691 ||
|| cell_grid_extract_box_real           : 38581     1430.41s   4.359%  ------ ||
|| fourier_apply_cell_backward          :  9123     1464.15s   4.462%  84.815 ||
|| density_fftbox_deposit_to_cell       : 33027     1769.63s   5.393%  ------ ||
|| sparse_product                       :  6213     1778.08s   5.418%  ------ ||
|| potential_apply_to_ngwf_batch        :  1113     3357.75s  10.232%  ------ ||
|| density_fftbox_interpolate_multiply  : 33027     3514.12s  10.709%  ------ ||
|| xc_energy_potential                  :   304     3683.28s  11.224%  ------ ||
|| integrals_locpot_dbl_grid            :   159     4103.56s  12.505%  ------ ||
|| multigrid_prepare_bound_cond         :   304     4170.27s  12.708%  ------ ||
|| fourier_apply_box                    : 113.8k    4325.92s  13.182% 738.908 ||
|| nlxc_vdw_energy                      :   608     6034.84s  18.390%  ------ ||
|| density_batch_interp_deposit         :  2121     6101.06s  18.592%  ------ ||
|| dl_mg_solver_calls                   :   304     7345.72s  22.385%  ------ ||
|| density_on_dbl_grid                  :   303     7493.93s  22.836%  ------ ||
|| multigrid_calculate_hartree          :   304    11686.68s  35.613%  ------ ||
|| hamiltonian_lhxc_calculate           :   299    22750.07s  69.327%  ------ ||
|| lnv_denskernel_optimise_cg           :    15    27609.96s  84.137%  ------ ||
|| ngwf_cg_optimise                     :     2    31817.47s  96.958%  ------ ||
|| total_time                           :     1    32815.65s 100.000%  ------ ||
================================================================================
Overhead of generating timer report: 
- 0 ms averaging over threads,
- 15 ms ensuring consistency across MPI ranks,
- 1 ms printing in order.

Job completed: 10-03-2020 23:10 (-0000)

Application 39745396 resources: utime ~6565939s, stime ~221637s, Rss ~3796744, inblocks ~333918532, outblocks ~61376719
