 +---------------------------------------------------------------+
 |                                                               |
 |        ####### #     # ####### ####### ####### ######         |
 |        #     # ##    # #          #    #       #     #        |
 |        #     # # #   # #          #    #       #     #        |
 |        #     # #  #  # #####      #    #####   ######         |
 |        #     # #   # # #          #    #       #              |
 |        #     # #    ## #          #    #       #              |
 |        ####### #     # #######    #    ####### #              |
 |                                                               |
 |        Linear-Scaling Ab Initio Total Energy Program          |
 |                                                               |
 |          Release for academic collaborators of ODG            |
 |                                             Version 5.3.2.6.  |
 |                                                               |
 +---------------------------------------------------------------+
 |                                                               |
 |  Authors:                                                     |
 |  Jacek Dziedzic, Peter D. Haynes, Nicholas D. M. Hine,        |
 |  Arash. A. Mostofi, Mike C. Payne and Chris-Kriton Skylaris   |
 |                                                               |
 |  Contributors:                                                |
 |  J. Aarons, L. Andrinopoulos, P. W. Avraam, R. A. Bell,       |
 |  A. Bhandari, G. A. Bramley, R. J. Charlton, S. J. Clark,     |
 |  R. J. Clements, G. C. Constantinescu, F. Corsetti,           |
 |  N. Corsini, O. Dieguez, S. M. M. Dubois, K. K. B. Duff,      |
 |  J. M. Escartin, A. Greco, H. Helal, Q. O. Hill, L. P. Lee,   |
 |  J.-H. Li, E. B. Linscott, G. Moynihan, D. D. O`Regan,        |
 |  O. K. Okan, M. J. S. Phipps, C. J. Pickard,                  |
 |  J. C. A. Prentice, M. I. J. Probert, L. E. Ratcliff,         |
 |  M. Robinson, A. Ruiz Serrano, J. S. Spencer, E. W. Tait,     |
 |  G. Teobaldi, D. Turban, V. Vitale, K. A. Wilkinson,          |
 |  C. Weber, J. C. Womack, N. Yeung and T. J. Zuehlsdorff       |
 |                                                               |
 |                                   Copyright (c) 2004-2019     |
 |                                                               |
 |  Please cite:                                                 |
 |  "Introducing ONETEP: Linear-scaling density functional       |
 |   simulations on parallel computers".                         |
 |   C.-K. Skylaris, P. D. Haynes, A. A. Mostofi, M. C. Payne.   |
 |   J. Chem. Phys. 122 084119 (2005).                           |
 |                                                               |
 |          in all publications arising from your use of ONETEP. |
 |                                                               |
 +---------------------------------------------------------------+
 |                                                               |
 |   ONETEP is based on developments described in the following  |
 |   publications:                                               |
 |                                                               |
 |  "Nonorthogonal generalized Wannier function pseudopotential  |
 |   plane-wave method".                                         |
 |   C.-K. Skylaris, A. A. Mostofi, P. D. Haynes, O. Dieguez,    |
 |   M. C. Payne.                                                |
 |   Phys. Rev. B 66 035119 (2002).                              |
 |                                                               |
 |  "Preconditioned iterative minimization for linear-scaling    |
 |   electronic structure calculations".                         |
 |   A. A. Mostofi, P. D. Haynes, C.-K. Skylaris, M. C. Payne.   |
 |   J. Chem. Phys. 119(17), pp.8842-8848 (2003).                |
 |                                                               |
 |  "Total-energy calculations on a real space grid with         |
 |   localized functions and a plane-wave basis".                |
 |   A. A. Mostofi, C.-K. Skylaris, P. D. Haynes, M. C. Payne.   |
 |   Comput. Phys. Commun. 147, pp.788-802 (2002).               |
 |                                                               |
 |  "Accurate kinetic energy evaluation in electronic structure  |
 |   calculations with localized functions on real space grids"  |
 |   C.-K. Skylaris, A. A. Mostofi, P. D. Haynes, C. J. Pickard, |
 |   M. C. Payne.                                                |
 |   Comput. Phys. Commun. 140, pp.315-322 (2001).               |
 |                                                               |
 |  "Accurate ionic forces and geometry optimization in linear-  |
 |   scaling density-functional theory with local orbitals"      |
 |   N. D. M. Hine, M. Robinson, P. D. Haynes, C.-K. Skylaris,   |
 |   M. C. Payne, and A. A. Mostofi.                             |
 |   Phys. Rev. B 83 195102 (2011).                              |
 |                                                               |
 +---------------------------------------------------------------+

Job started: 19-03-2020 09:38 (-0000)
 
Reading parameters from file "host_11881.dat" ...... done

If your calculation crashes here, before "Checking processes and threads..."
is displayed, then your stack size is insufficient.
If so, use "ulimit -s unlimited" at runtime.
You can disable this check with "check_stack_size F".

Checking processes and threads...
   Determining the default number of threads...
      No default threads set at compilation time: defaulting to 1.
      OpenMP library call suggests 4 threads.
      Hybrid MPI-OpenMP compilation detected.
      Number of MPI processes > 1.
      OMP_NUM_THREADS environment variable present and
      its value matches the one obtained from the OpenMP library call.
      Using this value as default.
      Default threads: 4
      Default applies to threads_max and threads_num_fftboxes.
      Settings in the input file override this default.
   ... done

   Running with 60 MPI processes.
   There are 6 MPI processes running on the same node as the root process.
   Each MPI process is using: 
               1 threads for simulation cell FFTs.
               1 threads for parallel FFT box operations.
               4 threads for loops over batched FFT box operations.
               4 threads in other parallel regions.
... done

Basic input checks...... done

Reading geometry and species blocks from file "host_11881.dat" ...
  <species_atomic_set> block not found: NGWF initialisation set to SOLVE
IS: Dielectric excluded regions:
    - NONE.
    
  Number of PPD points along a3 set to 1.  This is 
  the default value, it may have been provided also in the input file.
... done
 Writing xyz coordinates to file "host_11881.xyz" ... done


--------------------------------------------------------------------------------
---------------------------------- INPUT FILE ----------------------------------
--------------------------------------------------------------------------------

cutoff_energy       : 800 eV                                                    
xc_functional VV10                                                              
task SINGLEPOINT                                                                
write_xyz true                                                                  
output_detail VERBOSE                                                           
ngwf_threshold_orig : 0.000002                                                  
kernel_cutoff       : 1000                                                      
k_zero              : 3.5                                                       
elec_cg_max 0                                                                   
occ_mix 1.0                                                                     
dispersion 0                                                                    
maxit_ngwf_cg 40                                                                
minit_lnv 10                                                                    
maxit_lnv 10                                                                    
write_denskern T                                                                
write_tightbox_ngwfs T                                                          
charge 9                                                                        
is_implicit_solvent T                                                           
is_auto_solvation T                                                             
is_include_apolar T                                                             
is_smeared_ion_rep T                                                            
is_solvent_surf_tension 4.7624E-5 Ha/bohr**2                                    
is_apolar_scaling_factor 0.281075                                               
is_solvation_beta 1.3                                                           
is_density_threshold 0.00035                                                    
is_bulk_permittivity 78.54                                                      
is_dielectric_model fix_initial                                                 
is_smeared_ion_width 0.8                                                        
mg_defco_fd_order 8                                                             
is_bc_coarseness 10                                                             
is_bc_surface_coarseness 1                                                      
fine_grid_scale 2.0                                                             
%block species                                                                  
N   N   7 4 8.0                                                                 
H   H   1 1 8.0                                                                 
C   C   6 4 8.0                                                                 
S   S  16 9 8.0                                                                 
O   O   8 4 8.0                                                                 
%endblock species                                                               
%block species_pot                                                              
N   N_00.recpot                                                                 
H   H_04.recpot                                                                 
C   C_01.recpot                                                                 
S   S_00.recpot                                                                 
O   O_02.recpot                                                                 
%endblock species_pot                                                           
%block lattice_cart                                                             
139.252   0.000   0.000                                                         
0.000 142.425   0.000                                                           
0.000   0.000   162.84                                                          
%endblock lattice_cart                                                          
%block positions_abs                                                            
     Hash =   000002811950151907616879
%endblock positions_abs                                                         

--------------------------------------------------------------------------------
-------------------------------- END INPUT FILE --------------------------------
--------------------------------------------------------------------------------


 
 ESDF WARNING(1): "kernelcutoff" (esdf_physical) has no units. Assume "bohr".
 ESDF WARNING(2): "kzero" (esdf_physical) has no units. Assume "1/bohr".
 ESDF WARNING(3
 ): "issmearedionwidth" (esdf_physical) has no units. Assume "bohr".
<<<<<<<<<<<<<<<<<<<<<<<<<<<<<<<<< Full system >>>>>>>>>>>>>>>>>>>>>>>>>>>>>>>>>>
<<<<<<<<<<<<<<<<<<<<<<<<< Pseudopotential information >>>>>>>>>>>>>>>>>>>>>>>>>>
File: N_00.recpot [ 2001 points up to Gmax=  52.9 (1/bohr)]
  Atomic number:  7;  ionic charge:  5.000000
    Shell 1: l = 0; rc = 1.48 bohr
File: H_04.recpot [ 2001 points up to Gmax=  52.9 (1/bohr)]
  Atomic number:  1;  ionic charge:  1.000000
    Local potential
File: C_01.recpot [ 2001 points up to Gmax=  52.9 (1/bohr)]
  Atomic number:  6;  ionic charge:  4.000000
    Shell 1: l = 0; rc = 1.48 bohr
File: S_00.recpot [ 2001 points up to Gmax=  52.9 (1/bohr)]
  Atomic number: 16;  ionic charge:  6.000000
    Shell 1: l = 0; rc = 1.90 bohr
    Shell 2: l = 2; rc = 1.84 bohr
File: O_02.recpot [ 2001 points up to Gmax=  52.9 (1/bohr)]
  Atomic number:  8;  ionic charge:  6.000000
    Shell 1: l = 0; rc = 1.31 bohr
<<<<<<<<<<<<<<<<<<<<<<<<<<<<<<<<<<<<<<<<>>>>>>>>>>>>>>>>>>>>>>>>>>>>>>>>>>>>>>>>

-------------------------- Atom counting information ---------------------------
Symbol    Natoms    Nngwfs    Nprojs
  N        236       944       236
  H       1311      1311         0
  C        810      3240       810
  S          6        54        36
  O        239       956       239
.......   ......    ......    ......
Totals:   2602      6505      1321
--------------------------------------------------------------------------------

=============================== PSINC grid sizes ===============================
                      Simulation cell:  275 x 280 x 320
                              FFT-box:   99 x  99 x  99
                                  PPD:    5 x   5 x   1
Grid space d1=  0.506370909091a0 (KE cutoff=  29.62556Eh = 806.15239eV)
Grid space d2=  0.508660714286a0 (KE cutoff=  29.35943Eh = 798.91072eV)
Grid space d3=  0.508875000000a0 (KE cutoff=  29.33471Eh = 798.23802eV)
================================================================================

********************* Fourier parallelisation information **********************
       Coarse grid (whole simulation cell) dimensions:    275   280   320
          Real-space ('12') slabs/node (min max mean):      5     6     5
         Recip-space ('23') slabs/node (min max mean):      2     3     2
********************************************************************************

********************* Fourier parallelisation information **********************
       Double grid (whole simulation cell) dimensions:    550   560   640
          Real-space ('12') slabs/node (min max mean):     10    11    10
         Recip-space ('23') slabs/node (min max mean):      4     5     4
********************************************************************************
ONETEP fine grid is 550 x 560 x 640 gridpoints, 139.2520 x 142.4250 x 162.8400 bohr.
FD multigrid is     545 x 553 x 633 gridpoints, 137.9861 x 140.6447 x 161.0589 bohr.


Calculating local pseudopotential in open BC on a radial grid ...
Discrepancy between calculated realspace psloc and -Z/x on [5a0,257.280a0]:
max |rel. diff| # avg |rel. diff| #  avg rel. diff #  f # pseudopotential file
 0.000256370913    0.000003612608   0.000000072509   55  'N_00.recpot'
 0.000395389207    0.000016224277  -0.000000076597   55  'H_04.recpot'
 0.000377360759    0.000017565724   0.000000149252   55  'C_01.recpot'
 0.000469715301    0.000020587835   0.000000455518   55  'S_00.recpot'
 0.000665442002    0.000026079317   0.000000158685   55  'O_02.recpot'
... done

Atom SCF Calculation for N  : Z (AE atom) =   7 : Z (PS atom) =   5
Config String:
Orbitals (num,occ):  2     2.00 3.00
Orbitals   (num,l):  2        0    1
Real-space Grid (nr,dr,rmax): 1203    0.0066555740    8.0000000000
Spherical Bessel Basis (nsws,lmax,cutoff):   47    1  176.3951722778
Confining potential (l,width,scale):  0    3.0000000000  100.0000000000
Confining potential (l,width,scale):  1    3.0000000000  100.0000000000
  1         -4.7366890484   -3.4501654188    7.0523828109   -1.9619316308
  2         -9.7225420322   -2.0763080851    8.3068355706   -2.2908832437
  3         -9.7134243553   -2.1270543915    8.2534567806   -2.2819809971
  4         -9.7235185949   -2.1427582218    8.2369947390   -2.2802814234
  5         -9.7258373845   -2.1477905863    8.2317116314   -2.2798536235
  6         -9.7268932325   -2.1503512400    8.2290229806   -2.2796830099
  7         -9.7273189469   -2.1516634231    8.2276451699   -2.2796169657
  8         -9.7274675212   -2.1523365544    8.2269384796   -2.2795940092
  9         -9.7275041773   -2.1526817003    8.2265762312   -2.2795881371
 10         -9.7275008637   -2.1528585007    8.2263907413   -2.2795884060
 11         -9.7274868305   -2.1529489544    8.2262958841   -2.2795903922
 12         -9.7274755655   -2.1529859230    8.2262571347   -2.2795920452
 13         -9.7274662327   -2.1530083995    8.2262335832   -2.2795934369
 14         -9.7274589439   -2.1530220534    8.2262192809   -2.2795945372
 15         -9.7274534633   -2.1530303399    8.2262106039   -2.2795953734
 16         -9.7274494492   -2.1530353634    8.2262053452   -2.2795959920
 17         -9.7274465654   -2.1530384053    8.2262021621   -2.2795964406
 18         -9.7274445237   -2.1530402447    8.2262002378   -2.2795967611
 19         -9.7274430947   -2.1530413553    8.2261990762   -2.2795969874
 20         -9.7274421038   -2.1530420249    8.2261983762   -2.2795971458
 21         -9.7274414219   -2.1530424277    8.2261979551   -2.2795972557
 22         -9.7274409555   -2.1530426696    8.2261977024   -2.2795973315
 23         -9.7274406382   -2.1530428144    8.2261975510   -2.2795973835
 24         -9.7274404232   -2.1530429010    8.2261974606   -2.2795974190
 25         -9.7274402783   -2.1530429525    8.2261974067   -2.2795974432
 26         -9.7274401808   -2.1530429831    8.2261973748   -2.2795974596
Atom SCF converged after  26 iterations to a total energy of     -9.72744018

Atom SCF Calculation for H  : Z (AE atom) =   1 : Z (PS atom) =   1
Config String:
Orbitals (num,occ):  1     1.00
Orbitals   (num,l):  1        0
Real-space Grid (nr,dr,rmax): 1203    0.0066555740    8.0000000000
Spherical Bessel Basis (nsws,lmax,cutoff):   47    0  176.3951722778
Confining potential (l,width,scale):  0    3.0000000000  100.0000000000
  1         -0.3178661827   -0.2469879004    0.2820953124   -0.2487802071
  2         -0.3961824611   -0.2455070831    0.2902209900   -0.2567664324
  3         -0.4406462424   -0.2424227551    0.2948173255   -0.2622129794
  4         -0.4569739054   -0.2416771342    0.2960118236   -0.2639986016
  5         -0.4627745219   -0.2416114401    0.2961916694   -0.2644992007
  6         -0.4648634749   -0.2416666130    0.2961598921   -0.2646237065
  7         -0.4656347011   -0.2417155160    0.2961132802   -0.2646490719
  8         -0.4659271144   -0.2417438448    0.2960836537   -0.2646515522
  9         -0.4660407254   -0.2417580788    0.2960682004   -0.2646501482
 10         -0.4660857867   -0.2417647566    0.2960608087   -0.2646488305
 11         -0.4661039568   -0.2417677717    0.2960574330   -0.2646480606
 12         -0.4661113773   -0.2417691018    0.2960559329   -0.2646476727
 13         -0.4661144368   -0.2417696800    0.2960552775   -0.2646474903
 14         -0.4661157072   -0.2417699291    0.2960549942   -0.2646474079
 15         -0.4661162374   -0.2417700356    0.2960548727   -0.2646473715
 16         -0.4661164596   -0.2417700810    0.2960548208   -0.2646473556
 17         -0.4661165529   -0.2417701003    0.2960547987   -0.2646473488
Atom SCF converged after  17 iterations to a total energy of     -0.46611655

Atom SCF Calculation for C  : Z (AE atom) =   6 : Z (PS atom) =   4
Config String:
Orbitals (num,occ):  2     2.00 2.00
Orbitals   (num,l):  2        0    1
Real-space Grid (nr,dr,rmax): 1203    0.0066555740    8.0000000000
Spherical Bessel Basis (nsws,lmax,cutoff):   47    1  176.3951722778
Confining potential (l,width,scale):  0    3.0000000000  100.0000000000
Confining potential (l,width,scale):  1    3.0000000000  100.0000000000
  1         -5.2812238291   -1.3293161250    4.5135249990   -1.4716766231
  2         -5.3996591362   -1.3542148509    4.4876064308   -1.4645117417
  3         -5.4111847148   -1.3757224423    4.4645718036   -1.4593107263
  4         -5.4199203659   -1.3833334895    4.4563636676   -1.4579885221
  5         -5.4226876204   -1.3865104950    4.4529090432   -1.4575385943
  6         -5.4235070726   -1.3878131251    4.4514866831   -1.4573882877
  7         -5.4237271252   -1.3883401868    4.4509094528   -1.4573411661
  8         -5.4237693051   -1.3885521813    4.4506766230   -1.4573281030
  9         -5.4237656430   -1.3886371046    4.4505830704   -1.4573255254
 10         -5.4237547927   -1.3886709976    4.4505456041   -1.4573257244
 11         -5.4237478594   -1.3886817763    4.4505336403   -1.4573262476
 12         -5.4237429748   -1.3886873440    4.4505274417   -1.4573266921
 13         -5.4237397042   -1.3886902144    4.4505242350   -1.4573270222
 14         -5.4237375865   -1.3886916908    4.4505225792   -1.4573272507
 15         -5.4237362473   -1.3886924482    4.4505217259   -1.4573274021
 16         -5.4237354152   -1.3886928356    4.4505212873   -1.4573274996
 17         -5.4237349050   -1.3886930331    4.4505210623   -1.4573275610
 18         -5.4237345954   -1.3886931333    4.4505209473   -1.4573275991
 19         -5.4237344092   -1.3886931840    4.4505208887   -1.4573276224
 20         -5.4237342980   -1.3886932094    4.4505208590   -1.4573276366
 21         -5.4237342320   -1.3886932221    4.4505208440   -1.4573276451
Atom SCF converged after  21 iterations to a total energy of     -5.42373423

Atom SCF Calculation for S  : Z (AE atom) =  16 : Z (PS atom) =   6
Config String:
Orbitals (num,occ):  3     2.00 4.00 0.00
Orbitals   (num,l):  3        0    1    2
Real-space Grid (nr,dr,rmax): 1203    0.0066555740    8.0000000000
Spherical Bessel Basis (nsws,lmax,cutoff):   47    2  176.3951722778
Confining potential (l,width,scale):  0    3.0000000000  100.0000000000
Confining potential (l,width,scale):  1    3.0000000000  100.0000000000
Confining potential (l,width,scale):  2    3.0000000000  100.0000000000
  1        -12.4916237786   -1.0485914554   10.1554312477   -2.4822447765
  2         -9.9747083603   -2.4807597367    8.3138131863   -2.0618837268
  3        -10.1811370131   -2.3153496392    8.4906092179   -2.1137756843
  4        -10.1856385898   -2.2984912006    8.5093862195   -2.1218167101
  5        -10.1891317560   -2.2894783333    8.5195006030   -2.1261392389
  6        -10.1911142562   -2.2849160124    8.5246320974   -2.1283733378
  7        -10.1921506977   -2.2826473329    8.5271859473   -2.1295140514
  8        -10.1926851273   -2.2815219985    8.5284534218   -2.1300957983
  9        -10.1929632671   -2.2809620806    8.5290843811   -2.1303933136
 10        -10.1931100895   -2.2806822783    8.5293998452   -2.1305460626
 11        -10.1931885828   -2.2805418782    8.5295582201   -2.1306248009
 12        -10.1932309625   -2.2804711729    8.5296380158   -2.1306655459
 13        -10.1932540142   -2.2804354512    8.5296783476   -2.1306867097
 14        -10.1932666242   -2.2804173494    8.5296987927   -2.1306977435
 15        -10.1932735535   -2.2804081489    8.5297091868   -2.1307035175
 16        -10.1932773756   -2.2804034581    8.5297144867   -2.1307065505
 17        -10.1932794908   -2.2804010586    8.5297171976   -2.1307081499
 18        -10.1932806648   -2.2803998268    8.5297185890   -2.1307089965
 19        -10.1932813181   -2.2803991920    8.5297193057   -2.1307094466
 20        -10.1932816826   -2.2803988634    8.5297196763   -2.1307096867
 21        -10.1932818864   -2.2803986926    8.5297198688   -2.1307098154
 22        -10.1932820006   -2.2803986034    8.5297199692   -2.1307098847
 23        -10.1932820648   -2.2803985565    8.5297200219   -2.1307099221
Atom SCF converged after  23 iterations to a total energy of    -10.19328206

Atom SCF Calculation for O  : Z (AE atom) =   8 : Z (PS atom) =   6
Config String:
Orbitals (num,occ):  2     2.00 4.00
Orbitals   (num,l):  2        0    1
Real-space Grid (nr,dr,rmax): 1203    0.0066555740    8.0000000000
Spherical Bessel Basis (nsws,lmax,cutoff):   47    1  176.3951722778
Confining potential (l,width,scale):  0    3.0000000000  100.0000000000
Confining potential (l,width,scale):  1    3.0000000000  100.0000000000
  1         -1.9497477053   -7.5870966769   10.1554312477   -2.4822447765
  2        -15.9466298225   -3.1778351734   13.6353006614   -3.2931224232
  3        -16.0387051750   -3.0909030611   13.7305651010   -3.3194522996
  4        -15.9025031450   -3.1083023605   13.7128101414   -3.3180850501
  5        -15.8912953362   -3.1033022259   13.7185404266   -3.3206942093
  6        -15.8793912992   -3.1043100674   13.7175820250   -3.3209366960
  7        -15.8748748605   -3.1043975610   13.7175531476   -3.3211845618
  8        -15.8725354084   -3.1044655610   13.7175148333   -3.3213149154
  9        -15.8713193866   -3.1045129589   13.7174824743   -3.3213832909
 10        -15.8706863385   -3.1045436851   13.7174593895   -3.3214192053
 11        -15.8703562731   -3.1045627330   13.7174442347   -3.3214381098
 12        -15.8701839150   -3.1045741887   13.7174347673   -3.3214480859
 13        -15.8700937727   -3.1045809294   13.7174290448   -3.3214533647
 14        -15.8700465571   -3.1045848305   13.7174256662   -3.3214561658
 15        -15.8700217888   -3.1045870593   13.7174237063   -3.3214576563
 16        -15.8700087767   -3.1045883194   13.7174225849   -3.3214584516
 17        -15.8700019307   -3.1045890258   13.7174219502   -3.3214588771
 18        -15.8699983237   -3.1045894190   13.7174215942   -3.3214591053
 19        -15.8699964206   -3.1045896366   13.7174213960   -3.3214592281
 20        -15.8699954151   -3.1045897563   13.7174212864   -3.3214592942
 21        -15.8699948832   -3.1045898219   13.7174212260   -3.3214593299
 22        -15.8699946014   -3.1045898577   13.7174211930   -3.3214593493
 23        -15.8699944520   -3.1045898771   13.7174211750   -3.3214593597
 24        -15.8699943726   -3.1045898877   13.7174211652   -3.3214593654
Atom SCF converged after  24 iterations to a total energy of    -15.86999437

========================== Calculation in vacuum ==============================
= Adjusting the following parameters: 
= is_implicit_solvent: F
= is_include_apolar: F
= write_denskern: T
= write_tightbox_ngwfs: T
= restart read filename prefix: ""
= restart write filename prefix: "vacuum_"
===============================================================================

Determining parallel strategy ...
... using space-filling curve
... NGWF load balancing: max    109;  min    108;  average    108
... Projector load balancing: max     25;  min     21;  average     22
... done
Calculating direct Ion-Ion energy ...
Ion-Ion Energy        :    825041.54096750821918
Basis initialisation ...... NGWF spheres initialised
... Projector spheres initialised
... NGWF tight boxes initialised
... Tight-boxes gathered
... NGWF basis size (local,global):    1375556  82749403
... Nonlocal pseudopotential projector initialisation
... done

========================== Sparse matrix information ===========================
                        Overlap matrix filling:   6.66%
                        Density kernel filling: 100.00%
              NGWF-Proj overlap matrix filling:   1.77%
                    Hamiltonian matrix filling:   7.52%
                  NGWF diagonal matrix filling:   0.05%
                             KS matrix filling: 100.00% 
                           KSKS matrix filling: 100.00% 
================================================================================

Sparse matrix initialisation ... done

Generating smeared ion density ... done
Smeared ion self correction:     -14457.169564
Smeared ion non-self correction: -824993.543831
NGWF initialisation ...... done
============ Calculation of NGWF S^-1 using Hotelling algorithm ================ 
         Iteration  |  Frobenius norm and Maximum abs value    (of I-S*S_n^-1)   
               1       0.78465308E+02     0.98248605E+00
               2       0.76600867E+02     0.96540112E+00
               3       0.73580933E+02     0.93245566E+00
               4       0.69288914E+02     0.87144494E+00
               5       0.63949123E+02     0.76690817E+00
               6       0.57963164E+02     0.70185113E+00
               7       0.51962710E+02     0.67002039E+00
               8       0.46412982E+02     0.64791592E+00
               9       0.40302589E+02     0.60961950E+00
              10       0.31968207E+02     0.54195915E+00
              11       0.21367499E+02     0.43118995E+00
              12       0.10840959E+02     0.28080084E+00
              13       0.35546536E+01     0.12884384E+00
              14       0.57066986E+00     0.41276716E-01
              15       0.31179035E-01     0.47927775E-02
              16       0.25540719E-03     0.67185372E-04
              17       0.40274840E-07     0.13289185E-07
              18       0.92583624E-13     0.55511151E-14
================================================================================
Calculating local pseudopotential in open BC on the fine real space grid ...
... done

MG BCs: +ve charge blocks (gridpoints):     20176 (   15835097).
MG BCs: -ve charge blocks (gridpoints):      7944 (    1058017).
MG BCs:     Elided blocks (gridpoints):    176944 (  173883591).
MG BCs: Computational effort saved:  99.9853%.
MG BCs: Charge after coarse-graining:           -9.0002236.
MG DL_MG: Calling solver with defect correction order = 8
MG DL_MG: Solver finished
MG Hartree energy from (\int phi*rho dr):              1452.397683
MG Hartree energy from (\int eps (grad phi)^2 dr):     1451.770655
MG Discrepancy due to finite box and discretization:     -0.627028 (  -0.04317%)
MG Correction to account for finite box:                  0.464007
MG Remaining discrepancy, due to discretization:         -0.163021 (  -0.01122%)
Up spin density kernel initialisation ... 
======= Optimisation of K by Palser-Manolopoulos canonical purification ======== 
         Iteration  |  Band structure energy |    c_n   
               1       -2568.61893360127306    0.5274976
               2       -2744.26007914427237    0.5176279
               3       -2924.77559965958153    0.5158481
               4       -3076.10827755273476    0.5294335
               5       -3169.65335347912333    0.5660393
               6       -3208.87535322569056    0.6123090
               7       -3222.15188660997410    0.6238698
               8       -3227.95218813853080    0.6209014
               9       -3230.80992227270508    0.6330060
              10       -3232.00977375268167    0.6552555
              11       -3232.48038748388353    0.6727596
              12       -3232.68212737454223    0.6816419
              13       -3232.77753212902735    0.6604857
              14       -3232.83096218680203    0.5919609
              15       -3232.86571749202994    0.5069054
              16       -3232.88177468037793    0.4701679
              17       -3232.88316038196444    0.5174490
              18       -3232.88388375673776    0.5696120
              19       -3232.88425390400926    0.5747666
              20       -3232.88448011177979    0.5410568
              21       -3232.88467713567024    0.5110402
              22       -3232.88482628325983    0.5007713
              23       -3232.88489681411465    0.5000036
              24       -3232.88490867440123    0.5000000
              25       -3232.88490894829010    0.5000000
Termination criterion satisfied: band energy change below threshold.
Final occupancy bounds: [    0.00000000016436:    0.99999999999961]
Closest occupancy to 0.5:     0.99999999996835
================================================================================
... done

Writing density kernel to file "host_11881.vacuum_dkn" ... done

>>> Optimising kernel for current NGWFs:
   Initial electron number for spin 1:    7192.00000000
     Final electron number for spin 1:    7192.00000000

=================== Penalty functional idempotency correction ==================
 RMS occupancy error at iteration   1:  0.000000 (step -0.5000 Ne1=   7192.0000)
            Final RMS occupancy error   :  0.000000 (Ne1=   7192.0000)
               Final occupancy bounds   : [  0.0000,  1.0000]
================================================================================

................................................................................
<<<<<<<<<<<<<< LNV (Original version) density kernel optimisation >>>>>>>>>>>>>>
~~~~~~~~~~~~~~~~~~~~~~~~~~~~~~~~~~~~~~~~~~~~~~~~~~~~~~~~~~~~~~~~~~~~~~~~~~~~~~~~
   iter  |      energy (Eh)       | rms gradient |  commutator  |   dE (Eh)
MG BCs: +ve charge blocks (gridpoints):     30462 (   17031838).
MG BCs: -ve charge blocks (gridpoints):      8336 (    1086312).
MG BCs:     Elided blocks (gridpoints):    166649 (  172658555).
MG BCs: Computational effort saved:  99.9797%.
MG BCs: Charge after coarse-graining:           -9.0009550.
MG DL_MG: Calling solver with defect correction order = 8
MG DL_MG: Solver finished
MG Hartree energy from (\int phi*rho dr):              1417.267246
MG Hartree energy from (\int eps (grad phi)^2 dr):     1416.578228
MG Discrepancy due to finite box and discretization:     -0.689019 (  -0.04862%)
MG Correction to account for finite box:                  0.480995
MG Remaining discrepancy, due to discretization:         -0.208023 (  -0.01468%)
      ideal mu1:      -0.698287752802
             Q0:  -11521.671567200101
             G0:    -148.101439755565
   RMS gradient:       0.001870821444
MG BCs: +ve charge blocks (gridpoints):     30473 (   17109592).
MG BCs: -ve charge blocks (gridpoints):      8206 (    1069732).
MG BCs:     Elided blocks (gridpoints):    166637 (  172597381).
MG BCs: Computational effort saved:  99.9797%.
MG BCs: Charge after coarse-graining:           -9.0009751.
MG DL_MG: Calling solver with defect correction order = 8
MG DL_MG: Solver finished
MG Hartree energy from (\int phi*rho dr):              1436.330120
MG Hartree energy from (\int eps (grad phi)^2 dr):     1435.659931
MG Discrepancy due to finite box and discretization:     -0.670189 (  -0.04666%)
MG Correction to account for finite box:                  0.479409
MG Remaining discrepancy, due to discretization:         -0.190780 (  -0.01328%)
     Trial step:       0.500000000000
             Q1:  -11533.551423107507
 Quadratic coef:      62.170863970377
 Linear coef   :     -74.050719877783
           Qmin:  -11543.721723673038
Quadratic minimum step length (  0.297770994115) accepted
    Initial Ne1:    7192.00000000
      Final Ne1:    7192.00000000

=================== Penalty functional idempotency correction ==================
 RMS occupancy error at iteration   1:  0.003566 (step -0.4877 Ne1=   7192.0000)
 RMS occupancy error at iteration   2:  0.000030 (step -0.5001 Ne1=   7192.0000)
            Final RMS occupancy error   :  0.000000 (Ne1=   7192.0000)
               Final occupancy bounds   : [  0.0000,  1.0000]
================================================================================

    1        -1.152167156720E+04     1.8708E-03     1.6921E-03
MG BCs: +ve charge blocks (gridpoints):     30470 (   17079418).
MG BCs: -ve charge blocks (gridpoints):      8263 (    1077119).
MG BCs:     Elided blocks (gridpoints):    166640 (  172620168).
MG BCs: Computational effort saved:  99.9797%.
MG BCs: Charge after coarse-graining:           -9.0009668.
MG DL_MG: Calling solver with defect correction order = 8
MG DL_MG: Solver finished
MG Hartree energy from (\int phi*rho dr):              1420.493728
MG Hartree energy from (\int eps (grad phi)^2 dr):     1419.816992
MG Discrepancy due to finite box and discretization:     -0.676736 (  -0.04764%)
MG Correction to account for finite box:                  0.479931
MG Remaining discrepancy, due to discretization:         -0.196805 (  -0.01385%)
      ideal mu1:      -0.740058132497
             Q0:  -11544.164618783281
             G0:     -12.459427136393
   RMS gradient:       0.000538722333
MG BCs: +ve charge blocks (gridpoints):     30477 (   17096388).
MG BCs: -ve charge blocks (gridpoints):      8237 (    1072209).
MG BCs:     Elided blocks (gridpoints):    166633 (  172608108).
MG BCs: Computational effort saved:  99.9797%.
MG BCs: Charge after coarse-graining:           -9.0009706.
MG DL_MG: Calling solver with defect correction order = 8
MG DL_MG: Solver finished
MG Hartree energy from (\int phi*rho dr):              1424.687823
MG Hartree energy from (\int eps (grad phi)^2 dr):     1424.015750
MG Discrepancy due to finite box and discretization:     -0.672072 (  -0.04717%)
MG Correction to account for finite box:                  0.478705
MG Remaining discrepancy, due to discretization:         -0.193367 (  -0.01357%)
     Trial step:       0.385856834924
             Q1:  -11547.111464996357
 Quadratic coef:       1.860708906737
 Linear coef   :      -4.807555119813
           Qmin:  -11547.269965641453
Quadratic minimum step length (  0.498473456954) accepted
    Initial Ne1:    7191.99986635
      Final Ne1:    7192.00000000

=================== Penalty functional idempotency correction ==================
 RMS occupancy error at iteration   1:  0.001934 (step -0.4923 Ne1=   7192.0000)
 RMS occupancy error at iteration   2:  0.000015 (step -0.5003 Ne1=   7192.0000)
            Final RMS occupancy error   :  0.000000 (Ne1=   7192.0000)
               Final occupancy bounds   : [  0.0000,  1.0000]
================================================================================

    2        -1.154416461878E+04     5.3872E-04     4.8726E-04    -2.2493E+01
MG BCs: +ve charge blocks (gridpoints):     30471 (   17101202).
MG BCs: -ve charge blocks (gridpoints):      8231 (    1070830).
MG BCs:     Elided blocks (gridpoints):    166639 (  172604673).
MG BCs: Computational effort saved:  99.9797%.
MG BCs: Charge after coarse-graining:           -9.0009718.
MG DL_MG: Calling solver with defect correction order = 8
MG DL_MG: Solver finished
MG Hartree energy from (\int phi*rho dr):              1425.965222
MG Hartree energy from (\int eps (grad phi)^2 dr):     1425.294418
MG Discrepancy due to finite box and discretization:     -0.670803 (  -0.04704%)
MG Correction to account for finite box:                  0.478364
MG Remaining discrepancy, due to discretization:         -0.192439 (  -0.01350%)
      ideal mu1:      -0.764273107031
             Q0:  -11547.310108775273
             G0:      -2.003445809748
   RMS gradient:       0.000216193314
MG BCs: +ve charge blocks (gridpoints):     30470 (   17100859).
MG BCs: -ve charge blocks (gridpoints):      8236 (    1071665).
MG BCs:     Elided blocks (gridpoints):    166640 (  172604181).
MG BCs: Computational effort saved:  99.9797%.
MG BCs: Charge after coarse-graining:           -9.0009714.
MG DL_MG: Calling solver with defect correction order = 8
MG DL_MG: Solver finished
MG Hartree energy from (\int phi*rho dr):              1424.262528
MG Hartree energy from (\int eps (grad phi)^2 dr):     1423.592440
MG Discrepancy due to finite box and discretization:     -0.670088 (  -0.04705%)
MG Correction to account for finite box:                  0.477798
MG Remaining discrepancy, due to discretization:         -0.192290 (  -0.01350%)
     Trial step:       0.438565149543
             Q1:  -11547.824633229873
 Quadratic coef:       0.364117056553
 Linear coef   :      -0.878641511154
           Qmin:  -11547.840165587519
Quadratic minimum step length (  0.529145145495) accepted
    Initial Ne1:    7191.99986745
      Final Ne1:    7192.00000000

=================== Penalty functional idempotency correction ==================
 RMS occupancy error at iteration   1:  0.000688 (step -0.4963 Ne1=   7192.0000)
 RMS occupancy error at iteration   2:  0.000005 (step -0.5003 Ne1=   7192.0000)
            Final RMS occupancy error   :  0.000000 (Ne1=   7192.0000)
               Final occupancy bounds   : [  0.0000,  1.0000]
================================================================================

    3        -1.154731010878E+04     2.1619E-04     1.9554E-04    -3.1455E+00
MG BCs: +ve charge blocks (gridpoints):     30471 (   17100741).
MG BCs: -ve charge blocks (gridpoints):      8238 (    1071926).
MG BCs:     Elided blocks (gridpoints):    166639 (  172604038).
MG BCs: Computational effort saved:  99.9797%.
MG BCs: Charge after coarse-graining:           -9.0009714.
MG DL_MG: Calling solver with defect correction order = 8
MG DL_MG: Solver finished
MG Hartree energy from (\int phi*rho dr):              1423.919349
MG Hartree energy from (\int eps (grad phi)^2 dr):     1423.249396
MG Discrepancy due to finite box and discretization:     -0.669953 (  -0.04705%)
MG Correction to account for finite box:                  0.477683
MG Remaining discrepancy, due to discretization:         -0.192271 (  -0.01350%)
      ideal mu1:      -0.765690818839
             Q0:  -11547.845555738197
             G0:      -0.551578950922
   RMS gradient:       0.000113523289
MG BCs: +ve charge blocks (gridpoints):     30471 (   17101685).
MG BCs: -ve charge blocks (gridpoints):      8235 (    1071669).
MG BCs:     Elided blocks (gridpoints):    166639 (  172603351).
MG BCs: Computational effort saved:  99.9797%.
MG BCs: Charge after coarse-graining:           -9.0009715.
MG DL_MG: Calling solver with defect correction order = 8
MG DL_MG: Solver finished
MG Hartree energy from (\int phi*rho dr):              1425.021300
MG Hartree energy from (\int eps (grad phi)^2 dr):     1424.351476
MG Discrepancy due to finite box and discretization:     -0.669824 (  -0.04700%)
MG Correction to account for finite box:                  0.477466
MG Remaining discrepancy, due to discretization:         -0.192357 (  -0.01350%)
     Trial step:       0.481730858327
             Q1:  -11547.980090969359
 Quadratic coef:       0.131177370300
 Linear coef   :      -0.265712601462
           Qmin:  -11547.980112457877
Quadratic minimum step length (  0.487896499518) accepted
    Initial Ne1:    7191.99994055
      Final Ne1:    7192.00000000

=================== Penalty functional idempotency correction ==================
 RMS occupancy error at iteration   1:  0.000326 (step -0.4934 Ne1=   7192.0000)
 RMS occupancy error at iteration   2:  0.000005 (step -0.5000 Ne1=   7192.0000)
            Final RMS occupancy error   :  0.000000 (Ne1=   7192.0000)
               Final occupancy bounds   : [  0.0000,  1.0000]
================================================================================

    4        -1.154784555574E+04     1.1352E-04     1.0268E-04    -5.3545E-01
MG BCs: +ve charge blocks (gridpoints):     30471 (   17101677).
MG BCs: -ve charge blocks (gridpoints):      8235 (    1071676).
MG BCs:     Elided blocks (gridpoints):    166639 (  172603352).
MG BCs: Computational effort saved:  99.9797%.
MG BCs: Charge after coarse-graining:           -9.0009715.
MG DL_MG: Calling solver with defect correction order = 8
MG DL_MG: Solver finished
MG Hartree energy from (\int phi*rho dr):              1425.036025
MG Hartree energy from (\int eps (grad phi)^2 dr):     1424.366203
MG Discrepancy due to finite box and discretization:     -0.669822 (  -0.04700%)
MG Correction to account for finite box:                  0.477464
MG Remaining discrepancy, due to discretization:         -0.192358 (  -0.01350%)
      ideal mu1:      -0.766012172257
             Q0:  -11547.980861571501
             G0:      -0.198802671495
   RMS gradient:       0.000068363349
MG BCs: +ve charge blocks (gridpoints):     30474 (   17101859).
MG BCs: -ve charge blocks (gridpoints):      8235 (    1071473).
MG BCs:     Elided blocks (gridpoints):    166636 (  172603373).
MG BCs: Computational effort saved:  99.9797%.
MG BCs: Charge after coarse-graining:           -9.0009714.
MG DL_MG: Calling solver with defect correction order = 8
MG DL_MG: Solver finished
MG Hartree energy from (\int phi*rho dr):              1425.472460
MG Hartree energy from (\int eps (grad phi)^2 dr):     1424.802579
MG Discrepancy due to finite box and discretization:     -0.669882 (  -0.04699%)
MG Correction to account for finite box:                  0.477350
MG Remaining discrepancy, due to discretization:         -0.192532 (  -0.01351%)
     Trial step:       0.484803877343
             Q1:  -11548.044717552373
 Quadratic coef:       0.032524325095
 Linear coef   :      -0.096380305967
           Qmin:  -11548.052263232805
Quadratic minimum step length (  0.718316919649) accepted
    Initial Ne1:    7191.99996793
      Final Ne1:    7192.00000000

=================== Penalty functional idempotency correction ==================
 RMS occupancy error at iteration   1:  0.000571 (step -0.4635 Ne1=   7192.0000)
 RMS occupancy error at iteration   2:  0.000015 (step -0.5000 Ne1=   7192.0000)
            Final RMS occupancy error   :  0.000000 (Ne1=   7192.0000)
               Final occupancy bounds   : [  0.0000,  1.0000]
================================================================================

    5        -1.154798086157E+04     6.8363E-05     6.1833E-05    -1.3531E-01
MG BCs: +ve charge blocks (gridpoints):     30473 (   17101931).
MG BCs: -ve charge blocks (gridpoints):      8234 (    1071391).
MG BCs:     Elided blocks (gridpoints):    166637 (  172603383).
MG BCs: Computational effort saved:  99.9797%.
MG BCs: Charge after coarse-graining:           -9.0009714.
MG DL_MG: Calling solver with defect correction order = 8
MG DL_MG: Solver finished
MG Hartree energy from (\int phi*rho dr):              1425.680887
MG Hartree energy from (\int eps (grad phi)^2 dr):     1425.010978
MG Discrepancy due to finite box and discretization:     -0.669909 (  -0.04699%)
MG Correction to account for finite box:                  0.477293
MG Remaining discrepancy, due to discretization:         -0.192616 (  -0.01351%)
      ideal mu1:      -0.765974383272
             Q0:  -11548.051401828183
             G0:      -0.181489983732
   RMS gradient:       0.000065979580
MG BCs: +ve charge blocks (gridpoints):     30474 (   17101003).
MG BCs: -ve charge blocks (gridpoints):      8235 (    1071873).
MG BCs:     Elided blocks (gridpoints):    166636 (  172603829).
MG BCs: Computational effort saved:  99.9797%.
MG BCs: Charge after coarse-graining:           -9.0009711.
MG DL_MG: Calling solver with defect correction order = 8
MG DL_MG: Solver finished
MG Hartree energy from (\int phi*rho dr):              1424.355160
MG Hartree energy from (\int eps (grad phi)^2 dr):     1423.685419
MG Discrepancy due to finite box and discretization:     -0.669741 (  -0.04702%)
MG Correction to account for finite box:                  0.477134
MG Remaining discrepancy, due to discretization:         -0.192607 (  -0.01352%)
     Trial step:       0.590121028101
             Q1:  -11548.129652522388
 Quadratic coef:       0.028850361585
 Linear coef   :      -0.107101055790
           Qmin:  -11548.150799509192
Quadratic minimum step length (  1.095351698935) accepted
    Initial Ne1:    7191.99994691
      Final Ne1:    7192.00000000

=================== Penalty functional idempotency correction ==================
 RMS occupancy error at iteration   1:  0.003712 (step -0.3181 Ne1=   7192.0000)
 RMS occupancy error at iteration   2:  0.000238 (step -0.4910 Ne1=   7192.0000)
 RMS occupancy error at iteration   3:  0.000003 (step -0.5000 Ne1=   7192.0000)
            Final RMS occupancy error   :  0.000000 (Ne1=   7192.0000)
               Final occupancy bounds   : [  0.0000,  1.0000]
================================================================================

    6        -1.154805140183E+04     6.5980E-05     5.9677E-05    -7.0540E-02
MG BCs: +ve charge blocks (gridpoints):     30470 (   17100360).
MG BCs: -ve charge blocks (gridpoints):      8237 (    1072171).
MG BCs:     Elided blocks (gridpoints):    166640 (  172604174).
MG BCs: Computational effort saved:  99.9797%.
MG BCs: Charge after coarse-graining:           -9.0009709.
MG DL_MG: Calling solver with defect correction order = 8
MG DL_MG: Solver finished
MG Hartree energy from (\int phi*rho dr):              1423.235766
MG Hartree energy from (\int eps (grad phi)^2 dr):     1422.566138
MG Discrepancy due to finite box and discretization:     -0.669629 (  -0.04705%)
MG Correction to account for finite box:                  0.477027
MG Remaining discrepancy, due to discretization:         -0.192602 (  -0.01353%)
      ideal mu1:      -0.765672386813
             Q0:  -11548.138590926770
             G0:      -0.296827847990
   RMS gradient:       0.000083753896
MG BCs: +ve charge blocks (gridpoints):     30475 (   17102550).
MG BCs: -ve charge blocks (gridpoints):      8234 (    1071111).
MG BCs:     Elided blocks (gridpoints):    166635 (  172603044).
MG BCs: Computational effort saved:  99.9797%.
MG BCs: Charge after coarse-graining:           -9.0009718.
MG DL_MG: Calling solver with defect correction order = 8
MG DL_MG: Solver finished
MG Hartree energy from (\int phi*rho dr):              1426.031486
MG Hartree energy from (\int eps (grad phi)^2 dr):     1425.362052
MG Discrepancy due to finite box and discretization:     -0.669434 (  -0.04694%)
MG Correction to account for finite box:                  0.477047
MG Remaining discrepancy, due to discretization:         -0.192387 (  -0.01349%)
     Trial step:       0.803983874657
             Q1:  -11548.231145909987
 Quadratic coef:       0.146089820115
 Linear coef   :      -0.238644803333
           Qmin:  -11548.236050390600
Quadratic minimum step length (  0.656673317481) accepted
    Initial Ne1:    7191.99999850
      Final Ne1:    7192.00000000

=================== Penalty functional idempotency correction ==================
 RMS occupancy error at iteration   1:  0.000206 (step -0.4862 Ne1=   7192.0000)
 RMS occupancy error at iteration   2:  0.000002 (step -0.5000 Ne1=   7192.0000)
            Final RMS occupancy error   :  0.000000 (Ne1=   7192.0000)
               Final occupancy bounds   : [  0.0000,  1.0000]
================================================================================

    7        -1.154813859093E+04     8.3754E-05     7.5753E-05    -8.7189E-02
MG BCs: +ve charge blocks (gridpoints):     30477 (   17102161).
MG BCs: -ve charge blocks (gridpoints):      8234 (    1071322).
MG BCs:     Elided blocks (gridpoints):    166633 (  172603222).
MG BCs: Computational effort saved:  99.9797%.
MG BCs: Charge after coarse-graining:           -9.0009716.
MG DL_MG: Calling solver with defect correction order = 8
MG DL_MG: Solver finished
MG Hartree energy from (\int phi*rho dr):              1425.517223
MG Hartree energy from (\int eps (grad phi)^2 dr):     1424.847754
MG Discrepancy due to finite box and discretization:     -0.669469 (  -0.04696%)
MG Correction to account for finite box:                  0.477043
MG Remaining discrepancy, due to discretization:         -0.192425 (  -0.01350%)
      ideal mu1:      -0.766947173414
             Q0:  -11548.236226761714
             G0:      -0.241343338678
   RMS gradient:       0.000075480307
MG BCs: +ve charge blocks (gridpoints):     30473 (   17102323).
MG BCs: -ve charge blocks (gridpoints):      8234 (    1071268).
MG BCs:     Elided blocks (gridpoints):    166637 (  172603114).
MG BCs: Computational effort saved:  99.9797%.
MG BCs: Charge after coarse-graining:           -9.0009717.
MG DL_MG: Calling solver with defect correction order = 8
MG DL_MG: Solver finished
MG Hartree energy from (\int phi*rho dr):              1425.494828
MG Hartree energy from (\int eps (grad phi)^2 dr):     1424.825554
MG Discrepancy due to finite box and discretization:     -0.669275 (  -0.04695%)
MG Correction to account for finite box:                  0.477026
MG Remaining discrepancy, due to discretization:         -0.192249 (  -0.01349%)
     Trial step:       0.726604953308
             Q1:  -11548.341241725138
 Quadratic coef:       0.070346301907
 Linear coef   :      -0.175361265332
           Qmin:  -11548.345513151136
Quadratic minimum step length (  0.905650763109) accepted
    Initial Ne1:    7191.99999783
      Final Ne1:    7192.00000000

=================== Penalty functional idempotency correction ==================
 RMS occupancy error at iteration   1:  0.001800 (step -0.4031 Ne1=   7192.0000)
 RMS occupancy error at iteration   2:  0.000080 (step -0.4965 Ne1=   7192.0000)
 RMS occupancy error at iteration   3:  0.000001 (step -0.5000 Ne1=   7192.0000)
            Final RMS occupancy error   :  0.000000 (Ne1=   7192.0000)
               Final occupancy bounds   : [  0.0000,  1.0000]
================================================================================

    8        -1.154823622676E+04     7.5480E-05     6.8270E-05    -9.7636E-02
MG BCs: +ve charge blocks (gridpoints):     30473 (   17102376).
MG BCs: -ve charge blocks (gridpoints):      8232 (    1071236).
MG BCs:     Elided blocks (gridpoints):    166637 (  172603093).
MG BCs: Computational effort saved:  99.9797%.
MG BCs: Charge after coarse-graining:           -9.0009717.
MG DL_MG: Calling solver with defect correction order = 8
MG DL_MG: Solver finished
MG Hartree energy from (\int phi*rho dr):              1425.494773
MG Hartree energy from (\int eps (grad phi)^2 dr):     1424.825546
MG Discrepancy due to finite box and discretization:     -0.669227 (  -0.04695%)
MG Correction to account for finite box:                  0.477019
MG Remaining discrepancy, due to discretization:         -0.192207 (  -0.01348%)
      ideal mu1:      -0.766603832472
             Q0:  -11548.343509188504
             G0:      -0.268767324876
   RMS gradient:       0.000080010714
MG BCs: +ve charge blocks (gridpoints):     30473 (   17101209).
MG BCs: -ve charge blocks (gridpoints):      8234 (    1071914).
MG BCs:     Elided blocks (gridpoints):    166637 (  172603582).
MG BCs: Computational effort saved:  99.9797%.
MG BCs: Charge after coarse-graining:           -9.0009713.
MG DL_MG: Calling solver with defect correction order = 8
MG DL_MG: Solver finished
MG Hartree energy from (\int phi*rho dr):              1423.875515
MG Hartree energy from (\int eps (grad phi)^2 dr):     1423.206195
MG Discrepancy due to finite box and discretization:     -0.669320 (  -0.04701%)
MG Correction to account for finite box:                  0.477191
MG Remaining discrepancy, due to discretization:         -0.192129 (  -0.01349%)
     Trial step:       0.811203014321
             Q1:  -11548.421031326288
 Quadratic coef:       0.140502726306
 Linear coef   :      -0.218024864090
           Qmin:  -11548.428089115547
Quadratic minimum step length (  0.629391441705) accepted
    Initial Ne1:    7191.99999828
      Final Ne1:    7192.00000000

=================== Penalty functional idempotency correction ==================
 RMS occupancy error at iteration   1:  0.003699 (step -0.3426 Ne1=   7192.0000)
 RMS occupancy error at iteration   2:  0.000215 (step -0.4925 Ne1=   7192.0000)
 RMS occupancy error at iteration   3:  0.000004 (step -0.5000 Ne1=   7192.0000)
            Final RMS occupancy error   :  0.000000 (Ne1=   7192.0000)
               Final occupancy bounds   : [  0.0000,  1.0000]
================================================================================

    9        -1.154834350919E+04     8.0011E-05     7.2368E-05    -1.0728E-01
MG BCs: +ve charge blocks (gridpoints):     30474 (   17101531).
MG BCs: -ve charge blocks (gridpoints):      8233 (    1071730).
MG BCs:     Elided blocks (gridpoints):    166636 (  172603444).
MG BCs: Computational effort saved:  99.9797%.
MG BCs: Charge after coarse-graining:           -9.0009714.
MG DL_MG: Calling solver with defect correction order = 8
MG DL_MG: Solver finished
MG Hartree energy from (\int phi*rho dr):              1424.230808
MG Hartree energy from (\int eps (grad phi)^2 dr):     1423.561520
MG Discrepancy due to finite box and discretization:     -0.669288 (  -0.04699%)
MG Correction to account for finite box:                  0.477152
MG Remaining discrepancy, due to discretization:         -0.192136 (  -0.01349%)
      ideal mu1:      -0.765457055154
   10        -1.154843795138E+04     6.5548E-05     5.9286E-05    -9.4442E-02
Finished density kernel iterations (  10)

Writing density kernel to file "host_11881.vacuum_dkn" ... done


>>> Density kernel optimised for the current NGWF basis:
     ~~~~~~~~~~~~~~~~~~~~~~~~~~~~~~~~~~~~~~~~~~~~~~~~~~~~~~~~~~~
     Total energy                =  -1.15484379513824E+04  Eh
     Estimated bandgap           =  -5.0215E-01  Eh
     RMS occupancy error         =   2.1568E-09
     [H,K] commutator            =   5.9286E-05
     Occupancy bounds            = [  0.000:  1.000]
     ~~~~~~~~~~~~~~~~~~~~~~~~~~~~~~~~~~~~~~~~~~~~~~~~~~~~~~~~~~~




################################################################################
########################### NGWF CG iteration  001 #############################
################################################################################
****** Reciprocal space K.E. preconditioning with k_zero =  3.5000 a0^-1 *******

>>> Checking for convergence of NGWFs:   NOT CONVERGED
  ========================================================================
         NGWF RMS gradient =  1.6492E-03 >  2.0000E-06  | above tolerance
  ========================================================================

>>> Improving NGWFs using line search:
============ Calculation of NGWF S^-1 using Hotelling algorithm ================ 
         Iteration  |  Frobenius norm and Maximum abs value    (of I-S*S_n^-1)   
               1       0.20807650E+00     0.54774110E-02
               2       0.10111688E-02     0.45436986E-04
               3       0.41492899E-07     0.31756406E-08
               4       0.12476620E-12     0.57731597E-14
================================================================================
MG BCs: +ve charge blocks (gridpoints):     30000 (   17047038).
MG BCs: -ve charge blocks (gridpoints):      8226 (    1071207).
MG BCs:     Elided blocks (gridpoints):    167114 (  172658460).
MG BCs: Computational effort saved:  99.9800%.
MG BCs: Charge after coarse-graining:           -9.0009705.
MG DL_MG: Calling solver with defect correction order = 8
MG DL_MG: Solver finished
MG Hartree energy from (\int phi*rho dr):              1391.428476
MG Hartree energy from (\int eps (grad phi)^2 dr):     1390.760240
MG Discrepancy due to finite box and discretization:     -0.668236 (  -0.04803%)
MG Correction to account for finite box:                  0.477025
MG Remaining discrepancy, due to discretization:         -0.191211 (  -0.01374%)
============ Calculation of NGWF S^-1 using Hotelling algorithm ================ 
         Iteration  |  Frobenius norm and Maximum abs value    (of I-S*S_n^-1)   
               1       0.18677427E+01     0.42061091E-01
               2       0.72799395E-01     0.24338575E-02
               3       0.15240933E-03     0.10432657E-04
               4       0.13501160E-08     0.22029916E-09
               5       0.10945181E-12     0.44408921E-14
================================================================================
------------------------------- NGWF line search -------------------------------
RMS gradient                =       0.00164920179574
Trial step length           =               0.122474
Gradient along search dir.  =       -289.49789432324
Functional at step 0        =  -11548.43795138236601
Functional at step 1        =  -11581.10031362215523
Functional predicted        =  -11660.93354057822944
Selected quadratic step     =               0.777177
--------------------------- NGWF line search finished --------------------------
                                               
Writing NGWFs to file "host_11881.vacuum_tightbox_ngwfs"....  done

>>> Optimising kernel for current NGWFs:
   Initial electron number for spin 1:    7228.09261439
     Final electron number for spin 1:    7192.00000000

=================== Penalty functional idempotency correction ==================
 RMS occupancy error at iteration   1:  0.004413 (step -0.4852 Ne1=   7192.0000)
 RMS occupancy error at iteration   2:  0.000076 (step -0.5003 Ne1=   7192.0000)
            Final RMS occupancy error   :  0.000000 (Ne1=   7192.0000)
               Final occupancy bounds   : [  0.0000,  1.0000]
================================================================================

................................................................................
<<<<<<<<<<<<<< LNV (Original version) density kernel optimisation >>>>>>>>>>>>>>
~~~~~~~~~~~~~~~~~~~~~~~~~~~~~~~~~~~~~~~~~~~~~~~~~~~~~~~~~~~~~~~~~~~~~~~~~~~~~~~~
   iter  |      energy (Eh)       | rms gradient |  commutator  |   dE (Eh)
MG BCs: +ve charge blocks (gridpoints):     24734 (   16743854).
MG BCs: -ve charge blocks (gridpoints):      8378 (    1053602).
MG BCs:     Elided blocks (gridpoints):    172386 (  172979249).
MG BCs: Computational effort saved:  99.9826%.
MG BCs: Charge after coarse-graining:           -9.0006868.
MG DL_MG: Calling solver with defect correction order = 8
MG DL_MG: Solver finished
MG Hartree energy from (\int phi*rho dr):              1238.482080
MG Hartree energy from (\int eps (grad phi)^2 dr):     1237.814630
MG Discrepancy due to finite box and discretization:     -0.667450 (  -0.05389%)
MG Correction to account for finite box:                  0.476435
MG Remaining discrepancy, due to discretization:         -0.191015 (  -0.01542%)
      ideal mu1:      -0.706020827142
             Q0:  -11659.999706880539
             G0:      -9.794974439950
   RMS gradient:       0.000481121043
MG BCs: +ve charge blocks (gridpoints):     24783 (   16765605).
MG BCs: -ve charge blocks (gridpoints):      8362 (    1047472).
MG BCs:     Elided blocks (gridpoints):    172337 (  172963628).
MG BCs: Computational effort saved:  99.9826%.
MG BCs: Charge after coarse-graining:           -9.0006806.
MG DL_MG: Calling solver with defect correction order = 8
MG DL_MG: Solver finished
MG Hartree energy from (\int phi*rho dr):              1258.230031
MG Hartree energy from (\int eps (grad phi)^2 dr):     1257.557689
MG Discrepancy due to finite box and discretization:     -0.672342 (  -0.05344%)
MG Correction to account for finite box:                  0.475338
MG Remaining discrepancy, due to discretization:         -0.197003 (  -0.01566%)
     Trial step:       0.714537776957
             Q1:  -11659.527848096332
 Quadratic coef:       7.470738045882
 Linear coef   :      -6.998879261675
           Qmin:  -11661.638912760154
Quadratic minimum step length (  0.334703452197) accepted
    Initial Ne1:    7191.99948620
      Final Ne1:    7192.00000000

=================== Penalty functional idempotency correction ==================
 RMS occupancy error at iteration   1:  0.000362 (step -0.4986 Ne1=   7192.0000)
 RMS occupancy error at iteration   2:  0.000000 (step -0.5000 Ne1=   7192.0000)
            Final RMS occupancy error   :  0.000000 (Ne1=   7192.0000)
               Final occupancy bounds   : [  0.0000,  1.0000]
================================================================================

    1        -1.165999970688E+04     4.8112E-04     4.3516E-04
MG BCs: +ve charge blocks (gridpoints):     24758 (   16754123).
MG BCs: -ve charge blocks (gridpoints):      8372 (    1050784).
MG BCs:     Elided blocks (gridpoints):    172362 (  172971798).
MG BCs: Computational effort saved:  99.9826%.
MG BCs: Charge after coarse-graining:           -9.0006838.
MG DL_MG: Calling solver with defect correction order = 8
MG DL_MG: Solver finished
MG Hartree energy from (\int phi*rho dr):              1246.821166
MG Hartree energy from (\int eps (grad phi)^2 dr):     1246.151529
MG Discrepancy due to finite box and discretization:     -0.669637 (  -0.05371%)
MG Correction to account for finite box:                  0.475892
MG Remaining discrepancy, due to discretization:         -0.193745 (  -0.01554%)
      ideal mu1:      -0.714278363597
             Q0:  -11661.612914156634
             G0:      -1.039670889379
   RMS gradient:       0.000157405689
MG BCs: +ve charge blocks (gridpoints):     24759 (   16754212).
MG BCs: -ve charge blocks (gridpoints):      8373 (    1051343).
MG BCs:     Elided blocks (gridpoints):    172361 (  172971150).
MG BCs: Computational effort saved:  99.9826%.
MG BCs: Charge after coarse-graining:           -9.0006837.
MG DL_MG: Calling solver with defect correction order = 8
MG DL_MG: Solver finished
MG Hartree energy from (\int phi*rho dr):              1248.308168
MG Hartree energy from (\int eps (grad phi)^2 dr):     1247.638296
MG Discrepancy due to finite box and discretization:     -0.669872 (  -0.05366%)
MG Correction to account for finite box:                  0.475781
MG Remaining discrepancy, due to discretization:         -0.194091 (  -0.01555%)
     Trial step:       0.489038097363
             Q1:  -11661.833316888544
 Quadratic coef:       0.288035941716
 Linear coef   :      -0.508438673626
           Qmin:  -11661.837287097123
Quadratic minimum step length (  0.431623012209) accepted
    Initial Ne1:    7191.99992907
      Final Ne1:    7192.00000000

=================== Penalty functional idempotency correction ==================
 RMS occupancy error at iteration   1:  0.000161 (step -0.4990 Ne1=   7192.0000)
 RMS occupancy error at iteration   2:  0.000000 (step -0.5000 Ne1=   7192.0000)
            Final RMS occupancy error   :  0.000000 (Ne1=   7192.0000)
               Final occupancy bounds   : [  0.0000,  1.0000]
================================================================================

    2        -1.166161291416E+04     1.5741E-04     1.4237E-04    -1.6132E+00
MG BCs: +ve charge blocks (gridpoints):     24758 (   16754203).
MG BCs: -ve charge blocks (gridpoints):      8371 (    1051273).
MG BCs:     Elided blocks (gridpoints):    172362 (  172971229).
MG BCs: Computational effort saved:  99.9826%.
MG BCs: Charge after coarse-graining:           -9.0006837.
MG DL_MG: Calling solver with defect correction order = 8
MG DL_MG: Solver finished
MG Hartree energy from (\int phi*rho dr):              1248.133183
MG Hartree energy from (\int eps (grad phi)^2 dr):     1247.463340
MG Discrepancy due to finite box and discretization:     -0.669843 (  -0.05367%)
MG Correction to account for finite box:                  0.475794
MG Remaining discrepancy, due to discretization:         -0.194049 (  -0.01555%)
      ideal mu1:      -0.715307430525
             Q0:  -11661.837792709121
             G0:      -0.185479200625
   RMS gradient:       0.000066135901
MG BCs: +ve charge blocks (gridpoints):     24758 (   16753178).
MG BCs: -ve charge blocks (gridpoints):      8375 (    1051720).
MG BCs:     Elided blocks (gridpoints):    172362 (  172971807).
MG BCs: Computational effort saved:  99.9826%.
MG BCs: Charge after coarse-graining:           -9.0006839.
MG DL_MG: Calling solver with defect correction order = 8
MG DL_MG: Solver finished
MG Hartree energy from (\int phi*rho dr):              1247.458259
MG Hartree energy from (\int eps (grad phi)^2 dr):     1246.788517
MG Discrepancy due to finite box and discretization:     -0.669741 (  -0.05369%)
MG Correction to account for finite box:                  0.475721
MG Remaining discrepancy, due to discretization:         -0.194020 (  -0.01555%)
     Trial step:       0.459434540135
             Q1:  -11661.897248216090
 Quadratic coef:       0.025760044275
 Linear coef   :      -0.085215551243
           Qmin:  -11661.908267065612
Quadratic minimum step length (  0.759916543242) accepted
    Initial Ne1:    7191.99997793
      Final Ne1:    7192.00000000

=================== Penalty functional idempotency correction ==================
 RMS occupancy error at iteration   1:  0.000210 (step -0.4896 Ne1=   7192.0000)
 RMS occupancy error at iteration   2:  0.000002 (step -0.5000 Ne1=   7192.0000)
            Final RMS occupancy error   :  0.000000 (Ne1=   7192.0000)
               Final occupancy bounds   : [  0.0000,  1.0000]
================================================================================

    3        -1.166183779271E+04     6.6136E-05     5.9818E-05    -2.2488E-01
MG BCs: +ve charge blocks (gridpoints):     24760 (   16752499).
MG BCs: -ve charge blocks (gridpoints):      8376 (    1052030).
MG BCs:     Elided blocks (gridpoints):    172360 (  172972176).
MG BCs: Computational effort saved:  99.9826%.
MG BCs: Charge after coarse-graining:           -9.0006840.
MG DL_MG: Calling solver with defect correction order = 8
MG DL_MG: Solver finished
MG Hartree energy from (\int phi*rho dr):              1247.016720
MG Hartree energy from (\int eps (grad phi)^2 dr):     1246.347046
MG Discrepancy due to finite box and discretization:     -0.669673 (  -0.05370%)
MG Correction to account for finite box:                  0.475672
MG Remaining discrepancy, due to discretization:         -0.194001 (  -0.01556%)
      ideal mu1:      -0.714088464562
             Q0:  -11661.908306910424
             G0:      -0.077625386638
   RMS gradient:       0.000042791060
MG BCs: +ve charge blocks (gridpoints):     24756 (   16752771).
MG BCs: -ve charge blocks (gridpoints):      8376 (    1051972).
MG BCs:     Elided blocks (gridpoints):    172364 (  172971962).
MG BCs: Computational effort saved:  99.9826%.
MG BCs: Charge after coarse-graining:           -9.0006839.
MG DL_MG: Calling solver with defect correction order = 8
MG DL_MG: Solver finished
MG Hartree energy from (\int phi*rho dr):              1247.173514
MG Hartree energy from (\int eps (grad phi)^2 dr):     1246.504068
MG Discrepancy due to finite box and discretization:     -0.669446 (  -0.05368%)
MG Correction to account for finite box:                  0.475595
MG Remaining discrepancy, due to discretization:         -0.193851 (  -0.01554%)
     Trial step:       0.590873850822
             Q1:  -11661.937382143224
 Quadratic coef:       0.016791578324
 Linear coef   :      -0.045866811125
           Qmin:  -11661.939628628998
Quadratic minimum step length (  0.806996781097) accepted
    Initial Ne1:    7191.99998937
      Final Ne1:    7192.00000000

=================== Penalty functional idempotency correction ==================
 RMS occupancy error at iteration   1:  0.000387 (step -0.4763 Ne1=   7192.0000)
 RMS occupancy error at iteration   2:  0.000005 (step -0.5000 Ne1=   7192.0000)
            Final RMS occupancy error   :  0.000000 (Ne1=   7192.0000)
               Final occupancy bounds   : [  0.0000,  1.0000]
================================================================================

    4        -1.166190830691E+04     4.2791E-05     3.8704E-05    -7.0514E-02
MG BCs: +ve charge blocks (gridpoints):     24757 (   16752928).
MG BCs: -ve charge blocks (gridpoints):      8377 (    1051916).
MG BCs:     Elided blocks (gridpoints):    172363 (  172971861).
MG BCs: Computational effort saved:  99.9826%.
MG BCs: Charge after coarse-graining:           -9.0006839.
MG DL_MG: Calling solver with defect correction order = 8
MG DL_MG: Solver finished
MG Hartree energy from (\int phi*rho dr):              1247.232509
MG Hartree energy from (\int eps (grad phi)^2 dr):     1246.563148
MG Discrepancy due to finite box and discretization:     -0.669361 (  -0.05367%)
MG Correction to account for finite box:                  0.475564
MG Remaining discrepancy, due to discretization:         -0.193796 (  -0.01554%)
      ideal mu1:      -0.714655035510
             Q0:  -11661.939551266492
             G0:      -0.079426357988
   RMS gradient:       0.000043276557
MG BCs: +ve charge blocks (gridpoints):     24756 (   16754600).
MG BCs: -ve charge blocks (gridpoints):      8375 (    1051354).
MG BCs:     Elided blocks (gridpoints):    172364 (  172970751).
MG BCs: Computational effort saved:  99.9826%.
MG BCs: Charge after coarse-graining:           -9.0006835.
MG DL_MG: Calling solver with defect correction order = 8
MG DL_MG: Solver finished
MG Hartree energy from (\int phi*rho dr):              1248.204028
MG Hartree energy from (\int eps (grad phi)^2 dr):     1247.534961
MG Discrepancy due to finite box and discretization:     -0.669067 (  -0.05360%)
MG Correction to account for finite box:                  0.475366
MG Remaining discrepancy, due to discretization:         -0.193701 (  -0.01552%)
     Trial step:       0.690531169208
             Q1:  -11661.971611807006
 Quadratic coef:       0.022785835334
 Linear coef   :      -0.054846375848
           Qmin:  -11661.972555596809
Quadratic minimum step length (  0.831067447961) accepted
    Initial Ne1:    7191.99998593
      Final Ne1:    7192.00000000

=================== Penalty functional idempotency correction ==================
 RMS occupancy error at iteration   1:  0.001226 (step -0.4312 Ne1=   7192.0000)
 RMS occupancy error at iteration   2:  0.000036 (step -0.4987 Ne1=   7192.0000)
            Final RMS occupancy error   :  0.000000 (Ne1=   7192.0000)
               Final occupancy bounds   : [ -0.0000,  1.0000]
================================================================================

    5        -1.166193955127E+04     4.3277E-05     3.9143E-05    -3.1244E-02
MG BCs: +ve charge blocks (gridpoints):     24756 (   16754943).
MG BCs: -ve charge blocks (gridpoints):      8372 (    1051239).
MG BCs:     Elided blocks (gridpoints):    172364 (  172970523).
MG BCs: Computational effort saved:  99.9826%.
MG BCs: Charge after coarse-graining:           -9.0006834.
MG DL_MG: Calling solver with defect correction order = 8
MG DL_MG: Solver finished
MG Hartree energy from (\int phi*rho dr):              1248.403754
MG Hartree energy from (\int eps (grad phi)^2 dr):     1247.734744
MG Discrepancy due to finite box and discretization:     -0.669010 (  -0.05359%)
MG Correction to account for finite box:                  0.475328
MG Remaining discrepancy, due to discretization:         -0.193681 (  -0.01551%)
      ideal mu1:      -0.716089139233
             Q0:  -11661.972599212662
             G0:      -0.075089493105
   RMS gradient:       0.000041471074
MG BCs: +ve charge blocks (gridpoints):     24755 (   16754475).
MG BCs: -ve charge blocks (gridpoints):      8376 (    1051566).
MG BCs:     Elided blocks (gridpoints):    172365 (  172970664).
MG BCs: Computational effort saved:  99.9826%.
MG BCs: Charge after coarse-graining:           -9.0006835.
MG DL_MG: Calling solver with defect correction order = 8
MG DL_MG: Solver finished
MG Hartree energy from (\int phi*rho dr):              1247.938355
MG Hartree energy from (\int eps (grad phi)^2 dr):     1247.269662
MG Discrepancy due to finite box and discretization:     -0.668692 (  -0.05358%)
MG Correction to account for finite box:                  0.474982
MG Remaining discrepancy, due to discretization:         -0.193710 (  -0.01552%)
     Trial step:       0.757547342765
             Q1:  -11662.008685613400
 Quadratic coef:       0.020797445233
 Linear coef   :      -0.056883845972
           Qmin:  -11662.011495479683
Quadratic minimum step length (  1.035997591983) accepted
    Initial Ne1:    7192.00095571
      Final Ne1:    7192.00000000

=================== Penalty functional idempotency correction ==================
 RMS occupancy error at iteration   1:  0.003222 (step -0.3554 Ne1=   7192.0000)
 RMS occupancy error at iteration   2:  0.000177 (step -0.4931 Ne1=   7192.0000)
 RMS occupancy error at iteration   3:  0.000003 (step -0.5000 Ne1=   7192.0000)
            Final RMS occupancy error   :  0.000000 (Ne1=   7192.0000)
               Final occupancy bounds   : [  0.0000,  1.0000]
================================================================================

    6        -1.166197259921E+04     4.1471E-05     3.7510E-05    -3.3048E-02
MG BCs: +ve charge blocks (gridpoints):     24757 (   16754343).
MG BCs: -ve charge blocks (gridpoints):      8376 (    1051679).
MG BCs:     Elided blocks (gridpoints):    172363 (  172970683).
MG BCs: Computational effort saved:  99.9826%.
MG BCs: Charge after coarse-graining:           -9.0006835.
MG DL_MG: Calling solver with defect correction order = 8
MG DL_MG: Solver finished
MG Hartree energy from (\int phi*rho dr):              1247.770452
MG Hartree energy from (\int eps (grad phi)^2 dr):     1247.101843
MG Discrepancy due to finite box and discretization:     -0.668608 (  -0.05358%)
MG Correction to account for finite box:                  0.474888
MG Remaining discrepancy, due to discretization:         -0.193720 (  -0.01553%)
      ideal mu1:      -0.715786468087
             Q0:  -11662.012276063324
             G0:      -0.076664613914
   RMS gradient:       0.000042564759
MG BCs: +ve charge blocks (gridpoints):     24759 (   16753384).
MG BCs: -ve charge blocks (gridpoints):      8376 (    1051759).
MG BCs:     Elided blocks (gridpoints):    172361 (  172971562).
MG BCs: Computational effort saved:  99.9826%.
MG BCs: Charge after coarse-graining:           -9.0006838.
MG DL_MG: Calling solver with defect correction order = 8
MG DL_MG: Solver finished
MG Hartree energy from (\int phi*rho dr):              1247.284161
MG Hartree energy from (\int eps (grad phi)^2 dr):     1246.615582
MG Discrepancy due to finite box and discretization:     -0.668579 (  -0.05360%)
MG Correction to account for finite box:                  0.474809
MG Remaining discrepancy, due to discretization:         -0.193771 (  -0.01554%)
     Trial step:       0.885899104254
             Q1:  -11662.030328134773
 Quadratic coef:       0.049865041345
 Linear coef   :      -0.067917112795
           Qmin:  -11662.035402155703
Quadratic minimum step length (  0.603305519918) accepted
    Initial Ne1:    7191.99999883
      Final Ne1:    7192.00000000

=================== Penalty functional idempotency correction ==================
 RMS occupancy error at iteration   1:  0.000039 (step -0.4976 Ne1=   7192.0000)
            Final RMS occupancy error   :  0.000000 (Ne1=   7192.0000)
               Final occupancy bounds   : [ -0.0000,  1.0000]
================================================================================

    7        -1.166201227606E+04     4.2565E-05     3.8499E-05    -3.9677E-02
MG BCs: +ve charge blocks (gridpoints):     24758 (   16753673).
MG BCs: -ve charge blocks (gridpoints):      8377 (    1051733).
MG BCs:     Elided blocks (gridpoints):    172362 (  172971299).
MG BCs: Computational effort saved:  99.9826%.
MG BCs: Charge after coarse-graining:           -9.0006837.
MG DL_MG: Calling solver with defect correction order = 8
MG DL_MG: Solver finished
MG Hartree energy from (\int phi*rho dr):              1247.436501
MG Hartree energy from (\int eps (grad phi)^2 dr):     1246.767910
MG Discrepancy due to finite box and discretization:     -0.668591 (  -0.05360%)
MG Correction to account for finite box:                  0.474836
MG Remaining discrepancy, due to discretization:         -0.193754 (  -0.01553%)
      ideal mu1:      -0.715345808639
             Q0:  -11662.035415941617
             G0:      -0.058578827733
   RMS gradient:       0.000037195632
MG BCs: +ve charge blocks (gridpoints):     24758 (   16753504).
MG BCs: -ve charge blocks (gridpoints):      8377 (    1051716).
MG BCs:     Elided blocks (gridpoints):    172362 (  172971485).
MG BCs: Computational effort saved:  99.9826%.
MG BCs: Charge after coarse-graining:           -9.0006838.
MG DL_MG: Calling solver with defect correction order = 8
MG DL_MG: Solver finished
MG Hartree energy from (\int phi*rho dr):              1247.253359
MG Hartree energy from (\int eps (grad phi)^2 dr):     1246.584908
[...]
MG Hartree energy from (\int phi*rho dr):              1203.101175
MG Hartree energy from (\int eps (grad phi)^2 dr):     1202.901413
MG Discrepancy due to finite box and discretization:     -0.199762 (  -0.01660%)
MG Correction to account for finite box:                  0.006465
MG Remaining discrepancy, due to discretization:         -0.193297 (  -0.01607%)
             Q2:  -11696.873517279513
  Cubic LS coeff:       1.112053497197
Predicted energy:  -11696.873517279671
Cubic minimum step length accepted
    Initial Ne1:    7192.00000000
      Final Ne1:    7192.00000000

=================== Penalty functional idempotency correction ==================
 RMS occupancy error at iteration   1:  0.000000 (step -0.5000 Ne1=   7192.0000)
            Final RMS occupancy error   :  0.000000 (Ne1=   7192.0000)
               Final occupancy bounds   : [ -0.0000,  1.0000]
================================================================================

    7        -1.169687351728E+04     7.4090E-09     6.7013E-09    -1.2806E-09

Reusing previously generated solute cavity.
MG BCs: +ve charge blocks (gridpoints):     28959 (   18931064).
MG BCs: -ve charge blocks (gridpoints):      8356 (    1021323).
MG BCs:     Elided blocks (gridpoints):    168161 (  170824318).
MG BCs: Computational effort saved:  99.9804%.
MG BCs: Charge after coarse-graining:           -9.0009524.
MG DL_MG: Calling solver with defect correction order = 8
MG DL_MG: Solver finished
MG Hartree energy from (\int phi*rho dr):              1203.101174
MG Hartree energy from (\int eps (grad phi)^2 dr):     1202.901412
MG Discrepancy due to finite box and discretization:     -0.199762 (  -0.01660%)
MG Correction to account for finite box:                  0.006465
MG Remaining discrepancy, due to discretization:         -0.193297 (  -0.01607%)
      ideal mu1:      -0.484904476173
             Q0:  -11696.873517279630
             G0:      -0.000000003368
   RMS gradient:       0.000000008795

Reusing previously generated solute cavity.
MG BCs: +ve charge blocks (gridpoints):     28959 (   18931064).
MG BCs: -ve charge blocks (gridpoints):      8356 (    1021323).
MG BCs:     Elided blocks (gridpoints):    168161 (  170824318).
MG BCs: Computational effort saved:  99.9804%.
MG BCs: Charge after coarse-graining:           -9.0009524.
MG DL_MG: Calling solver with defect correction order = 8
MG DL_MG: Solver finished
MG Hartree energy from (\int phi*rho dr):              1203.101141
MG Hartree energy from (\int eps (grad phi)^2 dr):     1202.901380
MG Discrepancy due to finite box and discretization:     -0.199762 (  -0.01660%)
MG Correction to account for finite box:                  0.006465
MG Remaining discrepancy, due to discretization:         -0.193297 (  -0.01607%)
     Trial step:       0.707667079330
             Q1:  -11696.873517280561
 Quadratic coef:       0.000000001452
 Linear coef   :      -0.000000002383
           Qmin:  -11696.873517280608
Quadratic minimum step length (  0.580914960761) accepted
    Initial Ne1:    7192.00000000
      Final Ne1:    7192.00000000

=================== Penalty functional idempotency correction ==================
 RMS occupancy error at iteration   1:  0.000000 (step -0.5000 Ne1=   7192.0000)
            Final RMS occupancy error   :  0.000000 (Ne1=   7192.0000)
               Final occupancy bounds   : [ -0.0000,  1.0000]
================================================================================

    8        -1.169687351728E+04     8.7947E-09     7.9546E-09    -2.7940E-09

Reusing previously generated solute cavity.
MG BCs: +ve charge blocks (gridpoints):     28959 (   18931064).
MG BCs: -ve charge blocks (gridpoints):      8356 (    1021323).
MG BCs:     Elided blocks (gridpoints):    168161 (  170824318).
MG BCs: Computational effort saved:  99.9804%.
MG BCs: Charge after coarse-graining:           -9.0009524.
MG DL_MG: Calling solver with defect correction order = 8
MG DL_MG: Solver finished
MG Hartree energy from (\int phi*rho dr):              1203.101147
MG Hartree energy from (\int eps (grad phi)^2 dr):     1202.901386
MG Discrepancy due to finite box and discretization:     -0.199762 (  -0.01660%)
MG Correction to account for finite box:                  0.006465
MG Remaining discrepancy, due to discretization:         -0.193297 (  -0.01607%)
      ideal mu1:      -0.484904442526
             Q0:  -11696.873517280677
             G0:      -0.000000001377
   RMS gradient:       0.000000004822

Reusing previously generated solute cavity.
MG BCs: +ve charge blocks (gridpoints):     28959 (   18931064).
MG BCs: -ve charge blocks (gridpoints):      8356 (    1021323).
MG BCs:     Elided blocks (gridpoints):    168161 (  170824318).
MG BCs: Computational effort saved:  99.9804%.
MG BCs: Charge after coarse-graining:           -9.0009524.
MG DL_MG: Calling solver with defect correction order = 8
MG DL_MG: Solver finished
MG Hartree energy from (\int phi*rho dr):              1203.101147
MG Hartree energy from (\int eps (grad phi)^2 dr):     1202.901386
MG Discrepancy due to finite box and discretization:     -0.199762 (  -0.01660%)
MG Correction to account for finite box:                  0.006465
MG Remaining discrepancy, due to discretization:         -0.193297 (  -0.01607%)
     Trial step:       0.641166432076
             Q1:  -11696.873517280328
 Quadratic coef:       0.000000001231
 Linear coef   :      -0.000000000883
           Qmin:  -11696.873517280836
Quadratic minimum step length (  0.229890841318) accepted
    Initial Ne1:    7192.00000000
      Final Ne1:    7192.00000000

=================== Penalty functional idempotency correction ==================
 RMS occupancy error at iteration   1:  0.000000 (step -0.5000 Ne1=   7192.0000)
            Final RMS occupancy error   :  0.000000 (Ne1=   7192.0000)
               Final occupancy bounds   : [ -0.0000,  1.0000]
================================================================================

    9        -1.169687351728E+04     4.8216E-09     4.3611E-09    -1.0477E-09

Reusing previously generated solute cavity.
MG BCs: +ve charge blocks (gridpoints):     28959 (   18931064).
MG BCs: -ve charge blocks (gridpoints):      8356 (    1021323).
MG BCs:     Elided blocks (gridpoints):    168161 (  170824318).
MG BCs: Computational effort saved:  99.9804%.
MG BCs: Charge after coarse-graining:           -9.0009524.
MG DL_MG: Calling solver with defect correction order = 8
MG DL_MG: Solver finished
MG Hartree energy from (\int phi*rho dr):              1203.101147
MG Hartree energy from (\int eps (grad phi)^2 dr):     1202.901386
MG Discrepancy due to finite box and discretization:     -0.199762 (  -0.01660%)
MG Correction to account for finite box:                  0.006465
MG Remaining discrepancy, due to discretization:         -0.193297 (  -0.01607%)
      ideal mu1:      -0.484904441200
   10        -1.169687351728E+04     3.6010E-09     3.2570E-09     0.0000E+00
Finished density kernel iterations (  10)

Writing density kernel to file "host_11881.dkn" ... done


>>> Density kernel optimised for the current NGWF basis:
     ~~~~~~~~~~~~~~~~~~~~~~~~~~~~~~~~~~~~~~~~~~~~~~~~~~~~~~~~~~~
     Total energy                =  -1.16968735172807E+04  Eh
     Estimated bandgap           =   9.2539E-02  Eh
     RMS occupancy error         =   3.0526E-16
     [H,K] commutator            =   3.2570E-09
     Occupancy bounds            = [ -0.000:  1.000]
     ~~~~~~~~~~~~~~~~~~~~~~~~~~~~~~~~~~~~~~~~~~~~~~~~~~~~~~~~~~~




################################################################################
########################### NGWF CG iteration  004 #############################
################################################################################
****** Reciprocal space K.E. preconditioning with k_zero =  3.5000 a0^-1 *******

>>> Checking for convergence of NGWFs: 
           ........................................................
           |         *** NGWF optimisation converged ***          |
           | RMS NGWF gradient =    0.00000188836909              |
           | Criteria satisfied:                                  |
           | -> RMS NGWF gradient lower than set threshold.       |
           ========================================================

Reusing previously generated solute cavity.
MG BCs: +ve charge blocks (gridpoints):     28959 (   18931064).
MG BCs: -ve charge blocks (gridpoints):      8356 (    1021323).
MG BCs:     Elided blocks (gridpoints):    168161 (  170824318).
MG BCs: Computational effort saved:  99.9804%.
MG BCs: Charge after coarse-graining:           -9.0009524.
MG DL_MG: Calling solver with defect correction order = 8
MG DL_MG: Solver finished
MG Hartree energy from (\int phi*rho dr):              1203.101147
MG Hartree energy from (\int eps (grad phi)^2 dr):     1202.901386
MG Discrepancy due to finite box and discretization:     -0.199762 (  -0.01660%)
MG Correction to account for finite box:                  0.006465
MG Remaining discrepancy, due to discretization:         -0.193297 (  -0.01607%)

================================================================================
           ---------------- ENERGY COMPONENTS (Eh) ----------------
           | Kinetic                    :     8555.09436270249716 |
           | Pseudo. (local,OBC,corr'd) :    -5069.16056416992160 |
           | Pseudopotential (non-local):     1404.57066774218879 |
           | Hartree (molecular)        :     1203.10114733996943 |
           | Exchange-correlation       :    -3381.96225076589189 |
           | Ion-ion (open BC)          :   825041.54096750821918 |
           | Smeared ion non-self corr. :  -824993.54383076797239 |
           | Smeared ion self corr.     :   -14457.16956389741972 |
           | Solvent cavitation energy  :        2.33228507603245 |
           | Solute-solvent dis-rep en. :       -1.67673804828663 |
           | Total                      :   -11696.87351728064095 |
           --------------------------------------------------------
           ------ LOCAL ENERGY COMPONENTS FROM MATRIX TRACES ------
           | Pseudopotential (local)    :    -5069.16056416992888 |
           | Hartree                    :    -2000.86010838463790 |
           --------------------------------------------------------
           Integrated density           :     7191.99999999898500
           Integrated density tr(KS)    :     7192.00000000000000
================================================================================


                        <<<<< CALCULATION SUMMARY >>>>>                         
|ITER|    RMS GRADIENT   |     TOTAL ENERGY    |   step   |     Epredicted              
   0     0.00004391264751 -11696.79914023156743   0.631263 -11696.86392265459654        
   1     0.00000861356019 -11696.87323313206434   0.059472 -11696.87346795932535        
   2     0.00000402390789 -11696.87350521353073   0.012353 -11696.87351585803845        
   3     0.00000188836909 -11696.87351728067733  <-- CG                                 

=================== Finished the calculation in solvent ========================
= Adjusting the following parameters: 
= read_denskern: F
= read_tightbox_ngwfs: F
= maxit_pen: 0 (restored to user-specified value)
= restart read filename prefix: ""
= restart write filename prefix: ""
================================================================================

================================================================================
IS: Calculation in solvent completed (NGWFs converged).      

Individual components of total energy in solvent:     hartree           kcal/mol
- Usual non-electrostatic DFT terms:    -12900.63021164839301    -8095267.503566
- Electrostatic fixed charge energy:      1203.10114733996943      754957.351833
- Apolar cavitation energy:                  2.33228507603245        1463.530950
- Apolar dispersion-repulsion energy:       -1.67673804828663       -1052.168988
 -------------------------------------------------------------------------------
- Total energy in solvent:              -11696.87351728067733    -7339898.789772

Components of total energy in solvent:                hartree           kcal/mol
- Usual non-electrostatic DFT terms:    -12900.63021164839301    -8095267.503566
- Electrostatic energy:                   1203.10114733996943      754957.351833
- Apolar energy terms:                       0.65554702774582         411.361962
 -------------------------------------------------------------------------------
- Total energy in solvent:              -11696.87351728067733    -7339898.789772

Calculation of free energy of solvation:              hartree           kcal/mol
- Total energy in solvent:         (+)  -11696.87351728067733    -7339898.789772
- Total energy in vacuum:          (-)  -11692.82444130710792    -7337357.956292
 -------------------------------------------------------------------------------
- Total free energy of solvation:           -4.04907597356942       -2540.833479

Components of polar term in f.e. of solvation:        hartree           kcal/mol
- Electrostatic:                            -4.60034856327661       -2886.762245
- Change in nonelectrostatic DFT terms:     -0.10427443803928         -65.433196
 -------------------------------------------------------------------------------
- Polar term in f.e. of solvation:          -4.70462300131589       -2952.195441

Components of free energy of solvation:               hartree           kcal/mol
- Polar term in f.e. of solvation: (+)      -4.70462300131589       -2952.195441
- Apolar (cavitation, dis., rep.): (+)       0.65554702774582         411.361962
 -------------------------------------------------------------------------------
- Total free energy of solvation:           -4.04907597357007       -2540.833479
================================================================================


------------------------------ TIMING INFORMATION ------------------------------
AVERAGE TIME:   37828.442s on     60 node(s)                                    
TOTAL TIME:     37828.443s on     60 node(s)                                    
================= AVERAGE TIMINGS FROM ALL NODES (CUMULATIVE) ==================
|| TAG                                    #calls    cpu time   %total  Gflops ||
|| work_imbalance                       :     1        0.00s   0.000%  ------ ||
|| sparse_set_to_garbage                :   206        0.03s   0.000%  ------ ||
|| parallel_prepare_fd_halos_request    :  2193        0.04s   0.000%  ------ ||
|| ngwfs_initialise_from_radial         :     1        0.09s   0.000%  ------ ||
|| parallel_prepare_fd_halos_alloc      :  2193        0.17s   0.000%  ------ ||
|| basis_extract_function_from_box      :  4011        0.18s   0.000%  ------ ||
|| parallel_prepare_fd_halos_satisfy    :  2193        0.73s   0.002%  ------ ||
|| pseudopotentials_nonlocal_mat        :    35        2.56s   0.007%  ------ ||
|| density_init_guess_real              :     1        3.66s   0.010%  ------ ||
|| restart_kernel_read                  :     1        3.98s   0.011%  ------ ||
|| openbc_locps_radial                  :     1        4.62s   0.012%  ------ ||
|| restart_ngwfs_tightbox_input         :     1        9.08s   0.024%  ------ ||
|| parallel_prepare_fd_halos_comms_imbal:  2193       12.79s   0.034%  ------ ||
|| parallel_prepare_fd_halos_clear      :  2193       21.30s   0.056%  ------ ||
|| sparse_init                          :     2       22.56s   0.060%  ------ ||
|| parallel_prepare_fd_halos_comms_wait :  2193       26.19s   0.069%  ------ ||
|| projectors_func_ovlp_box             :    35       30.86s   0.082%  ------ ||
|| function_ops_brappd_ketppd           :    35       32.60s   0.086%  ------ ||
|| palser_mano_kernel_optimise          :     1       34.13s   0.090%  ------ ||
|| projectors_init_fftbox_recip         :   161       36.73s   0.097%  ------ ||
|| basis_copy_function_to_box           : 65483       46.49s   0.123%  ------ ||
|| ngwf_gradient_coeffs                 :    18       55.15s   0.146%  ------ ||
|| pseudo_make_structure_factor         :     2       57.82s   0.153%  ------ ||
|| fourier_apply_box_pair               :  5807       59.56s   0.157% 564.542 ||
|| parallel_prepare_fd_halos            :  2193       61.24s   0.162%  ------ ||
|| sparse_embed_hotelling_invert_embed  :    35       84.89s   0.224%  ------ ||
|| restart_kernel_write                 :    19      113.99s   0.301%  ------ ||
|| finite_difference_derivative         :  2193      158.61s   0.419%  ------ ||
|| integrals_kinetic                    :    35      169.44s   0.448%  ------ ||
|| projectors_gradient_batch            :   126      169.69s   0.449%  ------ ||
|| basis_dot_function_with_box          : 9.796M     215.27s   0.569%  ------ ||
|| sparse_trace                         :  6142      221.20s   0.585%  ------ ||
|| openbc_locps_on_grid                 :     2      270.37s   0.715%  ------ ||
|| kernel_purify                        :   558      330.56s   0.874%  ------ ||
|| basis_add_function_to_box            : 20.49M     469.93s   1.242%  ------ ||
|| lnv_gradient_norm                    :   180      486.11s   1.285%  ------ ||
|| hamiltonian_energy_components        :     4      527.80s   1.395%  ------ ||
|| kernel_fix                           :   180      623.49s   1.648%  ------ ||
|| integrals_locpot_mat_els_batch       :  1323      837.81s   2.215%  ------ ||
|| ngwf_gradient_build_batch            :   126      854.93s   2.260%  ------ ||
|| density_batch_row_sums               :  2548     1131.26s   2.991%  ------ ||
|| ngwf_gradient_batch                  :   126     1174.87s   3.106%  ------ ||
|| restart_ngwfs_tightbox_output        :    16     1218.22s   3.220%  ------ ||
|| ngwf_gradient_lnv                    :    18     1346.36s   3.559%  ------ ||
|| cell_grid_deposit_box_real           : 41912     1461.45s   3.863%  ------ ||
|| fourier_apply_cell_forward           : 10221     1588.93s   4.200%  87.560 ||
|| cell_grid_extract_box_real           : 46112     1741.09s   4.603%  ------ ||
|| fourier_apply_cell_backward          : 10953     1749.94s   4.626%  85.198 ||
|| sparse_product                       :  7589     2088.24s   5.520%  ------ ||
|| density_fftbox_deposit_to_cell       : 39676     2131.10s   5.634%  ------ ||
|| potential_apply_to_ngwf_batch        :  1323     3964.13s  10.479%  ------ ||
|| density_fftbox_interpolate_multiply  : 39676     4117.23s  10.884%  ------ ||
|| xc_energy_potential                  :   365     4392.80s  11.612%  ------ ||
|| integrals_locpot_dbl_grid            :   189     4824.19s  12.753%  ------ ||
|| fourier_apply_box                    : 136.4k    5043.53s  13.333% 758.863 ||
|| multigrid_prepare_bound_cond         :   365     5073.83s  13.413%  ------ ||
|| nlxc_vdw_energy                      :   730     7197.83s  19.028%  ------ ||
|| density_batch_interp_deposit         :  2548     7227.15s  19.105%  ------ ||
|| dl_mg_solver_calls                   :   365     7939.94s  20.989%  ------ ||
|| density_on_dbl_grid                  :   364     8814.18s  23.300%  ------ ||
|| multigrid_calculate_hartree          :   365    13231.37s  34.977%  ------ ||
|| hamiltonian_lhxc_calculate           :   360    26367.26s  69.702%  ------ ||
|| lnv_denskernel_optimise_cg           :    18    32051.66s  84.729%  ------ ||
|| ngwf_cg_optimise                     :     2    36846.30s  97.404%  ------ ||
|| total_time                           :     1    37828.44s 100.000%  ------ ||
================================================================================
Overhead of generating timer report: 
- 0 ms averaging over threads,
- 15 ms ensuring consistency across MPI ranks,
- 0 ms printing in order.

Job completed: 19-03-2020 20:08 (-0000)

Application 39864858 resources: utime ~7559636s, stime ~257838s, Rss ~3723912, inblocks ~369024320, outblocks ~74417166
