      -----------------------------------------------------------      
     |                   =====================                   |     
     |                           x T B                           |     
     |                   =====================                   |     
     |                         S. Grimme                         |     
     |          Mulliken Center for Theoretical Chemistry        |     
     |                    University of Bonn                     |     
      -----------------------------------------------------------      

   * xtb version 6.2.3 (d7bf61a) compiled by 'conda@06d140edd85e' on 2020-05-12

   xtb is free software: you can redistribute it and/or modify it under
   the terms of the GNU Lesser General Public License as published by
   the Free Software Foundation, either version 3 of the License, or
   (at your option) any later version.
   
   xtb is distributed in the hope that it will be useful,
   but WITHOUT ANY WARRANTY; without even the implied warranty of
   MERCHANTABILITY or FITNESS FOR A PARTICULAR PURPOSE.  See the
   GNU Lesser General Public License for more details.
   
   Cite this work as:
   * S. Grimme, C. Bannwarth, P. Shushkov, J. Chem. Theory Comput., 2017,
     13, 1989-2009. DOI: 10.1021/acs.jctc.7b00118
   * C. Bannwarth, S. Ehlert and S. Grimme., J. Chem. Theory Comput., 2019,
     15, 1652-1671. DOI: 10.1021/acs.jctc.8b01176
   * P. Pracht, E. Caldeweyher, S. Ehlert, S. Grimme, ChemRxiv, 2019, preprint.
     DOI: 10.26434/chemrxiv.8326202.v1
   
   for DFT-D4:
   * E. Caldeweyher, C. Bannwarth and S. Grimme, J. Chem. Phys., 2017,
     147, 034112. DOI: 10.1063/1.4993215
   * E. Caldeweyher, S. Ehlert, A. Hansen, H. Neugebauer, S. Spicher,
     C. Bannwarth and S. Grimme, J. Chem. Phys., 2019, 150, 154122.
     DOI: 10.1063/1.5090222
   
   for sTDA-xTB:
   * S. Grimme and C. Bannwarth, J. Chem. Phys., 2016, 145, 054103.
     DOI: 10.1063/1.4959605
   
   in the mass-spec context:
   * V. Asgeirsson, C. Bauer and S. Grimme, Chem. Sci., 2017, 8, 4879.
     DOI: 10.1039/c7sc00601b
   
   for metadynamics refer to:
   * S. Grimme, J. Chem. Theory Comput., 2019, 155, 2847-2862
     DOI: 10.1021/acs.jctc.9b00143
   
   with help from (in alphabetical order)
   C. Bannwarth, F. Bohle, G. Brandenburg, E. Caldeweyher, M. Checinski,
   S. Dohm, S. Ehlert, S. Ehrlich, F. März, H. Neugebauer, J. Pisarek,
   P. Pracht, P. Shushkov, and S. Spicher.
   
 * started run on 2020/06/08 at 22:45:20.723     

           -------------------------------------------------
          |                Calculation Setup                |
           -------------------------------------------------

          program call               : xtb complex_25941.xyz --chrg +9 --uhf 0 --gbsa water
          hostname                   : gold58.cluster.local
          coordinate file            : complex_25941.xyz
          omp threads                :                    64
          number of atoms            :                  2616
          number of electrons        :                  7234
          charge                     :                     9
          spin                       :                   0.0
          first test random number   :      0.09734928532043


molecular fragmentation (1/2 indicates fragments):
111111111111111111111111111111111111111111111111111111111111111111111111
111111111111111111111111111111111111111111111111111111111111111111111111
111111111111111111111111111111111111111111111111111111111111111111111111
111111111111111111111111111111111111111111111111111111111111111111111111
111111111111111111111111111111111111111111111111111111111111111111111111
111111111111111111111111111111111111111111111111111111111111111111111111
111111111111111111111111111111111111111111111111111111111111111111111111
111111111111111111111111111111111111111111111111111111111111111111111111
111111111111111111111111111111111111111111111111111111111111111111111111
111111111111111111111111111111111111111111111111111111111111111111111111
111111111111111111111111111111111111111111111111111111111111111111111111
111111111111111111111111111111111111111111111111111111111111111111111111
111111111111111111111111111111111111111111111111111111111111111111111111
111111111111111111111111111111111111111111111111111111111111111111111111
111111111111111111111111111111111111111111111111111111111111111111111111
111111111111111111111111111111111111111111111111111111111111111111111111
111111111111111111111111111111111111111111111111111111111111111111111111
111111111111111111111111111111111111111111111111111111111111111111111111
111111111111111111111111111111111111111111111111111111111111111111111111
111111111111111111111111111111111111111111111111111111111111111111111111
111111111111111111111111111111111111111111111111111111111111111111111111
111111111111111111111111111111111111111111111111111111111111111111111111
111111111111111111111111111111111111111111111111111111111111111111111111
111111111111111111111111111111111111111111111111111111111111111111111111
111111111111111111111111111111111111111111111111111111111111111111111111
111111111111111111111111111111111111111111111111111111111111111111111111
111111111111111111111111111111111111111111111111111111111111111111111111
111111111111111111111111111111111111111111111111111111111111111111111111
111111111111111111111111111111111111111111111111111111111111111111111111
111111111111111111111111111111111111111111111111111111111111111111111111
111111111111111111111111111111111111111111111111111111111111111111111111
111111111111111111111111111111111111111111111111111111111111111111111111
111111111111111111111111111111111111111111111111111111111111111111111111
111111111111111111111111111111111111111111111111111111111111111111111111
111111111111111111111111111111111111111111111111111111111111111111111111
111111111111111111111111111111111111111111111111111111111111111111111111
111111111122222222222222
# atoms in fragment 1/2:  2602    14
 fragment masses (1/2) :    18371.93      110.11
CMA distance (Bohr)    :  20.381
constraining FC (au)   :  0.0500
########################################################################
[WARNING] Please study the warnings concerning your input carefully
-2- prog_main: XTBPATH is not set, using XTBHOME instead
-1- prog_main: XTBHOME is not set, using HOME instead
########################################################################
           ------------------------------------------------- 
          |                 G F N 2 - x T B                 |
          | Geometry, Frequencies, Noncovalent interactions |
          |            JCTC 2019 parametrisation            |
           ------------------------------------------------- 
             k(s)              :                1.8500
             k(p)              :                2.2300
             k(d)              :                2.2300
             k(f)              :                2.0000
             kEN (H0ij)        :               -2.0000
             D4 a1             :                0.5200
             D4 a2             :                5.0000
             D4 s6             :                1.0000
             D4 s8             :                2.7000
             D4 s9             :                5.0000
             alphaj            :                2.0000

  Z AO/shell   Hii/eV     exponent
  1     Wed Apr 25 08:07:45 CEST 2018   EN: 2.200 GM2: 0.406  GM3: 0.0800  RAES: 1.40
     1s    -10.707211    1.230000
  6     Wed Apr 25 08:07:45 CEST 2018   EN: 2.550 GM2: 0.538  GM3: 0.1500  RAES: 3.00
     2s    -13.970922    2.096432
     2p    -10.063292    1.800000
  7     Wed Apr 25 08:07:45 CEST 2018   EN: 3.040 GM2: 0.461  GM3:-0.0640  RAES: 1.90
     2s    -16.686243    2.339881
     2p    -12.523956    2.014332
  8     Wed Apr 25 08:07:45 CEST 2018   EN: 3.440 GM2: 0.452  GM3:-0.0517  RAES: 1.80
     2s    -20.229985    2.439742
     2p    -15.503117    2.137023
 16     Tue Apr 24 11:44:34 CEST 2018   EN: 2.580 GM2: 0.340  GM3:-0.0502  RAES: 3.10
     3s    -20.029654    1.981333
     3p    -11.377694    2.025643
     3d     -0.420282    1.702555

 Solvent             : water
 Using internal parameter file: .param_gbsa2_water
 Gsolv ref. state (COSMO-RS): gsolv [1 M gas/solution]
 temperature (mdtemp)       :    298.14999999999998     
 dielectric constant        :    80.200000000000003     
 rho                        :    1.0000000000000000     
 mass                       :    18.000000000000000     
 surface tension            :    15.568945408385856     
 probe radius               :   0.97531378999999996     
 Gshift (Eh)                :    1.8574431267947933E-003
 c1                         :    1.5524381700000001     
 soset                      :   0.13032636000000000     
 HB correction              :  T
           ------------------------------------------------- 
          |        Self-Consistent Charge Iterations        |
           ------------------------------------------------- 

          ...................................................
          :                      SETUP                      :
          :.................................................:
          :  # basis functions                6549          :
          :  # atomic orbitals                6543          :
          :  # shells                         3921          :
          :  # electrons                      7234          :
          :  max. iterations                   250          :
          :  Hamiltonian                  GFN2-xTB          :
          :  restarted?                      false          :
          :  GBSA solvation                   true          :
          :  PC potential                    false          :
          :  electronic temp.          300.0000000     K    :
          :  accuracy                    1.0000000          :
          :  -> integral cutoff          0.2500000E+02      :
          :  -> integral neglect         0.1000000E-07      :
          :  -> SCF convergence          0.1000000E-05 Eh   :
          :  -> wf. convergence          0.1000000E-03 e    :
          :  Broyden damping             0.4000000          :
          ...................................................

 iter      E             dE          RMSdq      gap      omega  full diag
   1  -4145.1168460 -0.414512E+04  0.426E+00    1.89       0.0  T
   2  -4157.1588531 -0.120420E+02  0.225E+00    2.55       1.0  T
   3  -4157.6272141 -0.468361E+00  0.119E+00    2.17       1.0  T
   4  -4157.6926597 -0.654456E-01  0.294E-01    1.80       1.0  T
   5  -4157.8052087 -0.112549E+00  0.145E-01    1.74       1.0  T
   6  -4157.8211880 -0.159793E-01  0.747E-02    1.89       1.0  T
   7  -4157.8237867 -0.259864E-02  0.391E-02    1.93       1.0  T
   8  -4157.8249426 -0.115595E-02  0.179E-02    1.92       1.0  T
   9  -4157.8251423 -0.199634E-03  0.111E-02    1.90       1.0  T
  10  -4157.8252488 -0.106564E-03  0.574E-03    1.88       1.0  T
  11  -4157.8252768 -0.280106E-04  0.282E-03    1.87       1.0  T
  12  -4157.8252839 -0.705693E-05  0.154E-03    1.86       1.3  T
  13  -4157.8252860 -0.213794E-05  0.817E-04    1.86       2.4  T
  14  -4157.8252866 -0.574041E-06  0.405E-04    1.86       4.8  T
  15  -4157.8252868 -0.160493E-06  0.207E-04    1.86       9.4  T

   *** convergence criteria satisfied after 15 iterations ***

         #    Occupation            Energy/Eh            Energy/eV
      -------------------------------------------------------------
         1        2.0000           -0.7553138             -20.5531
       ...           ...                  ...                  ...
      3611        2.0000           -0.3595531              -9.7839
      3612        2.0000           -0.3594472              -9.7811
      3613        2.0000           -0.3580118              -9.7420
      3614        2.0000           -0.3567764              -9.7084
      3615        2.0000           -0.3537682              -9.6265
      3616        2.0000           -0.3529124              -9.6032
      3617        2.0000           -0.3528517              -9.6016 (HOMO)
      3618                         -0.2845966              -7.7443 (LUMO)
      3619                         -0.2708703              -7.3708
      3620                         -0.2696621              -7.3379
      3621                         -0.2664403              -7.2502
      3622                         -0.2644516              -7.1961
       ...                                ...                  ...
      6543                          0.7931109              21.5816
      -------------------------------------------------------------
                  HL-Gap            0.0682551 Eh            1.8573 eV
             Fermi-level           -0.3187242 Eh           -8.6729 eV

 SCC (total)                   0 d,  0 h,  6 min, 42.468 sec
 SCC setup                      ...        0 min,  3.156 sec (  0.784%)
 Dispersion                     ...        0 min,  1.992 sec (  0.495%)
 integral evaluation            ...        0 min, 12.067 sec (  2.998%)
 zeroth order Hamiltonian       ...        0 min,  0.345 sec (  0.086%)
 iterations                     ...        6 min,  7.183 sec ( 91.233%)
 molecular gradient             ...        0 min, 17.126 sec (  4.255%)
 printout                       ...        0 min,  0.600 sec (  0.149%)

         :::::::::::::::::::::::::::::::::::::::::::::::::::::
         ::                     SUMMARY                     ::
         :::::::::::::::::::::::::::::::::::::::::::::::::::::
         :: total energy           -4109.259423706865 Eh    ::
         :: total w/o Gsasa/hb     -4108.873492471146 Eh    ::
         :: gradient norm              1.361410928045 Eh/a0 ::
         :: HOMO-LUMO gap              1.857316884613 eV    ::
         ::.................................................::
         :: SCC energy             -4157.890068475003 Eh    ::
         :: -> isotropic ES           14.017947067668 Eh    ::
         :: -> anisotropic ES         -0.752102086597 Eh    ::
         :: -> anisotropic XC          1.160853311331 Eh    ::
         :: -> dispersion             -3.926985285758 Eh    ::
         :: -> Gsolv                  -3.922475060487 Eh    ::
         ::    -> Gborn               -3.536543824768 Eh    ::
         ::    -> Gsasa               -0.066639163102 Eh    ::
         ::    -> Ghb                 -0.321149515744 Eh    ::
         ::    -> Gshift               0.001857443127 Eh    ::
         :: repulsion energy          48.083567474340 Eh    ::
         :: add. restraining           0.000000000000 Eh    ::
         :::::::::::::::::::::::::::::::::::::::::::::::::::::

           -------------------------------------------------
          |                Property Printout                |
           -------------------------------------------------

    * Orbital Energies and Occupations

         #    Occupation            Energy/Eh            Energy/eV
      -------------------------------------------------------------
         1        2.0000           -0.7553138             -20.5531
       ...           ...                  ...                  ...
      3605        2.0000           -0.3662962              -9.9674
      3606        2.0000           -0.3653669              -9.9421
      3607        2.0000           -0.3644883              -9.9182
      3608        2.0000           -0.3629039              -9.8751
      3609        2.0000           -0.3611577              -9.8276
      3610        2.0000           -0.3609735              -9.8226
      3611        2.0000           -0.3595531              -9.7839
      3612        2.0000           -0.3594472              -9.7811
      3613        2.0000           -0.3580118              -9.7420
      3614        2.0000           -0.3567764              -9.7084
      3615        2.0000           -0.3537682              -9.6265
      3616        2.0000           -0.3529124              -9.6032
      3617        2.0000           -0.3528517              -9.6016 (HOMO)
      3618                         -0.2845966              -7.7443 (LUMO)
      3619                         -0.2708703              -7.3708
      3620                         -0.2696621              -7.3379
      3621                         -0.2664403              -7.2502
      3622                         -0.2644516              -7.1961
      3623                         -0.2642313              -7.1901
      3624                         -0.2618804              -7.1261
      3625                         -0.2612430              -7.1088
      3626                         -0.2608613              -7.0984
      3627                         -0.2596240              -7.0647
      3628                         -0.2570280              -6.9941
       ...                                ...                  ...
      6543                          0.7931109              21.5816
      -------------------------------------------------------------
                  HL-Gap            0.0682551 Eh            1.8573 eV
             Fermi-level           -0.3187242 Eh           -8.6729 eV

     #   Z        covCN         q      C6AA      α(0)
     1   7 N      3.488    -0.144    24.104     7.292
     2   1 H      0.860     0.318     0.663     1.275
     3   1 H      0.860     0.305     0.698     1.308
     4   1 H      0.860     0.309     0.687     1.299
     5   6 C      3.778    -0.031    21.143     6.551
     6   1 H      0.924     0.130     1.532     1.936
     7   6 C      3.796    -0.097    22.357     6.733
     8   1 H      0.925     0.108     1.716     2.049
     9   1 H      0.925     0.108     1.711     2.045
    10   6 C      3.785    -0.035    21.222     6.562
    11   1 H      0.925     0.073     2.054     2.241
    12   1 H      0.925     0.070     2.080     2.255
    13  16 S      1.942    -0.233   151.039    20.685
    14   6 C      3.746    -0.036    21.279     6.580
    15   1 H      0.927     0.050     2.324     2.384
    16   1 H      0.926     0.036     2.497     2.471
    17   1 H      0.925     0.050     2.322     2.383
    18   6 C      2.753     0.263    22.568     7.779
    19   8 O      0.861    -0.471    23.152     6.451
    20   7 N      2.699    -0.118    23.581     7.212
    21   1 H      0.860     0.207     1.069     1.619
    22   6 C      3.793     0.011    20.394     6.431
    23   1 H      0.925     0.116     1.646     2.007
    24   6 C      3.808    -0.119    22.769     6.793
    25   1 H      0.924     0.082     1.955     2.186
    26   1 H      0.925     0.105     1.736     2.060
    27   6 C      2.737     0.275    22.352     7.741
    28   8 O      0.864    -0.500    23.774     6.537
    29   7 N      2.642    -0.260    26.755     7.682
    30   1 H      0.860     0.247     0.896     1.483
    31   1 H      0.860     0.247     0.897     1.483
    32   6 C      2.744     0.255    22.708     7.802
    33   8 O      0.860    -0.500    23.786     6.539
    34   7 N      2.684    -0.161    24.493     7.350
    35   1 H      0.860     0.215     1.031     1.591
    36   6 C      3.782     0.007    20.486     6.447
    37   1 H      0.925     0.088     1.897     2.154
    38   6 C      3.847    -0.030    21.084     6.531
    39   1 H      0.925     0.077     2.009     2.216
    40   6 C      3.755    -0.132    23.097     6.853
    41   1 H      0.924     0.044     2.392     2.419
    42   1 H      0.924     0.073     2.056     2.242
    43   1 H      0.925     0.040     2.444     2.445
    44   6 C      3.800    -0.068    21.796     6.647
    45   1 H      0.924     0.041     2.430     2.438
    46   1 H      0.925     0.065     2.142     2.289
    47   6 C      3.743    -0.113    22.739     6.803
    48   1 H      0.925     0.030     2.586     2.515
    49   1 H      0.924     0.031     2.573     2.509
    50   1 H      0.924     0.051     2.313     2.378
    51   6 C      2.749     0.275    22.352     7.742
    52   8 O      0.860    -0.485    23.455     6.493
    53   7 N      2.687    -0.202    25.389     7.484
    54   1 H      0.860     0.240     0.925     1.507
    55   6 C      3.790     0.028    20.111     6.387
    56   1 H      0.925     0.077     2.006     2.215
    57   6 C      3.807    -0.079    21.998     6.677
    58   1 H      0.925     0.054     2.268     2.355
    59   1 H      0.925     0.078     2.002     2.213
    60   6 C      2.951     0.016    27.651     8.625
    61   6 C      2.925    -0.046    29.135     8.852
    62   1 H      0.926     0.065     2.141     2.288
    63   6 C      2.906    -0.047    29.166     8.855
    64   1 H      0.926     0.062     2.178     2.308
    65   6 C      2.901    -0.040    28.992     8.829
    66   1 H      0.926     0.035     2.523     2.484
    67   6 C      2.903    -0.038    28.949     8.822
    68   1 H      0.926     0.023     2.689     2.564
    69   6 C      2.922    -0.044    29.081     8.843
    70   1 H      0.926     0.029     2.601     2.522
    71   6 C      2.747     0.263    22.568     7.779
    72   8 O      0.859    -0.512    24.052     6.575
    73   7 N      2.690    -0.167    24.620     7.369
    74   1 H      0.860     0.211     1.053     1.608
    75   6 C      3.789     0.041    19.899     6.353
    76   1 H      0.924     0.075     2.035     2.231
    77   6 C      3.812    -0.058    21.612     6.617
    78   1 H      0.925     0.040     2.442     2.444
    79   1 H      0.924     0.057     2.238     2.339
    80   6 C      3.788    -0.109    22.600     6.771
    81   1 H      0.925     0.045     2.384     2.415
    82   1 H      0.925     0.044     2.395     2.420
    83   6 C      2.680     0.366    20.801     7.464
    84   8 O      0.857    -0.607    26.285     6.874
    85   8 O      0.857    -0.671    27.926     7.085
    86   6 C      2.754     0.268    22.475     7.763
    87   8 O      0.869    -0.511    24.013     6.570
    88   7 N      2.697    -0.182    24.934     7.416
    89   1 H      0.860     0.234     0.950     1.527
    90   6 C      3.787     0.030    20.091     6.384
    91   1 H      0.924     0.070     2.087     2.259
    92   6 C      3.796    -0.077    21.979     6.676
    93   1 H      0.924     0.061     2.182     2.310
    94   1 H      0.924     0.080     1.980     2.200
    95   6 C      3.790    -0.014    20.828     6.500
    96   1 H      0.925     0.046     2.375     2.410
    97   1 H      0.925     0.023     2.686     2.563
    98  16 S      1.943    -0.163   147.955    20.473
    99   6 C      3.742    -0.074    21.990     6.690
   100   1 H      0.925     0.069     2.096     2.264
   101   1 H      0.925     0.077     2.013     2.219
   102   1 H      0.925     0.059     2.213     2.327
   103   6 C      2.750     0.267    22.484     7.764
   104   8 O      0.864    -0.509    23.988     6.567
   105   7 N      2.703    -0.154    24.327     7.325
   106   1 H      0.860     0.214     1.037     1.595
   107   6 C      3.787     0.026    20.152     6.394
   108   1 H      0.925     0.089     1.890     2.150
   109   6 C      3.811    -0.079    22.003     6.677
   110   1 H      0.925     0.056     2.242     2.341
   111   1 H      0.924     0.055     2.263     2.353
   112   6 C      3.846    -0.023    20.945     6.510
   113   1 H      0.925     0.049     2.332     2.388
   114   6 C      3.749    -0.117    22.814     6.812
   115   1 H      0.925     0.048     2.340     2.392
   116   1 H      0.924     0.056     2.252     2.347
   117   1 H      0.925     0.037     2.483     2.464
   118   6 C      3.754    -0.127    22.993     6.838
   119   1 H      0.925     0.045     2.384     2.415
   120   1 H      0.925     0.059     2.212     2.326
   121   1 H      0.925     0.044     2.396     2.421
   122   6 C      2.745     0.264    22.549     7.775
   123   8 O      0.858    -0.492    23.611     6.515
   124   7 N      2.676    -0.184    24.990     7.424
   125   1 H      0.860     0.203     1.092     1.637
   126   6 C      3.780     0.022    20.227     6.407
   127   1 H      0.924     0.088     1.900     2.156
   128   6 C      3.798    -0.073    21.902     6.664
   129   1 H      0.925     0.077     2.009     2.216
   130   1 H      0.924     0.060     2.199     2.319
   131   6 C      3.798    -0.078    22.001     6.679
   132   1 H      0.925     0.066     2.128     2.281
   133   1 H      0.924     0.068     2.106     2.270
   134   6 C      3.738    -0.016    20.944     6.530
   135   1 H      0.925     0.083     1.945     2.181
   136   1 H      0.925     0.066     2.127     2.281
   137   7 N      2.716    -0.177    24.830     7.401
   138   1 H      0.860     0.224     0.991     1.559
   139   6 C      2.739     0.257    22.673     7.796
   140   7 N      2.710    -0.257    26.660     7.669
   141   1 H      0.860     0.254     0.870     1.461
   142   1 H      0.860     0.231     0.962     1.536
   143   7 N      2.707    -0.253    26.580     7.657
   144   1 H      0.860     0.253     0.870     1.461
   145   1 H      0.860     0.225     0.987     1.556
   146   6 C      2.756     0.262    22.589     7.783
   147   8 O      0.857    -0.534    24.555     6.644
   148   7 N      2.682    -0.164    24.554     7.359
   149   1 H      0.860     0.228     0.973     1.545
   150   6 C      3.782     0.009    20.452     6.442
   151   1 H      0.924     0.099     1.795     2.095
   152   6 C      3.843    -0.017    20.853     6.496
   153   1 H      0.925     0.057     2.235     2.338
   154   6 C      3.755    -0.112    22.694     6.793
   155   1 H      0.925     0.046     2.377     2.411
   156   1 H      0.925     0.038     2.479     2.462
   157   1 H      0.925     0.051     2.302     2.373
   158   6 C      3.800    -0.056    21.580     6.614
   159   1 H      0.924     0.036     2.510     2.477
   160   1 H      0.925     0.039     2.465     2.455
   161   6 C      3.750    -0.102    22.505     6.766
   162   1 H      0.925     0.039     2.467     2.456
   163   1 H      0.925     0.035     2.519     2.482
   164   1 H      0.924     0.037     2.493     2.469
   165   6 C      2.742     0.262    22.587     7.782
   166   8 O      0.858    -0.499    23.753     6.534
   167   7 N      2.682    -0.206    25.479     7.497
   168   1 H      0.860     0.220     1.008     1.573
   169   6 C      3.787     0.026    20.156     6.394
   170   1 H      0.925     0.097     1.813     2.106
   171   6 C      3.796    -0.105    22.512     6.756
   172   1 H      0.924     0.035     2.521     2.483
   173   1 H      0.925     0.056     2.244     2.343
   174   6 C      2.679     0.355    20.968     7.493
   175   8 O      0.857    -0.548    24.882     6.688
   176   8 O      0.857    -0.592    25.927     6.827
   177   6 C      2.750     0.276    22.327     7.737
   178   8 O      0.858    -0.474    23.211     6.459
   179   7 N      2.687    -0.192    25.156     7.449
   180   1 H      0.860     0.196     1.125     1.661
   181   6 C      3.789     0.023    20.206     6.402
   182   1 H      0.924     0.090     1.875     2.141
   183   6 C      3.811    -0.052    21.507     6.601
   184   1 H      0.924     0.039     2.465     2.455
   185   1 H      0.925     0.044     2.403     2.424
   186   6 C      3.808    -0.083    22.071     6.688
   187   1 H      0.925     0.026     2.649     2.545
   188   1 H      0.924     0.009     2.901     2.664
   189   6 C      2.697     0.375    20.642     7.436
   190   8 O      0.859    -0.665    27.778     7.066
   191   8 O      0.859    -0.646    27.264     7.001
   192   6 C      2.748     0.274    22.361     7.743
   193   8 O      0.861    -0.474    23.208     6.459
   194   7 N      2.686    -0.155    24.348     7.328
   195   1 H      0.860     0.198     1.114     1.654
   196   6 C      3.750    -0.024    21.069     6.546
   197   1 H      0.925     0.095     1.833     2.117
   198   1 H      0.925     0.086     1.917     2.165
   199   6 C      2.749     0.274    22.360     7.743
   200   8 O      0.864    -0.514    24.092     6.581
   201   7 N      2.722    -0.173    24.738     7.387
   202   1 H      0.860     0.207     1.069     1.620
   203   6 C      3.795     0.012    20.374     6.427
   204   1 H      0.924     0.078     1.999     2.211
   205   6 C      3.817    -0.085    22.109     6.692
   206   1 H      0.925     0.067     2.121     2.277
   207   1 H      0.924     0.056     2.241     2.341
   208   6 C      3.848    -0.017    20.847     6.494
   209   1 H      0.925     0.053     2.280     2.361
   210   6 C      3.757    -0.126    22.970     6.833
   211   1 H      0.924     0.022     2.709     2.574
   212   1 H      0.925     0.049     2.335     2.390
   213   1 H      0.924     0.044     2.392     2.419
   214   6 C      3.762    -0.124    22.923     6.825
   215   1 H      0.924     0.056     2.245     2.343
   216   1 H      0.924     0.052     2.293     2.368
   217   1 H      0.925     0.044     2.394     2.420
   218   6 C      2.769     0.267    22.493     7.767
   219   8 O      0.856    -0.480    23.357     6.480
   220   7 N      2.694    -0.156    24.377     7.333
   221   1 H      0.860     0.206     1.074     1.624
   222   6 C      3.790     0.014    20.349     6.424
   223   1 H      0.925     0.085     1.927     2.171
   224   6 C      3.809    -0.091    22.226     6.711
   225   1 H      0.924     0.083     1.945     2.181
   226   1 H      0.925     0.070     2.088     2.260
   227   6 C      3.798    -0.092    22.251     6.717
   228   1 H      0.925     0.059     2.211     2.326
   229   1 H      0.924     0.095     1.828     2.115
   230   6 C      3.728    -0.041    21.407     6.606
   231   1 H      0.925     0.109     1.705     2.042
   232   1 H      0.924     0.115     1.653     2.011
   233   7 N      2.709    -0.159    24.442     7.343
   234   1 H      0.860     0.215     1.034     1.593
   235   6 C      2.733     0.242    22.942     7.842
   236   7 N      2.675    -0.220    25.793     7.543
   237   1 H      0.860     0.257     0.857     1.450
   238   1 H      0.860     0.278     0.783     1.386
   239   7 N      2.695    -0.271    27.006     7.718
   240   1 H      0.860     0.211     1.052     1.607
   241   1 H      0.860     0.204     1.086     1.632
   242   6 C      2.758     0.256    22.689     7.800
   243   8 O      0.860    -0.496    23.692     6.526
   244   7 N      2.684    -0.171    24.703     7.382
   245   1 H      0.860     0.227     0.978     1.549
   246   6 C      3.786     0.011    20.407     6.434
   247   1 H      0.924     0.088     1.900     2.156
   248   6 C      3.821    -0.089    22.177     6.702
   249   1 H      0.925     0.093     1.850     2.127
   250   1 H      0.925     0.065     2.138     2.287
   251   6 C      3.854    -0.010    20.710     6.472
   252   1 H      0.924     0.043     2.405     2.425
   253   6 C      3.763    -0.125    22.935     6.827
   254   1 H      0.924     0.048     2.345     2.395
   255   1 H      0.925     0.046     2.367     2.406
   256   1 H      0.924     0.040     2.443     2.444
   257   6 C      3.767    -0.115    22.732     6.795
   258   1 H      0.924     0.035     2.519     2.482
   259   1 H      0.925     0.031     2.567     2.506
   260   1 H      0.925     0.042     2.422     2.434
   261   6 C      2.749     0.277    22.311     7.734
   262   8 O      0.862    -0.492    23.599     6.513
   263   7 N      2.688    -0.159    24.430     7.341
   264   1 H      0.860     0.211     1.050     1.605
   265   6 C      3.781     0.008    20.467     6.445
   266   1 H      0.925     0.075     2.027     2.226
   267   6 C      3.796    -0.088    22.180     6.706
   268   1 H      0.925     0.070     2.083     2.257
   269   1 H      0.925     0.066     2.131     2.283
   270   6 C      3.801    -0.077    21.972     6.674
   271   1 H      0.924     0.061     2.184     2.311
   272   1 H      0.924     0.053     2.283     2.363
   273   6 C      3.809    -0.096    22.327     6.726
   274   1 H      0.924     0.078     2.001     2.212
   275   1 H      0.925     0.086     1.917     2.165
   276   6 C      3.734    -0.055    21.645     6.640
   277   1 H      0.924     0.127     1.558     1.952
   278   1 H      0.925     0.123     1.590     1.972
   279   7 N      3.490    -0.154    24.315     7.324
   280   1 H      0.860     0.296     0.724     1.333
   281   1 H      0.860     0.291     0.742     1.349
   282   1 H      0.860     0.300     0.714     1.323
   283   6 C      2.744     0.255    22.715     7.804
   284   8 O      0.857    -0.513    24.083     6.580
   285   7 N      2.686    -0.154    24.334     7.326
   286   1 H      0.860     0.233     0.953     1.530
   287   6 C      3.796    -0.001    20.608     6.464
   288   1 H      0.924     0.063     2.168     2.303
   289   6 C      3.849    -0.031    21.085     6.531
   290   1 H      0.925     0.081     1.971     2.196
   291   6 C      3.761    -0.135    23.135     6.857
   292   1 H      0.924     0.085     1.929     2.172
   293   1 H      0.925     0.035     2.511     2.478
   294   1 H      0.925     0.054     2.266     2.354
   295   6 C      3.813    -0.089    22.194     6.705
   296   1 H      0.925     0.057     2.239     2.340
   297   1 H      0.925     0.042     2.428     2.437
   298   6 C      3.745    -0.131    23.090     6.854
   299   1 H      0.925     0.065     2.137     2.286
   300   1 H      0.925     0.028     2.610     2.526
   301   1 H      0.924     0.049     2.332     2.388
   302   6 C      2.752     0.279    22.283     7.730
   303   8 O      0.858    -0.468    23.078     6.441
   304   7 N      2.700    -0.165    24.571     7.362
   305   1 H      0.860     0.218     1.019     1.581
   306   6 C      3.792     0.011    20.407     6.433
   307   1 H      0.924     0.115     1.656     2.012
   308   6 C      3.817    -0.098    22.360     6.730
   309   1 H      0.924     0.102     1.769     2.080
   310   1 H      0.925     0.082     1.962     2.191
   311   6 C      2.951     0.008    27.852     8.656
   312   6 C      2.910    -0.050    29.240     8.867
   313   1 H      0.926     0.058     2.220     2.330
   314   6 C      2.900    -0.073    29.816     8.953
   315   1 H      0.926     0.016     2.801     2.617
   316   6 C      2.834     0.130    25.155     8.219
   317   8 O      1.658    -0.441    21.662     6.283
   318   1 H      0.805     0.300     0.721     1.333
   319   6 C      2.891    -0.072    29.799     8.950
   320   1 H      0.926     0.053     2.282     2.362
   321   6 C      2.901    -0.055    29.373     8.886
   322   1 H      0.926     0.093     1.852     2.128
   323   6 C      2.745     0.259    22.637     7.790
   324   8 O      0.858    -0.512    24.050     6.575
   325   7 N      2.682    -0.157    24.391     7.335
   326   1 H      0.860     0.228     0.974     1.546
   327   6 C      3.782     0.001    20.583     6.463
   328   1 H      0.925     0.084     1.942     2.179
   329   6 C      3.797    -0.075    21.941     6.670
   330   1 H      0.924     0.045     2.386     2.416
   331   1 H      0.925     0.081     1.965     2.192
   332   6 C      3.803    -0.074    21.906     6.663
   333   1 H      0.924     0.072     2.066     2.248
   334   1 H      0.925     0.052     2.294     2.369
   335   6 C      3.801    -0.094    22.296     6.723
   336   1 H      0.925     0.065     2.144     2.290
   337   1 H      0.925     0.083     1.953     2.185
   338   6 C      3.730    -0.060    21.759     6.659
   339   1 H      0.924     0.139     1.471     1.897
   340   1 H      0.924     0.113     1.675     2.024
   341   7 N      3.487    -0.139    24.005     7.277
   342   1 H      0.860     0.290     0.745     1.352
   343   1 H      0.860     0.304     0.702     1.312
   344   1 H      0.860     0.302     0.707     1.317
   345   6 C      2.747     0.276    22.333     7.738
   346   8 O      0.858    -0.454    22.785     6.400
   347   7 N      2.697    -0.205    25.459     7.494
   348   1 H      0.860     0.219     1.016     1.579
   349   6 C      3.791     0.056    19.649     6.313
   350   1 H      0.925     0.039     2.456     2.451
   351   6 C      3.821    -0.081    22.029     6.679
   352   1 H      0.924     0.019     2.749     2.593
   353   1 H      0.925     0.054     2.271     2.356
   354   6 C      2.689     0.367    20.782     7.461
   355   8 O      0.859    -0.620    26.604     6.915
   356   8 O      0.856    -0.663    27.732     7.060
   357   6 C      2.744     0.266    22.504     7.767
   358   8 O      0.860    -0.488    23.511     6.501
   359   7 N      2.684    -0.175    24.780     7.393
   360   1 H      0.860     0.196     1.126     1.662
   361   6 C      3.788     0.011    20.404     6.433
   362   1 H      0.925     0.096     1.823     2.112
   363   6 C      3.741     0.126    18.606     6.154
   364   1 H      0.925     0.026     2.650     2.546
   365   6 C      3.757    -0.132    23.093     6.851
   366   1 H      0.924     0.070     2.083     2.257
   367   1 H      0.924     0.068     2.107     2.270
   368   1 H      0.925     0.061     2.193     2.316
   369   8 O      1.666    -0.468    22.216     6.363
   370   1 H      0.806     0.309     0.696     1.310
   371   6 C      2.759     0.278    22.298     7.733
   372   8 O      0.860    -0.451    22.722     6.391
   373   7 N      2.687    -0.213    25.637     7.520
   374   1 H      0.860     0.204     1.084     1.631
   375   6 C      3.791     0.024    20.187     6.399
   376   1 H      0.925     0.085     1.925     2.170
   377   6 C      3.806    -0.043    21.343     6.577
   378   1 H      0.925     0.053     2.283     2.363
   379   1 H      0.924     0.015     2.803     2.618
   380   6 C      3.797    -0.091    22.249     6.716
   381   1 H      0.924     0.007     2.935     2.679
   382   1 H      0.925     0.023     2.683     2.561
   383   6 C      2.678     0.370    20.733     7.451
   384   8 O      0.856    -0.595    26.006     6.837
   385   8 O      0.856    -0.679    28.131     7.111
   386   6 C      2.746     0.267    22.492     7.765
   387   8 O      0.857    -0.465    23.028     6.434
   388   7 N      2.679    -0.207    25.495     7.499
   389   1 H      0.860     0.211     1.053     1.608
   390   6 C      3.738    -0.039    21.346     6.593
   391   1 H      0.925     0.112     1.680     2.027
   392   1 H      0.925     0.111     1.691     2.034
   393   6 C      2.741     0.276    22.334     7.738
   394   8 O      0.859    -0.436    22.410     6.347
   395   7 N      2.678    -0.174    24.771     7.392
   396   1 H      0.860     0.160     1.332     1.808
   397   6 C      3.779     0.013    20.384     6.432
   398   1 H      0.925     0.083     1.947     2.182
   399   6 C      3.808    -0.070    21.837     6.652
   400   1 H      0.924     0.067     2.117     2.275
   401   1 H      0.924     0.032     2.559     2.502
   402   6 C      2.962    -0.003    28.086     8.693
   403   6 C      2.908    -0.041    29.010     8.832
   404   1 H      0.926     0.011     2.877     2.652
   405   6 C      2.901    -0.053    29.326     8.879
   406   1 H      0.926     0.052     2.296     2.369
   407   6 C      2.834     0.143    24.877     8.173
   408   8 O      1.657    -0.439    21.618     6.277
   409   1 H      0.805     0.354     0.578     1.195
   410   6 C      2.912    -0.064    29.596     8.921
   411   1 H      0.926     0.071     2.079     2.255
   412   6 C      2.909    -0.044    29.097     8.845
   413   1 H      0.926     0.054     2.273     2.358
   414   6 C      2.746     0.273    22.378     7.746
   415   8 O      0.864    -0.475    23.230     6.462
   416   7 N      2.700    -0.159    24.434     7.341
   417   1 H      0.860     0.211     1.051     1.606
   418   6 C      3.804     0.023    20.186     6.396
   419   1 H      0.925     0.100     1.787     2.090
   420   6 C      3.804    -0.083    22.090     6.691
   421   1 H      0.925     0.065     2.140     2.288
   422   1 H      0.924     0.058     2.221     2.330
   423   6 C      2.943    -0.017    28.439     8.746
   424   6 C      2.916    -0.037    28.930     8.820
   425   1 H      0.926     0.037     2.483     2.464
   426   6 C      2.899    -0.077    29.932     8.970
   427   1 H      0.926     0.042     2.417     2.431
   428   6 C      2.850     0.133    25.095     8.210
   429   8 O      1.661    -0.391    20.672     6.138
   430   1 H      0.805     0.344     0.602     1.219
   431   6 C      2.899    -0.070    29.749     8.943
   432   1 H      0.926     0.092     1.862     2.134
   433   6 C      2.909    -0.041    29.030     8.835
   434   1 H      0.926     0.053     2.284     2.363
   435   6 C      2.755     0.269    22.462     7.761
   436   8 O      0.857    -0.517    24.158     6.590
   437   7 N      2.688    -0.171    24.694     7.380
   438   1 H      0.860     0.254     0.867     1.459
   439   6 C      3.779    -0.002    20.633     6.471
   440   1 H      0.924     0.080     1.980     2.201
   441   6 C      3.731     0.129    18.577     6.152
   442   1 H      0.924     0.018     2.764     2.600
   443   6 C      3.764    -0.103    22.510     6.763
   444   1 H      0.925     0.031     2.576     2.510
   445   1 H      0.925     0.049     2.329     2.387
   446   1 H      0.925     0.039     2.457     2.451
   447   8 O      1.666    -0.486    22.598     6.418
   448   1 H      0.806     0.325     0.651     1.267
   449   6 C      2.743     0.258    22.650     7.792
   450   8 O      0.862    -0.433    22.347     6.338
   451   7 N      2.689    -0.161    24.492     7.350
   452   1 H      0.860     0.192     1.147     1.678
   453   6 C      3.783     0.009    20.447     6.441
   454   1 H      0.924     0.096     1.823     2.111
   455   6 C      3.845    -0.035    21.165     6.544
   456   1 H      0.925     0.070     2.090     2.261
   457   6 C      3.747    -0.133    23.117     6.858
   458   1 H      0.925     0.046     2.370     2.408
   459   1 H      0.925     0.044     2.398     2.422
   460   1 H      0.925     0.068     2.102     2.267
   461   6 C      3.799    -0.079    22.003     6.679
   462   1 H      0.925     0.048     2.345     2.395
   463   1 H      0.924     0.055     2.262     2.352
   464   6 C      3.749    -0.120    22.871     6.821
   465   1 H      0.925     0.051     2.307     2.375
   466   1 H      0.925     0.042     2.421     2.433
   467   1 H      0.925     0.046     2.365     2.405
   468   6 C      2.751     0.265    22.521     7.771
   469   8 O      0.859    -0.509    23.978     6.565
   470   7 N      2.683    -0.147    24.185     7.304
   471   1 H      0.860     0.240     0.923     1.505
   472   6 C      3.750    -0.032    21.206     6.568
   473   1 H      0.925     0.062     2.177     2.307
   474   1 H      0.925     0.092     1.864     2.135
   475   6 C      2.750     0.277    22.310     7.734
   476   8 O      0.859    -0.438    22.449     6.353
   477   7 N      2.708    -0.177    24.828     7.400
   478   1 H      0.860     0.197     1.120     1.658
   479   6 C      3.805     0.017    20.280     6.411
   480   1 H      0.925     0.091     1.865     2.136
   481   6 C      3.842    -0.021    20.922     6.507
   482   1 H      0.924     0.034     2.537     2.491
   483   6 C      3.746    -0.109    22.665     6.791
   484   1 H      0.925     0.023     2.694     2.567
   485   1 H      0.925     0.046     2.364     2.405
   486   1 H      0.924     0.055     2.253     2.347
   487   6 C      3.793    -0.068    21.814     6.651
   488   1 H      0.925     0.043     2.403     2.424
   489   1 H      0.924     0.056     2.244     2.343
   490   6 C      3.745    -0.112    22.714     6.798
   491   1 H      0.925     0.037     2.495     2.470
   492   1 H      0.924     0.040     2.445     2.445
   493   1 H      0.925     0.052     2.295     2.369
   494   6 C      2.772     0.276    22.332     7.740
   495   8 O      0.862    -0.499    23.750     6.534
   496   7 N      2.687    -0.171    24.711     7.383
   497   1 H      0.860     0.207     1.071     1.621
   498   6 C      3.729    -0.028    21.178     6.569
   499   1 H      0.925     0.076     2.026     2.226
   500   1 H      0.925     0.089     1.891     2.151
   501   6 C      2.747     0.283    22.209     7.717
   502   8 O      0.865    -0.519    24.205     6.596
   503   7 N      2.695    -0.153    24.314     7.323
   504   1 H      0.860     0.229     0.968     1.542
   505   6 C      3.798     0.032    20.034     6.373
   506   1 H      0.925     0.063     2.164     2.300
   507   6 C      3.804    -0.083    22.076     6.689
   508   1 H      0.924     0.115     1.655     2.012
   509   1 H      0.925     0.094     1.839     2.121
   510   6 C      3.009     0.059    26.670     8.471
   511   7 N      2.785    -0.029    21.802     6.935
   512   1 H      0.860     0.253     0.871     1.462
   513   6 C      2.951     0.074    26.356     8.420
   514   1 H      0.926     0.151     1.382     1.838
   515   7 N      2.759    -0.023    21.684     6.916
   516   1 H      0.860     0.277     0.787     1.390
   517   6 C      2.992    -0.014    28.345     8.733
   518   1 H      0.926     0.129     1.544     1.943
   519   6 C      2.747     0.275    22.350     7.741
   520   8 O      0.862    -0.456    22.829     6.406
   521   7 N      2.695    -0.185    25.007     7.427
   522   1 H      0.860     0.191     1.152     1.681
   523   6 C      3.779     0.033    20.035     6.377
   524   1 H      0.924     0.056     2.245     2.343
   525   6 C      3.806    -0.081    22.049     6.685
   526   1 H      0.925     0.067     2.123     2.278
   527   1 H      0.925     0.050     2.316     2.380
   528   6 C      3.839    -0.018    20.872     6.499
   529   1 H      0.925     0.028     2.617     2.530
   530   6 C      3.750    -0.118    22.827     6.814
   531   1 H      0.925     0.035     2.520     2.483
   532   1 H      0.925     0.061     2.185     2.312
   533   1 H      0.925     0.031     2.570     2.507
   534   6 C      3.751    -0.131    23.073     6.850
   535   1 H      0.925     0.043     2.403     2.424
   536   1 H      0.924     0.072     2.067     2.249
   537   1 H      0.924     0.050     2.326     2.385
   538   6 C      2.743     0.275    22.350     7.741
   539   8 O      0.862    -0.482    23.395     6.485
   540   7 N      2.694    -0.182    24.949     7.418
   541   1 H      0.860     0.222     1.001     1.567
   542   6 C      3.804     0.021    20.223     6.402
   543   1 H      0.925     0.085     1.928     2.172
   544   6 C      3.808    -0.085    22.118     6.695
   545   1 H      0.925     0.069     2.093     2.263
   546   1 H      0.925     0.063     2.162     2.299
   547   6 C      3.858    -0.022    20.933     6.507
   548   1 H      0.925     0.037     2.489     2.467
   549   6 C      3.781    -0.122    22.852     6.810
   550   1 H      0.924     0.049     2.332     2.388
   551   1 H      0.925     0.065     2.142     2.289
   552   1 H      0.925     0.033     2.543     2.494
   553   6 C      3.775    -0.133    23.080     6.845
   554   1 H      0.924     0.038     2.471     2.458
   555   1 H      0.925     0.065     2.140     2.287
   556   1 H      0.925     0.030     2.580     2.512
   557   6 C      2.753     0.276    22.325     7.737
   558   8 O      0.860    -0.492    23.611     6.515
   559   7 N      2.694    -0.178    24.858     7.405
   560   1 H      0.860     0.220     1.010     1.574
   561   6 C      3.788     0.013    20.370     6.428
   562   1 H      0.925     0.072     2.064     2.247
   563   6 C      3.719     0.111    18.862     6.203
   564   1 H      0.925     0.024     2.679     2.560
   565   6 C      3.744    -0.133    23.141     6.862
   566   1 H      0.925     0.068     2.112     2.272
   567   1 H      0.925     0.068     2.111     2.272
   568   1 H      0.924     0.036     2.496     2.471
   569   8 O      1.661    -0.472    22.295     6.374
   570   1 H      0.806     0.342     0.608     1.224
   571   6 C      2.753     0.273    22.384     7.747
   572   8 O      0.865    -0.463    22.973     6.426
   573   7 N      2.703    -0.185    25.013     7.428
   574   1 H      0.860     0.210     1.057     1.611
   575   6 C      3.786     0.020    20.255     6.410
   576   1 H      0.925     0.091     1.868     2.138
   577   6 C      3.823    -0.081    22.029     6.679
   578   1 H      0.925     0.080     1.980     2.200
   579   1 H      0.924     0.067     2.118     2.276
   580   6 C      3.802    -0.080    22.031     6.683
   581   1 H      0.924     0.057     2.237     2.339
   582   1 H      0.925     0.050     2.315     2.379
   583   6 C      3.792    -0.101    22.436     6.745
   584   1 H      0.924     0.096     1.824     2.112
   585   1 H      0.924     0.100     1.781     2.087
   586   6 C      3.720    -0.053    21.641     6.644
   587   1 H      0.925     0.114     1.660     2.015
   588   1 H      0.924     0.102     1.765     2.078
   589   7 N      3.484    -0.147    24.174     7.302
   590   1 H      0.860     0.291     0.739     1.347
   591   1 H      0.860     0.294     0.732     1.340
   592   1 H      0.860     0.308     0.689     1.300
   593   6 C      2.744     0.260    22.613     7.786
   594   8 O      0.858    -0.494    23.645     6.520
   595   7 N      2.685    -0.151    24.272     7.317
   596   1 H      0.860     0.209     1.063     1.615
   597   6 C      3.774     0.015    20.344     6.427
   598   1 H      0.925     0.094     1.839     2.121
   599   6 C      3.664     0.065    19.743     6.373
   600   1 H      0.925     0.048     2.349     2.397
   601   1 H      0.924     0.051     2.312     2.378
   602   8 O      1.657    -0.469    22.244     6.367
   603   1 H      0.805     0.348     0.593     1.209
   604   6 C      2.755     0.257    22.681     7.799
   605   8 O      0.863    -0.516    24.143     6.588
   606   7 N      2.747    -0.071    22.623     7.064
   607   6 C      3.764    -0.021    20.995     6.531
   608   1 H      0.925     0.078     1.995     2.209
   609   1 H      0.925     0.069     2.091     2.262
   610   6 C      3.838    -0.073    21.867     6.653
   611   1 H      0.924     0.058     2.218     2.329
   612   1 H      0.925     0.066     2.127     2.281
   613   6 C      3.812    -0.074    21.905     6.662
   614   1 H      0.925     0.055     2.255     2.348
   615   1 H      0.925     0.074     2.042     2.235
   616   6 C      3.824     0.011    20.381     6.424
   617   1 H      0.925     0.082     1.954     2.186
   618   6 C      2.743     0.278    22.292     7.731
   619   8 O      0.859    -0.453    22.760     6.396
   620   7 N      2.694    -0.162    24.499     7.351
   621   1 H      0.860     0.209     1.064     1.616
   622   6 C      3.790     0.014    20.350     6.425
   623   1 H      0.924     0.091     1.869     2.138
   624   6 C      3.685     0.078    19.477     6.318
   625   1 H      0.925     0.028     2.611     2.527
   626   1 H      0.925     0.042     2.422     2.434
   627   8 O      1.653    -0.483    22.525     6.407
   628   1 H      0.805     0.337     0.618     1.235
   629   6 C      2.751     0.254    22.727     7.806
   630   8 O      0.859    -0.464    23.004     6.431
   631   7 N      2.683    -0.176    24.815     7.398
   632   1 H      0.860     0.225     0.986     1.556
   633   6 C      3.783    -0.009    20.750     6.489
   634   1 H      0.924     0.114     1.660     2.015
   635   6 C      3.797    -0.091    22.239     6.715
   636   1 H      0.924     0.064     2.150     2.293
   637   1 H      0.925     0.091     1.868     2.137
   638   6 C      3.848    -0.019    20.879     6.500
   639   1 H      0.924     0.042     2.417     2.431
   640   6 C      3.753    -0.136    23.173     6.864
   641   1 H      0.925     0.060     2.196     2.318
   642   1 H      0.924     0.065     2.145     2.291
   643   1 H      0.924     0.042     2.429     2.437
   644   6 C      3.754    -0.130    23.048     6.846
   645   1 H      0.924     0.036     2.509     2.477
   646   1 H      0.925     0.056     2.250     2.346
   647   1 H      0.925     0.048     2.341     2.393
   648   6 C      2.749     0.274    22.365     7.744
   649   8 O      0.863    -0.456    22.836     6.407
   650   7 N      2.681    -0.185    25.009     7.427
   651   1 H      0.860     0.213     1.042     1.599
   652   6 C      3.781     0.005    20.521     6.453
   653   1 H      0.925     0.112     1.676     2.025
   654   6 C      3.804    -0.119    22.768     6.793
   655   1 H      0.925     0.084     1.939     2.178
   656   1 H      0.924     0.108     1.712     2.046
   657   6 C      2.746     0.288    22.113     7.700
   658   8 O      0.859    -0.505    23.887     6.553
   659   7 N      2.638    -0.293    27.557     7.796
   660   1 H      0.860     0.227     0.979     1.550
   661   1 H      0.860     0.248     0.889     1.477
   662   6 C      2.750     0.266    22.513     7.769
   663   8 O      0.860    -0.514    24.106     6.583
   664   7 N      2.686    -0.154    24.329     7.326
   665   1 H      0.860     0.217     1.023     1.584
   666   6 C      3.792     0.019    20.268     6.411
   667   1 H      0.925     0.082     1.958     2.188
   668   6 C      3.757    -0.134    23.124     6.856
   669   1 H      0.925     0.079     1.988     2.205
   670   1 H      0.924     0.061     2.187     2.313
   671   1 H      0.925     0.070     2.084     2.258
   672   6 C      2.755     0.268    22.467     7.762
   673   8 O      0.861    -0.518    24.194     6.595
   674   7 N      2.688    -0.170    24.672     7.377
   675   1 H      0.860     0.229     0.969     1.542
   676   6 C      3.788     0.012    20.383     6.430
   677   1 H      0.925     0.085     1.927     2.171
   678   6 C      3.754    -0.152    23.502     6.913
   679   1 H      0.925     0.092     1.862     2.134
   680   1 H      0.925     0.079     1.988     2.205
   681   1 H      0.925     0.087     1.908     2.160
   682   6 C      2.748     0.270    22.443     7.757
   683   8 O      0.858    -0.508    23.959     6.563
   684   7 N      2.690    -0.171    24.703     7.382
   685   1 H      0.860     0.242     0.916     1.500
   686   6 C      3.796     0.003    20.536     6.453
   687   1 H      0.925     0.093     1.854     2.129
   688   6 C      3.807    -0.094    22.282     6.720
   689   1 H      0.925     0.059     2.210     2.325
   690   1 H      0.925     0.078     2.002     2.212
   691   6 C      3.802    -0.089    22.197     6.708
   692   1 H      0.924     0.097     1.809     2.103
   693   1 H      0.925     0.065     2.146     2.291
   694   6 C      3.804    -0.107    22.538     6.759
   695   1 H      0.924     0.089     1.885     2.147
   696   1 H      0.924     0.101     1.775     2.083
   697   6 C      3.728    -0.051    21.596     6.634
   698   1 H      0.924     0.101     1.778     2.085
   699   1 H      0.925     0.117     1.639     2.002
   700   7 N      3.487    -0.142    24.061     7.285
   701   1 H      0.860     0.302     0.706     1.316
   702   1 H      0.860     0.302     0.708     1.318
   703   1 H      0.860     0.289     0.747     1.354
   704   6 C      2.750     0.279    22.277     7.729
   705   8 O      0.858    -0.493    23.637     6.518
   706   7 N      2.690    -0.215    25.691     7.528
   707   1 H      0.860     0.248     0.891     1.479
   708   6 C      3.791     0.024    20.174     6.396
   709   1 H      0.925     0.078     2.000     2.211
   710   6 C      3.695     0.072    19.546     6.325
   711   1 H      0.924     0.058     2.228     2.334
   712   1 H      0.925     0.051     2.303     2.373
   713   8 O      1.653    -0.479    22.455     6.397
   714   1 H      0.805     0.338     0.616     1.233
   715   6 C      2.766     0.266    22.505     7.769
   716   8 O      0.860    -0.513    24.079     6.579
   717   7 N      2.688    -0.181    24.911     7.413
   718   1 H      0.860     0.220     1.009     1.573
   719   6 C      3.790     0.032    20.041     6.376
   720   1 H      0.925     0.069     2.096     2.264
   721   6 C      3.809    -0.062    21.680     6.628
   722   1 H      0.924     0.058     2.223     2.331
   723   1 H      0.925     0.070     2.089     2.260
   724   6 C      3.806    -0.088    22.169     6.703
   725   1 H      0.925     0.026     2.645     2.543
   726   1 H      0.925     0.037     2.495     2.470
   727   6 C      2.685     0.352    21.029     7.505
   728   8 O      0.856    -0.614    26.454     6.896
   729   8 O      0.856    -0.651    27.413     7.020
   730   6 C      2.744     0.264    22.541     7.774
   731   8 O      0.858    -0.502    23.820     6.544
   732   7 N      2.678    -0.186    25.031     7.431
   733   1 H      0.860     0.226     0.981     1.552
   734   6 C      3.784     0.014    20.357     6.427
   735   1 H      0.924     0.095     1.829     2.115
   736   6 C      3.809    -0.081    22.046     6.684
   737   1 H      0.925     0.043     2.408     2.426
   738   1 H      0.924     0.081     1.971     2.195
   739   6 C      3.845    -0.019    20.876     6.499
   740   1 H      0.924     0.027     2.623     2.533
   741   6 C      3.754    -0.127    23.004     6.839
   742   1 H      0.925     0.055     2.264     2.353
   743   1 H      0.924     0.069     2.097     2.265
   744   1 H      0.925     0.037     2.483     2.464
   745   6 C      3.761    -0.128    23.003     6.837
   746   1 H      0.924     0.046     2.377     2.411
   747   1 H      0.924     0.033     2.544     2.494
   748   1 H      0.924     0.075     2.028     2.227
   749   6 C      2.761     0.280    22.261     7.727
   750   8 O      0.863    -0.512    24.055     6.576
   751   7 N      2.697    -0.163    24.526     7.355
   752   1 H      0.860     0.216     1.026     1.586
   753   6 C      3.798     0.048    19.765     6.330
   754   1 H      0.925     0.084     1.935     2.175
   755   6 C      3.802    -0.085    22.115     6.695
   756   1 H      0.924     0.033     2.545     2.495
   757   1 H      0.925     0.044     2.401     2.423
   758   6 C      2.688     0.359    20.902     7.482
   759   8 O      0.856    -0.629    26.845     6.947
   760   8 O      0.856    -0.606    26.272     6.872
   761   6 C      2.750     0.271    22.416     7.753
   762   8 O      0.860    -0.490    23.568     6.509
   763   7 N      2.678    -0.204    25.430     7.490
   764   1 H      0.860     0.191     1.154     1.683
   765   6 C      3.769     0.012    20.414     6.439
   766   1 H      0.925     0.080     1.977     2.199
   767   6 C      3.802    -0.077    21.969     6.673
   768   1 H      0.925     0.061     2.182     2.310
   769   1 H      0.924     0.071     2.069     2.250
   770   6 C      3.803    -0.071    21.863     6.657
   771   1 H      0.924     0.060     2.201     2.320
   772   1 H      0.925     0.048     2.343     2.394
   773   6 C      3.802    -0.097    22.339     6.729
   774   1 H      0.924     0.079     1.986     2.204
   775   1 H      0.925     0.084     1.938     2.177
   776   6 C      3.731    -0.028    21.164     6.567
   777   1 H      0.924     0.107     1.721     2.052
   778   1 H      0.925     0.081     1.965     2.192
   779   7 N      3.486    -0.160    24.443     7.343
   780   1 H      0.860     0.294     0.733     1.341
   781   1 H      0.860     0.297     0.721     1.330
   782   1 H      0.860     0.292     0.738     1.346
   783   6 C      2.735     0.266    22.502     7.766
   784   8 O      0.859    -0.490    23.559     6.508
   785   7 N      2.687    -0.180    24.901     7.411
   786   1 H      0.860     0.212     1.047     1.603
   787   6 C      3.776     0.028    20.123     6.391
   788   1 H      0.924     0.079     1.993     2.208
   789   6 C      3.752    -0.141    23.272     6.879
   790   1 H      0.924     0.084     1.935     2.175
   791   1 H      0.925     0.074     2.045     2.236
   792   1 H      0.925     0.082     1.960     2.189
   793   6 C      2.739     0.264    22.547     7.774
   794   8 O      0.857    -0.510    24.003     6.569
   795   7 N      2.677    -0.199    25.329     7.475
   796   1 H      0.860     0.229     0.968     1.541
   797   6 C      3.784     0.023    20.202     6.402
   798   1 H      0.925     0.091     1.874     2.141
   799   6 C      3.851    -0.016    20.822     6.490
   800   1 H      0.925     0.034     2.536     2.490
   801   6 C      3.754    -0.110    22.670     6.789
   802   1 H      0.924     0.033     2.547     2.496
   803   1 H      0.925     0.059     2.206     2.323
   804   1 H      0.924     0.046     2.367     2.406
   805   6 C      3.797    -0.074    21.925     6.667
   806   1 H      0.925     0.066     2.135     2.285
   807   1 H      0.925     0.053     2.279     2.361
   808   6 C      3.748    -0.112    22.711     6.797
   809   1 H      0.925     0.034     2.533     2.489
   810   1 H      0.924     0.043     2.408     2.427
   811   1 H      0.925     0.054     2.271     2.357
   812   6 C      2.746     0.270    22.442     7.757
   813   8 O      0.864    -0.520    24.218     6.598
   814   7 N      2.686    -0.154    24.328     7.325
   815   1 H      0.860     0.202     1.094     1.638
   816   6 C      3.734    -0.026    21.125     6.560
   817   1 H      0.925     0.099     1.790     2.092
   818   1 H      0.925     0.100     1.788     2.091
   819   6 C      2.740     0.273    22.381     7.746
   820   8 O      0.862    -0.491    23.591     6.512
   821   7 N      2.688    -0.173    24.742     7.388
   822   1 H      0.860     0.194     1.139     1.672
   823   6 C      3.782     0.015    20.349     6.426
   824   1 H      0.924     0.074     2.047     2.238
   825   6 C      3.796    -0.081    22.045     6.686
   826   1 H      0.925     0.068     2.104     2.268
   827   1 H      0.924     0.066     2.133     2.284
   828   6 C      3.801    -0.075    21.941     6.669
   829   1 H      0.924     0.051     2.303     2.373
   830   1 H      0.925     0.060     2.199     2.319
   831   6 C      3.741    -0.019    20.996     6.538
   832   1 H      0.925     0.080     1.979     2.200
   833   1 H      0.925     0.077     2.015     2.220
   834   7 N      2.713    -0.165    24.568     7.362
   835   1 H      0.860     0.239     0.927     1.508
   836   6 C      2.738     0.242    22.940     7.842
   837   7 N      2.660    -0.268    26.935     7.708
   838   1 H      0.860     0.235     0.943     1.521
   839   1 H      0.860     0.237     0.936     1.515
   840   7 N      2.665    -0.256    26.653     7.668
   841   1 H      0.860     0.239     0.928     1.509
   842   1 H      0.860     0.257     0.857     1.450
   843   6 C      2.746     0.286    22.155     7.707
   844   8 O      0.864    -0.461    22.932     6.421
   845   7 N      2.687    -0.188    25.079     7.438
   846   1 H      0.860     0.213     1.042     1.599
   847   6 C      3.784     0.041    19.899     6.354
   848   1 H      0.925     0.053     2.286     2.364
   849   6 C      3.802    -0.110    22.597     6.768
   850   1 H      0.924     0.083     1.948     2.183
   851   1 H      0.924     0.072     2.066     2.248
   852   6 C      2.738     0.290    22.077     7.693
   853   8 O      0.859    -0.497    23.725     6.531
   854   7 N      2.637    -0.281    27.248     7.753
   855   1 H      0.860     0.256     0.859     1.452
   856   1 H      0.860     0.236     0.939     1.518
   857   6 C      2.743     0.270    22.440     7.756
   858   8 O      0.860    -0.490    23.565     6.508
   859   7 N      2.688    -0.202    25.393     7.484
   860   1 H      0.860     0.227     0.978     1.549
   861   6 C      3.804     0.019    20.250     6.406
   862   1 H      0.925     0.096     1.825     2.112
   863   6 C      3.799    -0.020    20.938     6.515
   864   1 H      0.925     0.097     1.812     2.105
   865   1 H      0.925     0.072     2.063     2.246
   866  16 S      1.913    -0.273   152.810    20.806
   867   1 H      0.923     0.164     1.299     1.782
   868   6 C      2.748     0.275    22.348     7.741
   869   8 O      0.861    -0.432    22.327     6.335
   870   7 N      2.684    -0.208    25.518     7.502
   871   1 H      0.860     0.196     1.128     1.664
   872   6 C      3.784     0.029    20.097     6.386
   873   1 H      0.925     0.089     1.885     2.147
   874   6 C      3.804    -0.102    22.434     6.743
   875   1 H      0.925     0.090     1.878     2.143
   876   1 H      0.925     0.077     2.012     2.218
   877   6 C      2.743     0.288    22.111     7.699
   878   8 O      0.872    -0.501    23.800     6.541
   879   7 N      2.650    -0.271    27.001     7.717
   880   1 H      0.860     0.257     0.856     1.450
   881   1 H      0.860     0.215     1.032     1.591
   882   6 C      2.747     0.265    22.522     7.771
   883   8 O      0.857    -0.462    22.969     6.426
   884   7 N      2.681    -0.171    24.694     7.380
   885   1 H      0.860     0.184     1.189     1.708
   886   6 C      3.738    -0.054    21.620     6.635
   887   1 H      0.924     0.134     1.502     1.917
   888   1 H      0.924     0.117     1.641     2.003
   889   6 C      2.741     0.268    22.467     7.761
   890   8 O      0.858    -0.474    23.222     6.461
   891   7 N      2.677    -0.163    24.527     7.355
   892   1 H      0.860     0.206     1.074     1.623
   893   6 C      3.772     0.003    20.567     6.462
   894   1 H      0.925     0.089     1.892     2.151
   895   6 C      3.839    -0.022    20.930     6.508
   896   1 H      0.924     0.068     2.103     2.268
   897   6 C      3.754    -0.121    22.879     6.821
   898   1 H      0.925     0.035     2.522     2.483
   899   1 H      0.924     0.052     2.293     2.368
   900   1 H      0.925     0.049     2.335     2.390
   901   6 C      3.760    -0.123    22.903     6.822
   902   1 H      0.925     0.056     2.251     2.346
   903   1 H      0.925     0.022     2.703     2.571
   904   1 H      0.924     0.069     2.093     2.263
   905   6 C      2.740     0.280    22.263     7.725
   906   8 O      0.860    -0.448    22.662     6.383
   907   7 N      2.692    -0.202    25.386     7.483
   908   1 H      0.860     0.228     0.974     1.546
   909   6 C      3.789     0.015    20.337     6.423
   910   1 H      0.925     0.062     2.178     2.308
   911   6 C      3.850    -0.009    20.700     6.471
   912   1 H      0.925     0.027     2.628     2.535
   913   6 C      3.770    -0.117    22.780     6.802
   914   1 H      0.924     0.040     2.444     2.445
   915   1 H      0.925     0.051     2.305     2.374
   916   1 H      0.925     0.057     2.234     2.337
   917   6 C      3.814    -0.066    21.763     6.640
   918   1 H      0.925     0.035     2.513     2.479
   919   1 H      0.924     0.067     2.123     2.279
   920   6 C      3.752    -0.122    22.896     6.824
   921   1 H      0.924     0.046     2.370     2.407
   922   1 H      0.925     0.035     2.517     2.481
   923   1 H      0.925     0.049     2.331     2.388
   924   6 C      2.756     0.263    22.557     7.777
   925   8 O      0.863    -0.478    23.300     6.472
   926   7 N      2.680    -0.190    25.127     7.445
   927   1 H      0.860     0.208     1.066     1.617
   928   6 C      3.769    -0.007    20.740     6.490
   929   1 H      0.925     0.096     1.823     2.112
   930   6 C      3.717     0.119    18.751     6.186
   931   1 H      0.924     0.050     2.322     2.383
   932   6 C      3.760    -0.133    23.112     6.854
   933   1 H      0.925     0.059     2.215     2.328
   934   1 H      0.924     0.062     2.172     2.305
   935   1 H      0.925     0.060     2.203     2.321
   936   8 O      1.661    -0.517    23.250     6.509
   937   1 H      0.806     0.332     0.632     1.248
   938   6 C      2.748     0.279    22.278     7.729
   939   8 O      0.863    -0.460    22.912     6.418
   940   7 N      2.687    -0.207    25.497     7.499
   941   1 H      0.860     0.210     1.056     1.610
   942   6 C      3.787     0.010    20.420     6.436
   943   1 H      0.925     0.101     1.772     2.082
   944   6 C      3.807    -0.093    22.263     6.717
   945   1 H      0.925     0.061     2.185     2.311
   946   1 H      0.925     0.095     1.829     2.115
   947   6 C      3.801    -0.074    21.920     6.666
   948   1 H      0.925     0.067     2.117     2.275
   949   1 H      0.924     0.041     2.432     2.439
   950   6 C      3.801    -0.102    22.438     6.744
   951   1 H      0.924     0.081     1.965     2.192
   952   1 H      0.925     0.097     1.811     2.104
   953   6 C      3.732    -0.047    21.505     6.619
   954   1 H      0.924     0.115     1.658     2.014
   955   1 H      0.925     0.102     1.764     2.077
   956   7 N      3.485    -0.155    24.343     7.328
   957   1 H      0.860     0.298     0.721     1.330
   958   1 H      0.860     0.304     0.702     1.313
   959   1 H      0.860     0.304     0.700     1.311
   960   6 C      2.752     0.278    22.301     7.733
   961   8 O      0.864    -0.498    23.737     6.532
   962   7 N      2.693    -0.172    24.720     7.384
   963   1 H      0.860     0.203     1.088     1.634
   964   6 C      3.791     0.028    20.116     6.387
   965   1 H      0.925     0.068     2.109     2.271
   966   6 C      3.801    -0.089    22.201     6.708
   967   1 H      0.925     0.029     2.605     2.524
   968   1 H      0.925     0.056     2.251     2.346
   969   6 C      2.687     0.366    20.796     7.463
   970   8 O      0.856    -0.659    27.612     7.045
   971   8 O      0.856    -0.646    27.270     7.001
   972   6 C      2.755     0.279    22.278     7.729
   973   8 O      0.858    -0.486    23.480     6.497
   974   7 N      2.689    -0.185    25.009     7.427
   975   1 H      0.860     0.217     1.021     1.583
   976   6 C      3.800     0.022    20.212     6.401
   977   1 H      0.925     0.077     2.008     2.216
   978   6 C      3.808    -0.060    21.638     6.622
   979   1 H      0.925     0.061     2.189     2.314
   980   1 H      0.925     0.057     2.235     2.338
   981   6 C      3.797    -0.091    22.242     6.715
   982   1 H      0.925     0.035     2.521     2.483
   983   1 H      0.924     0.026     2.645     2.543
   984   6 C      2.688     0.364    20.824     7.468
   985   8 O      0.858    -0.607    26.287     6.874
   986   8 O      0.858    -0.576    25.527     6.774
   987   6 C      2.760     0.268    22.478     7.764
   988   8 O      0.858    -0.491    23.587     6.511
   989   7 N      2.687    -0.186    25.026     7.430
   990   1 H      0.860     0.229     0.970     1.543
   991   6 C      3.791     0.009    20.436     6.438
   992   1 H      0.924     0.085     1.924     2.169
   993   6 C      3.758    -0.138    23.209     6.868
   994   1 H      0.924     0.069     2.094     2.263
   995   1 H      0.924     0.094     1.844     2.123
   996   1 H      0.925     0.078     2.003     2.213
   997   6 C      2.752     0.275    22.347     7.741
   998   8 O      0.867    -0.521    24.244     6.602
   999   7 N      2.694    -0.181    24.921     7.414
  1000   1 H      0.860     0.223     0.994     1.562
  1001   6 C      3.784     0.029    20.098     6.386
  1002   1 H      0.925     0.093     1.852     2.128
  1003   6 C      3.798    -0.054    21.549     6.610
  1004   1 H      0.925     0.055     2.256     2.349
  1005   1 H      0.925     0.031     2.568     2.506
  1006   6 C      3.805    -0.085    22.120     6.695
  1007   1 H      0.925     0.042     2.419     2.432
  1008   1 H      0.924     0.062     2.176     2.307
  1009   6 C      2.691     0.344    21.155     7.527
  1010   8 O      0.856    -0.656    27.539     7.036
  1011   8 O      0.857    -0.606    26.271     6.872
  1012   6 C      2.744     0.272    22.399     7.749
  1013   8 O      0.859    -0.472    23.173     6.454
  1014   7 N      2.690    -0.190    25.118     7.444
  1015   1 H      0.860     0.181     1.207     1.721
  1016   6 C      3.790     0.022    20.223     6.405
  1017   1 H      0.925     0.087     1.903     2.158
  1018   6 C      3.797    -0.080    22.034     6.684
  1019   1 H      0.924     0.064     2.156     2.296
  1020   1 H      0.925     0.066     2.129     2.282
  1021   6 C      3.795    -0.084    22.101     6.694
  1022   1 H      0.925     0.067     2.122     2.278
  1023   1 H      0.925     0.067     2.118     2.276
  1024   6 C      3.788    -0.095    22.322     6.729
  1025   1 H      0.925     0.086     1.916     2.165
  1026   1 H      0.925     0.078     1.997     2.210
  1027   6 C      3.718    -0.068    21.926     6.689
  1028   1 H      0.924     0.120     1.612     1.986
  1029   1 H      0.925     0.124     1.581     1.967
  1030   7 N      3.484    -0.155    24.334     7.327
  1031   1 H      0.860     0.301     0.710     1.320
  1032   1 H      0.860     0.293     0.735     1.343
  1033   1 H      0.860     0.312     0.678     1.290
  1034   6 C      2.753     0.274    22.363     7.744
  1035   8 O      0.858    -0.472    23.176     6.455
  1036   7 N      2.680    -0.204    25.430     7.490
  1037   1 H      0.860     0.218     1.020     1.582
  1038   6 C      3.782     0.014    20.362     6.428
  1039   1 H      0.924     0.086     1.917     2.165
  1040   6 C      3.802    -0.078    21.993     6.677
  1041   1 H      0.925     0.048     2.351     2.398
  1042   1 H      0.925     0.077     2.011     2.218
  1043   6 C      3.846    -0.013    20.775     6.483
  1044   1 H      0.924     0.028     2.619     2.531
  1045   6 C      3.755    -0.131    23.077     6.850
  1046   1 H      0.925     0.044     2.399     2.422
  1047   1 H      0.925     0.035     2.518     2.482
  1048   1 H      0.925     0.049     2.332     2.388
  1049   6 C      3.760    -0.125    22.948     6.829
  1050   1 H      0.925     0.053     2.279     2.361
  1051   1 H      0.925     0.040     2.444     2.445
  1052   1 H      0.925     0.065     2.142     2.289
  1053   6 C      2.743     0.297    21.965     7.674
  1054   8 O      0.870    -0.475    23.222     6.461
  1055   7 N      2.695    -0.218    25.762     7.538
  1056   1 H      0.860     0.210     1.055     1.609
  1057   6 C      3.776     0.030    20.099     6.388
  1058   1 H      0.924     0.073     2.056     2.242
  1059   6 C      3.813    -0.079    21.995     6.675
  1060   1 H      0.925     0.062     2.173     2.305
  1061   1 H      0.925     0.071     2.078     2.254
  1062   6 C      2.960    -0.001    28.044     8.686
  1063   6 C      2.933    -0.032    28.788     8.799
  1064   1 H      0.926     0.015     2.818     2.625
  1065   6 C      2.906    -0.043    29.065     8.840
  1066   1 H      0.926     0.053     2.283     2.363
  1067   6 C      2.946    -0.036    28.894     8.816
  1068   1 H      0.926     0.046     2.370     2.407
  1069   6 C      2.902    -0.037    28.911     8.816
  1070   1 H      0.926     0.056     2.252     2.347
  1071   6 C      2.927    -0.050    29.243     8.868
  1072   1 H      0.926     0.041     2.432     2.439
  1073   6 C      2.757     0.280    22.267     7.727
  1074   8 O      0.859    -0.491    23.594     6.512
  1075   7 N      2.688    -0.160    24.464     7.346
  1076   1 H      0.860     0.218     1.019     1.581
  1077   6 C      3.797     0.033    20.030     6.373
  1078   1 H      0.924     0.082     1.960     2.189
  1079   6 C      3.809    -0.111    22.610     6.769
  1080   1 H      0.924     0.079     1.985     2.203
  1081   1 H      0.925     0.085     1.932     2.174
  1082   6 C      2.742     0.288    22.110     7.699
  1083   8 O      0.872    -0.513    24.077     6.579
  1084   7 N      2.651    -0.269    26.968     7.713
  1085   1 H      0.860     0.250     0.884     1.473
  1086   1 H      0.860     0.233     0.952     1.528
  1087   6 C      2.741     0.286    22.149     7.706
  1088   8 O      0.858    -0.482    23.381     6.483
  1089   7 N      2.680    -0.208    25.518     7.503
  1090   1 H      0.860     0.239     0.928     1.509
  1091   6 C      3.788     0.033    20.040     6.376
  1092   1 H      0.925     0.074     2.042     2.235
  1093   6 C      3.804    -0.064    21.719     6.635
  1094   1 H      0.925     0.064     2.150     2.293
  1095   1 H      0.925     0.075     2.034     2.230
  1096   6 C      3.804    -0.107    22.538     6.759
  1097   1 H      0.925     0.074     2.045     2.236
  1098   1 H      0.924     0.074     2.044     2.236
  1099   6 C      2.744     0.300    21.899     7.662
  1100   8 O      0.887    -0.499    23.737     6.533
  1101   7 N      2.664    -0.287    27.407     7.775
  1102   1 H      0.860     0.241     0.918     1.501
  1103   1 H      0.860     0.220     1.011     1.575
  1104   6 C      2.751     0.271    22.417     7.753
  1105   8 O      0.858    -0.509    23.974     6.565
  1106   7 N      2.680    -0.183    24.968     7.421
  1107   1 H      0.860     0.201     1.103     1.645
  1108   6 C      3.784     0.041    19.907     6.356
  1109   1 H      0.925     0.078     1.998     2.210
  1110   6 C      3.808    -0.075    21.919     6.664
  1111   1 H      0.925     0.042     2.422     2.434
  1112   1 H      0.925     0.035     2.513     2.479
  1113   6 C      2.689     0.366    20.786     7.461
  1114   8 O      0.857    -0.621    26.644     6.921
  1115   8 O      0.856    -0.624    26.718     6.930
  1116   6 C      2.747     0.273    22.390     7.748
  1117   8 O      0.864    -0.480    23.352     6.479
  1118   7 N      2.686    -0.208    25.526     7.504
  1119   1 H      0.860     0.215     1.033     1.592
  1120   6 C      3.777     0.014    20.368     6.430
  1121   1 H      0.924     0.087     1.904     2.158
  1122   6 C      3.843    -0.021    20.919     6.506
  1123   1 H      0.924     0.042     2.427     2.436
  1124   6 C      3.769    -0.125    22.939     6.826
  1125   1 H      0.924     0.057     2.230     2.335
  1126   1 H      0.924     0.074     2.047     2.238
  1127   1 H      0.924     0.059     2.211     2.325
  1128   6 C      3.760    -0.126    22.966     6.832
  1129   1 H      0.925     0.028     2.614     2.528
  1130   1 H      0.925     0.053     2.287     2.365
  1131   1 H      0.925     0.056     2.250     2.346
  1132   6 C      2.735     0.266    22.509     7.768
  1133   8 O      0.860    -0.448    22.658     6.382
  1134   7 N      2.687    -0.204    25.443     7.492
  1135   1 H      0.860     0.204     1.088     1.634
  1136   6 C      3.789     0.044    19.845     6.345
  1137   1 H      0.924     0.075     2.029     2.227
  1138   6 C      3.810    -0.089    22.186     6.705
  1139   1 H      0.925     0.032     2.553     2.499
  1140   1 H      0.925     0.034     2.536     2.490
  1141   6 C      2.686     0.361    20.875     7.477
  1142   8 O      0.856    -0.607    26.285     6.874
  1143   8 O      0.856    -0.622    26.665     6.923
  1144   6 C      2.747     0.257    22.675     7.797
  1145   8 O      0.857    -0.507    23.936     6.560
  1146   7 N      2.679    -0.170    24.689     7.380
  1147   1 H      0.860     0.197     1.119     1.657
  1148   6 C      3.770     0.013    20.398     6.436
  1149   1 H      0.925     0.107     1.727     2.055
  1150   6 C      3.748    -0.137    23.197     6.869
  1151   1 H      0.925     0.094     1.845     2.124
  1152   1 H      0.925     0.049     2.328     2.386
  1153   1 H      0.924     0.081     1.967     2.193
  1154   6 C      2.755     0.260    22.620     7.788
  1155   8 O      0.858    -0.470    23.137     6.449
  1156   7 N      2.687    -0.169    24.658     7.375
  1157   1 H      0.860     0.199     1.109     1.650
  1158   6 C      3.803     0.025    20.147     6.390
  1159   1 H      0.925     0.083     1.952     2.185
  1160   6 C      3.756    -0.126    22.963     6.832
  1161   1 H      0.925     0.059     2.209     2.324
  1162   1 H      0.925     0.056     2.251     2.346
[...]
  2292  H   0.960        N 2291 0.925
  2293  C   3.960        C 2295 0.991    C 2313 0.957    N 2291 0.957    H 2294 0.947
  2294  H   0.990        C 2293 0.947
  2295  C   3.989        C 2298 1.002    C 2293 0.991    H 2297 0.968    H 2296 0.967
  2296  H   0.996        C 2295 0.967
  2297  H   0.995        C 2295 0.968
  2298  C   3.983        C 2301 1.002    C 2295 1.002    H 2300 0.973    H 2299 0.968
  2299  H   0.993        C 2298 0.968
  2300  H   0.993        C 2298 0.973
  2301  C   3.947        C 2298 1.002    N 2304 0.973    H 2303 0.962    H 2302 0.962
  2302  H   0.993        C 2301 0.962
  2303  H   0.995        C 2301 0.962
  2304  N   3.465        C 2306 1.332    C 2301 0.973    H 2305 0.886    N 2310 0.111
  2305  H   0.940        N 2304 0.886
  2306  C   3.978        N 2304 1.332    N 2310 1.331    N 2307 1.283
  2307  N   3.376        C 2306 1.283    H 2309 0.925    H 2308 0.924
  2308  H   0.951        N 2307 0.924
  2309  H   0.949        N 2307 0.925
  2310  N   3.398        C 2306 1.331    H 2311 0.924    H 2312 0.868    N 2304 0.111
  2311  H   0.954        N 2310 0.924
  2312  H   0.924        N 2310 0.868
  2313  C   3.958        O 2314 1.598    N 2315 1.317    C 2293 0.957
  2314  O   1.942        C 2313 1.598    N 2315 0.205
  2315  N   3.483        C 2313 1.317    C 2317 0.969    H 2316 0.903    O 2314 0.205
  2316  H   0.953        N 2315 0.903
  2317  C   3.951        C 2319 0.983    N 2315 0.969    C 2323 0.949    H 2318 0.948
  2318  H   0.993        C 2317 0.948
  2319  C   3.973        C 2317 0.983    H 2320 0.980    H 2322 0.975    H 2321 0.974
  2320  H   0.994        C 2319 0.980
  2321  H   0.995        C 2319 0.974
  2322  H   0.993        C 2319 0.975
  2323  C   3.957        O 2324 1.591    N 2325 1.344    C 2317 0.949
  2324  O   1.915        C 2323 1.591    N 2325 0.198
  2325  N   3.485        C 2323 1.344    C 2327 0.956    H 2326 0.884    O 2324 0.198
  2326  H   0.945        N 2325 0.884
  2327  C   3.953        C 2329 0.977    N 2325 0.956    C 2345 0.954    H 2328 0.943
  2328  H   0.987        C 2327 0.943
  2329  C   3.981        C 2332 1.003    C 2327 0.977    H 2331 0.972    H 2330 0.970
  2330  H   0.994        C 2329 0.970
  2331  H   0.996        C 2329 0.972
  2332  C   3.983        C 2335 1.006    C 2329 1.003    H 2333 0.968    H 2334 0.968
  2333  H   0.994        C 2332 0.968
  2334  H   0.993        C 2332 0.968
  2335  C   3.984        C 2338 1.016    C 2332 1.006    H 2336 0.967    H 2337 0.961
  2336  H   0.992        C 2335 0.967
  2337  H   0.994        C 2335 0.961
  2338  C   3.909        C 2335 1.016    H 2339 0.964    H 2340 0.962    N 2341 0.944
  2339  H   0.985        C 2338 0.964
  2340  H   0.986        C 2338 0.962
  2341  N   3.651        C 2338 0.944    H 2343 0.899    H 2342 0.897    H 2344 0.875
  2342  H   0.915        N 2341 0.897
  2343  H   0.916        N 2341 0.899
  2344  H   0.918        N 2341 0.875
  2345  C   3.944        O 2346 1.571    N 2347 1.333    C 2327 0.954
  2346  O   1.915        C 2345 1.571    N 2347 0.190
  2347  N   3.492        C 2345 1.333    C 2349 0.969    H 2348 0.914    O 2346 0.190
  2348  H   0.955        N 2347 0.914
  2349  C   3.965        C 2351 0.984    N 2347 0.969    C 2369 0.950    H 2350 0.947
  2350  H   0.993        C 2349 0.947
  2351  C   3.984        C 2354 0.998    C 2349 0.984    H 2353 0.970    H 2352 0.968
  2352  H   0.993        C 2351 0.968
  2353  H   0.993        C 2351 0.970
  2354  C   3.982        C 2357 1.003    C 2351 0.998    H 2356 0.967    H 2355 0.958
  2355  H   0.995        C 2354 0.958
  2356  H   0.995        C 2354 0.967
  2357  C   3.940        C 2354 1.003    H 2359 0.964    H 2358 0.961    N 2360 0.956
  2358  H   0.992        C 2357 0.961
  2359  H   0.994        C 2357 0.964
  2360  N   3.424        C 2362 1.288    C 2357 0.956    H 2361 0.903    N 2366 0.102
  2361  H   0.950        N 2360 0.903
  2362  C   3.979        N 2366 1.337    N 2363 1.331    N 2360 1.288
  2363  N   3.406        C 2362 1.331    H 2364 0.917    H 2365 0.910    N 2366 0.106
  2364  H   0.941        N 2363 0.917
  2365  H   0.941        N 2363 0.910
  2366  N   3.390        C 2362 1.337    H 2367 0.916    H 2368 0.851    N 2363 0.106    N 2360 0.102
  2367  H   0.943        N 2366 0.916
  2368  H   0.934        N 2366 0.851
  2369  C   3.954        O 2370 1.587    N 2371 1.343    C 2349 0.950
  2370  O   1.916        C 2369 1.587    N 2371 0.203
  2371  N   3.480        C 2369 1.343    C 2373 0.946    H 2372 0.901    O 2370 0.203
  2372  H   0.947        N 2371 0.901
  2373  C   3.950        C 2375 0.970    H 2374 0.955    N 2371 0.946    C 2385 0.942
  2374  H   0.993        C 2373 0.955
  2375  C   3.986        C 2381 1.012    C 2377 1.002    C 2373 0.970    H 2376 0.961
  2376  H   0.995        C 2375 0.961
  2377  C   3.988        C 2375 1.002    H 2380 0.982    H 2379 0.981    H 2378 0.980
  2378  H   0.999        C 2377 0.980
  2379  H   0.998        C 2377 0.981
  2380  H   0.996        C 2377 0.982
  2381  C   3.987        C 2375 1.012    H 2384 0.980    H 2383 0.975    H 2382 0.975
  2382  H   0.996        C 2381 0.975
  2383  H   0.997        C 2381 0.975
  2384  H   0.997        C 2381 0.980
  2385  C   3.948        O 2386 1.617    N 2387 1.310    C 2373 0.942
  2386  O   1.941        C 2385 1.617    N 2387 0.189
  2387  N   3.475        C 2385 1.310    C 2389 0.979    H 2388 0.905    O 2386 0.189
  2388  H   0.954        N 2387 0.905
  2389  C   3.952        N 2387 0.979    C 2391 0.954    C 2404 0.950    H 2390 0.942
  2390  H   0.990        C 2389 0.942
  2391  C   3.977        C 2393 1.010    C 2397 0.988    H 2392 0.957    C 2389 0.954
  2392  H   0.996        C 2391 0.957
  2393  C   3.991        C 2391 1.010    H 2395 0.980    H 2396 0.980    H 2394 0.977
  2394  H   0.998        C 2393 0.977
  2395  H   0.994        C 2393 0.980
  2396  H   0.998        C 2393 0.980
  2397  C   3.988        C 2400 1.014    C 2391 0.988    H 2399 0.976    H 2398 0.973
  2398  H   0.997        C 2397 0.973
  2399  H   0.997        C 2397 0.976
  2400  C   3.991        C 2397 1.014    H 2401 0.989    H 2403 0.981    H 2402 0.977
  2401  H   0.997        C 2400 0.989
  2402  H   0.998        C 2400 0.977
  2403  H   0.997        C 2400 0.981
  2404  C   3.942        O 2405 1.587    N 2406 1.305    C 2389 0.950
  2405  O   1.945        C 2404 1.587    N 2406 0.192
  2406  N   3.470        C 2404 1.305    C 2408 0.977    H 2407 0.905    O 2405 0.192
  2407  H   0.950        N 2406 0.905
  2408  C   3.964        N 2406 0.977    C 2418 0.949    C 2410 0.945    H 2409 0.942
  2409  H   0.991        C 2408 0.942
  2410  C   3.962        O 2416 1.006    C 2412 1.000    H 2411 0.966    C 2408 0.945
  2411  H   0.999        C 2410 0.966
  2412  C   3.988        C 2410 1.000    H 2413 0.984    H 2414 0.984    H 2415 0.982
  2413  H   0.996        C 2412 0.984
  2414  H   0.998        C 2412 0.984
  2415  H   0.994        C 2412 0.982
  2416  O   1.954        C 2410 1.006    H 2417 0.852
  2417  H   0.885        O 2416 0.852
  2418  C   3.950        O 2419 1.585    N 2420 1.323    C 2408 0.949
  2419  O   1.952        C 2418 1.585    N 2420 0.191
  2420  N   3.494        C 2418 1.323    C 2422 0.984    H 2421 0.907    O 2419 0.191
  2421  H   0.954        N 2420 0.907
  2422  C   3.958        N 2420 0.984    C 2424 0.961    H 2423 0.946    C 2432 0.921
  2423  H   0.991        C 2422 0.946
  2424  C   3.951        C 2426 1.001    O 2430 0.980    C 2422 0.961    H 2425 0.961
  2425  H   0.997        C 2424 0.961
  2426  C   3.986        C 2424 1.001    H 2427 0.983    H 2428 0.981    H 2429 0.979
  2427  H   0.995        C 2426 0.983
  2428  H   0.997        C 2426 0.981
  2429  H   0.994        C 2426 0.979
  2430  O   1.933        C 2424 0.980    H 2431 0.877
  2431  H   0.899        O 2430 0.877
  2432  C   3.954        O 2433 1.636    N 2434 1.303    C 2422 0.921
  2433  O   1.979        C 2432 1.636    N 2434 0.199
  2434  N   3.481        C 2432 1.303    C 2436 0.989    H 2435 0.902    O 2433 0.199
  2435  H   0.951        N 2434 0.902
  2436  C   3.957        N 2434 0.989    C 2438 0.960    C 2452 0.947    H 2437 0.939
  2437  H   0.992        C 2436 0.939
  2438  C   3.979        C 2441 1.012    H 2440 0.964    C 2436 0.960    H 2439 0.949
  2439  H   0.991        C 2438 0.949
  2440  H   0.994        C 2438 0.964
  2441  C   3.981        C 2450 1.442    C 2442 1.345    C 2438 1.012    C 2446 0.127
  2442  C   3.988        C 2444 1.518    C 2441 1.345    H 2443 0.964    C 2448 0.105
  2443  H   0.998        C 2442 0.964
  2444  C   3.992        C 2442 1.518    C 2446 1.386    H 2445 0.962
  2445  H   0.997        C 2444 0.962
  2446  C   3.990        C 2448 1.470    C 2444 1.386    H 2447 0.967    C 2441 0.127
  2447  H   0.999        C 2446 0.967
  2448  C   3.989        C 2446 1.470    C 2450 1.414    H 2449 0.965    C 2442 0.105
  2449  H   0.998        C 2448 0.965
  2450  C   3.987        C 2441 1.442    C 2448 1.414    H 2451 0.969
  2451  H   0.999        C 2450 0.969
  2452  C   3.947        O 2453 1.654    N 2454 1.251    C 2436 0.947
  2453  O   1.987        C 2452 1.654    N 2454 0.190
  2454  N   3.435        C 2452 1.251    C 2456 1.000    H 2455 0.886    O 2453 0.190
  2455  H   0.950        N 2454 0.886
  2456  C   3.963        N 2454 1.000    C 2458 0.954    H 2457 0.942    C 2476 0.941
  2457  H   0.993        C 2456 0.942
  2458  C   3.984        C 2461 1.013    H 2459 0.976    H 2460 0.965    C 2456 0.954
  2459  H   0.995        C 2458 0.976
  2460  H   0.994        C 2458 0.965
  2461  C   3.989        C 2458 1.013    C 2464 1.005    H 2462 0.973    H 2463 0.967
  2462  H   0.993        C 2461 0.973
  2463  H   0.996        C 2461 0.967
  2464  C   3.951        C 2461 1.005    N 2467 0.969    H 2466 0.963    H 2465 0.960
  2465  H   0.992        C 2464 0.960
  2466  H   0.993        C 2464 0.963
  2467  N   3.432        C 2469 1.279    C 2464 0.969    H 2468 0.923
  2468  H   0.959        N 2467 0.923
  2469  C   3.979        N 2470 1.346    N 2473 1.329    N 2467 1.279
  2470  N   3.408        C 2469 1.346    H 2472 0.907    H 2471 0.906    N 2473 0.112
  2471  H   0.929        N 2470 0.906
  2472  H   0.935        N 2470 0.907
  2473  N   3.395        C 2469 1.329    H 2474 0.924    H 2475 0.845    N 2470 0.112
  2474  H   0.947        N 2473 0.924
  2475  H   0.933        N 2473 0.845
  2476  C   3.945        O 2477 1.652    N 2478 1.274    C 2456 0.941
  2477  O   1.974        C 2476 1.652    N 2478 0.195
  2478  N   3.436        C 2476 1.274    C 2480 0.961    H 2479 0.907    O 2477 0.195
  2479  H   0.955        N 2478 0.907
  2480  C   3.968        C 2482 0.971    C 2490 0.967    N 2478 0.961    H 2481 0.941
  2481  H   0.991        C 2480 0.941
  2482  C   3.959        O 2488 0.991    C 2484 0.989    C 2480 0.971    H 2483 0.957
  2483  H   0.997        C 2482 0.957
  2484  C   3.984        C 2482 0.989    H 2485 0.985    H 2487 0.983    H 2486 0.978
  2485  H   0.996        C 2484 0.985
  2486  H   0.994        C 2484 0.978
  2487  H   0.996        C 2484 0.983
  2488  O   1.932        C 2482 0.991    H 2489 0.836
  2489  H   0.890        O 2488 0.836
  2490  C   3.957        O 2491 1.593    N 2492 1.318    C 2480 0.967
  2491  O   1.901        C 2490 1.593    N 2492 0.196
  2492  N   3.482        C 2490 1.318    C 2494 0.992    H 2493 0.903    O 2491 0.196
  2493  H   0.950        N 2492 0.903
  2494  C   3.957        N 2492 0.992    H 2495 0.953    H 2496 0.950    C 2497 0.929
  2495  H   0.989        C 2494 0.953
  2496  H   0.989        C 2494 0.950
  2497  C   3.945        O 2498 1.704    N 2499 1.252    C 2494 0.929
  2498  O   2.024        C 2497 1.704    N 2499 0.194
  2499  N   3.435        C 2497 1.252    C 2501 0.988    H 2500 0.926    O 2498 0.194
  2500  H   0.959        N 2499 0.926
  2501  C   3.974        N 2499 0.988    H 2502 0.952    C 2503 0.950    C 2511 0.937
  2502  H   0.993        C 2501 0.952
  2503  C   3.960        O 2509 1.009    C 2505 0.990    H 2504 0.955    C 2501 0.950
  2504  H   0.999        C 2503 0.955
  2505  C   3.985        C 2503 0.990    H 2507 0.983    H 2506 0.982    H 2508 0.982
  2506  H   0.996        C 2505 0.982
  2507  H   0.997        C 2505 0.983
  2508  H   0.996        C 2505 0.982
  2509  O   1.958        C 2503 1.009    H 2510 0.867
  2510  H   0.888        O 2509 0.867
  2511  C   3.953        O 2512 1.605    N 2513 1.327    C 2501 0.937
  2512  O   1.918        C 2511 1.605    N 2513 0.197
  2513  N   3.481        C 2511 1.327    C 2515 0.959    H 2514 0.921    O 2512 0.197
  2514  H   0.959        N 2513 0.921
  2515  C   3.944        C 2517 0.975    N 2513 0.959    H 2516 0.938    C 2535 0.926
  2516  H   0.989        C 2515 0.938
  2517  C   3.978        C 2520 1.008    C 2515 0.975    H 2519 0.968    H 2518 0.956
  2518  H   0.993        C 2517 0.956
  2519  H   0.996        C 2517 0.968
  2520  C   3.966        C 2521 1.617    C 2534 1.157    C 2517 1.008
  2521  C   3.953        C 2520 1.617    N 2523 1.195    H 2522 0.964
  2522  H   0.995        C 2521 0.964
  2523  N   3.509        C 2521 1.195    C 2525 1.143    H 2524 0.939
  2524  H   0.965        N 2523 0.939
  2525  C   3.960        C 2534 1.347    C 2526 1.278    N 2523 1.143
  2526  C   3.985        C 2528 1.553    C 2525 1.278    H 2527 0.966    C 2532 0.119
  2527  H   0.997        C 2526 0.966
  2528  C   3.990        C 2526 1.553    C 2530 1.324    H 2529 0.967
  2529  H   0.998        C 2528 0.967
  2530  C   3.988        C 2532 1.553    C 2528 1.324    H 2531 0.964
  2531  H   0.999        C 2530 0.964
  2532  C   3.989        C 2530 1.553    C 2534 1.279    H 2533 0.971    C 2526 0.119
  2533  H   0.999        C 2532 0.971
  2534  C   3.982        C 2525 1.347    C 2532 1.279    C 2520 1.157
  2535  C   3.943        O 2536 1.605    N 2537 1.332    C 2515 0.926
  2536  O   1.923        C 2535 1.605    N 2537 0.189
  2537  N   3.482        C 2535 1.332    C 2539 0.966    H 2538 0.915    O 2536 0.189
  2538  H   0.957        N 2537 0.915
  2539  C   3.956        C 2541 0.973    N 2537 0.966    H 2540 0.953    C 2547 0.910
  2540  H   0.994        C 2539 0.953
  2541  C   3.981        C 2539 0.973    H 2543 0.969    H 2542 0.967    C 2544 0.947
  2542  H   0.997        C 2541 0.967
  2543  H   0.997        C 2541 0.969
  2544  C   3.940        O 2546 1.552    O 2545 1.410    C 2541 0.947
  2545  O   1.778        C 2544 1.410    O 2546 0.211
  2546  O   1.838        C 2544 1.552    O 2545 0.211
  2547  C   3.947        O 2548 1.604    N 2549 1.343    C 2539 0.910
  2548  O   1.928        C 2547 1.604    N 2549 0.192
  2549  N   3.500        C 2547 1.343    C 2551 0.964    H 2550 0.919    O 2548 0.192
  2550  H   0.953        N 2549 0.919
  2551  C   3.946        C 2553 0.992    N 2549 0.964    C 2557 0.936    H 2552 0.935
  2552  H   0.990        C 2551 0.935
  2553  C   3.971        C 2551 0.992    H 2556 0.978    H 2554 0.975    H 2555 0.967
  2554  H   0.992        C 2553 0.975
  2555  H   0.992        C 2553 0.967
  2556  H   0.993        C 2553 0.978
  2557  C   3.944        O 2558 1.656    N 2559 1.266    C 2551 0.936
  2558  O   1.968        C 2557 1.656    N 2559 0.195
  2559  N   3.428        C 2557 1.266    C 2561 0.959    H 2560 0.917    O 2558 0.195
  2560  H   0.962        N 2559 0.917
  2561  C   3.948        C 2563 0.961    N 2559 0.959    C 2578 0.956    H 2562 0.937
  2562  H   0.995        C 2561 0.937
  2563  C   3.981        C 2566 0.997    H 2565 0.972    H 2564 0.968    C 2561 0.961
  2564  H   0.997        C 2563 0.968
  2565  H   0.995        C 2563 0.972
  2566  C   3.982        C 2567 1.429    C 2576 1.382    C 2563 0.997    C 2571 0.101
  2567  C   3.988        C 2569 1.434    C 2566 1.429    H 2568 0.966    C 2574 0.102
  2568  H   0.997        C 2567 0.966
  2569  C   3.980        C 2567 1.434    C 2571 1.379    H 2570 0.961    C 2576 0.103
  2570  H   0.993        C 2569 0.961
  2571  C   3.935        C 2569 1.379    C 2574 1.336    O 2572 1.075    C 2566 0.101
  2572  O   2.105        C 2571 1.075    H 2573 0.859
  2573  H   0.893        O 2572 0.859
  2574  C   3.984        C 2576 1.483    C 2571 1.336    H 2575 0.957    C 2567 0.102
  2575  H   0.997        C 2574 0.957
  2576  C   3.990        C 2574 1.483    C 2566 1.382    H 2577 0.968    C 2569 0.103
  2577  H   0.999        C 2576 0.968
  2578  C   3.948        O 2579 1.588    N 2580 1.327    C 2561 0.956
  2579  O   1.899        C 2578 1.588    N 2580 0.189
  2580  N   3.458        C 2578 1.327    C 2582 0.943    H 2581 0.926    O 2579 0.189
  2581  H   0.960        N 2580 0.926
  2582  C   3.948        C 2584 0.986    H 2583 0.963    N 2580 0.943    C 2600 0.923
  2583  H   0.998        C 2582 0.963
  2584  C   3.984        C 2587 0.997    C 2582 0.986    H 2585 0.972    H 2586 0.970
  2585  H   0.997        C 2584 0.972
  2586  H   0.998        C 2584 0.970
  2587  C   3.990        C 2590 1.000    C 2584 0.997    H 2589 0.979    H 2588 0.974
  2588  H   0.997        C 2587 0.974
  2589  H   0.996        C 2587 0.979
  2590  C   3.986        C 2593 1.022    C 2587 1.000    H 2592 0.967    H 2591 0.967
  2591  H   0.992        C 2590 0.967
  2592  H   0.994        C 2590 0.967
  2593  C   3.915        C 2590 1.022    H 2595 0.964    H 2594 0.961    N 2596 0.947
  2594  H   0.986        C 2593 0.961
  2595  H   0.991        C 2593 0.964
  2596  N   3.649        C 2593 0.947    H 2598 0.903    H 2599 0.903    H 2597 0.826
  2597  H   0.916        N 2596 0.826
  2598  H   0.921        N 2596 0.903
  2599  H   0.927        N 2596 0.903
  2600  C   3.937        O 2602 1.492    O 2601 1.488    C 2582 0.923
  2601  O   1.779        C 2600 1.488    O 2602 0.222
  2602  O   1.789        C 2600 1.492    O 2601 0.222
  2603  O   2.101        C 2605 1.081    H 2604 0.815
  2604  H   0.887        O 2603 0.815
  2605  C   3.936        C 2606 1.350    C 2614 1.305    O 2603 1.081    C 2610 0.102
  2606  C   3.984        C 2608 1.451    C 2605 1.350    H 2607 0.962    C 2612 0.103
  2607  H   0.999        C 2606 0.962
  2608  C   3.991        C 2606 1.451    C 2610 1.431    H 2609 0.961
  2609  H   0.998        C 2608 0.961
  2610  C   3.987        C 2608 1.431    C 2612 1.419    H 2611 0.966    C 2605 0.102
  2611  H   0.998        C 2610 0.966
  2612  C   3.984        C 2610 1.419    C 2614 1.395    H 2613 0.964    C 2606 0.103
  2613  H   0.996        C 2612 0.964
  2614  C   3.944        C 2612 1.395    C 2605 1.305    O 2615 1.076
  2615  O   2.098        C 2614 1.076    H 2616 0.831
  2616  H   0.887        O 2615 0.831

molecular dipole:
                 x           y           z       tot (Debye)
 q only:      593.284     675.745     625.940
   full:      594.992     675.542     633.788    2798.300
molecular quadrupole (traceless):
                xx          xy          yy          xz          yz          zz
 q only:    -9505.340   71464.558   11737.613   65400.245   75814.452   -2232.274
  q+dip:   -10011.497   71289.211   10835.145   66372.504   76644.308    -823.648
   full:   -10004.842   71290.500   10820.837   66372.629   76634.912    -815.995


           -------------------------------------------------
          | TOTAL ENERGY            -4109.259423706865 Eh   |
          | GRADIENT NORM               1.361410928045 Eh/α |
          | HOMO-LUMO GAP               1.857316884613 eV   |
           -------------------------------------------------

------------------------------------------------------------------------
 * finished run on 2020/06/08 at 22:52:34.832     
------------------------------------------------------------------------
 total:
 * wall-time:     0 d,  0 h,  7 min, 14.109 sec
 *  cpu-time:     0 d,  5 h, 25 min, 13.438 sec
 * ratio c/w:    44.951 speedup
 SCF:
 * wall-time:     0 d,  0 h,  6 min, 42.534 sec
 *  cpu-time:     0 d,  5 h, 13 min,  2.331 sec
 * ratio c/w:    46.660 speedup

