      -----------------------------------------------------------      
     |                   =====================                   |     
     |                           x T B                           |     
     |                   =====================                   |     
     |                         S. Grimme                         |     
     |          Mulliken Center for Theoretical Chemistry        |     
     |                    University of Bonn                     |     
      -----------------------------------------------------------      

   * xtb version 6.2.3 (d7bf61a) compiled by 'conda@06d140edd85e' on 2020-05-12

   xtb is free software: you can redistribute it and/or modify it under
   the terms of the GNU Lesser General Public License as published by
   the Free Software Foundation, either version 3 of the License, or
   (at your option) any later version.
   
   xtb is distributed in the hope that it will be useful,
   but WITHOUT ANY WARRANTY; without even the implied warranty of
   MERCHANTABILITY or FITNESS FOR A PARTICULAR PURPOSE.  See the
   GNU Lesser General Public License for more details.
   
   Cite this work as:
   * S. Grimme, C. Bannwarth, P. Shushkov, J. Chem. Theory Comput., 2017,
     13, 1989-2009. DOI: 10.1021/acs.jctc.7b00118
   * C. Bannwarth, S. Ehlert and S. Grimme., J. Chem. Theory Comput., 2019,
     15, 1652-1671. DOI: 10.1021/acs.jctc.8b01176
   * P. Pracht, E. Caldeweyher, S. Ehlert, S. Grimme, ChemRxiv, 2019, preprint.
     DOI: 10.26434/chemrxiv.8326202.v1
   
   for DFT-D4:
   * E. Caldeweyher, C. Bannwarth and S. Grimme, J. Chem. Phys., 2017,
     147, 034112. DOI: 10.1063/1.4993215
   * E. Caldeweyher, S. Ehlert, A. Hansen, H. Neugebauer, S. Spicher,
     C. Bannwarth and S. Grimme, J. Chem. Phys., 2019, 150, 154122.
     DOI: 10.1063/1.5090222
   
   for sTDA-xTB:
   * S. Grimme and C. Bannwarth, J. Chem. Phys., 2016, 145, 054103.
     DOI: 10.1063/1.4959605
   
   in the mass-spec context:
   * V. Asgeirsson, C. Bauer and S. Grimme, Chem. Sci., 2017, 8, 4879.
     DOI: 10.1039/c7sc00601b
   
   for metadynamics refer to:
   * S. Grimme, J. Chem. Theory Comput., 2019, 155, 2847-2862
     DOI: 10.1021/acs.jctc.9b00143
   
   with help from (in alphabetical order)
   C. Bannwarth, F. Bohle, G. Brandenburg, E. Caldeweyher, M. Checinski,
   S. Dohm, S. Ehlert, S. Ehrlich, F. März, H. Neugebauer, J. Pisarek,
   P. Pracht, P. Shushkov, and S. Spicher.
   
 * started run on 2020/05/18 at 10:44:44.842     

           -------------------------------------------------
          |                Calculation Setup                |
           -------------------------------------------------

          program call               : xtb complex_17201.xyz --chrg +9 --uhf 0 --gbsa water
          hostname                   : gold59.cluster.local
          coordinate file            : complex_17201.xyz
          omp threads                :                    64
          number of atoms            :                  2616
          number of electrons        :                  7234
          charge                     :                     9
          spin                       :                   0.0
          first test random number   :      0.96260243060918


molecular fragmentation (1/2 indicates fragments):
111111111111111111111111111111111111111111111111111111111111111111111111
111111111111111111111111111111111111111111111111111111111111111111111111
111111111111111111111111111111111111111111111111111111111111111111111111
111111111111111111111111111111111111111111111111111111111111111111111111
111111111111111111111111111111111111111111111111111111111111111111111111
111111111111111111111111111111111111111111111111111111111111111111111111
111111111111111111111111111111111111111111111111111111111111111111111111
111111111111111111111111111111111111111111111111111111111111111111111111
111111111111111111111111111111111111111111111111111111111111111111111111
111111111111111111111111111111111111111111111111111111111111111111111111
111111111111111111111111111111111111111111111111111111111111111111111111
111111111111111111111111111111111111111111111111111111111111111111111111
111111111111111111111111111111111111111111111111111111111111111111111111
111111111111111111111111111111111111111111111111111111111111111111111111
111111111111111111111111111111111111111111111111111111111111111111111111
111111111111111111111111111111111111111111111111111111111111111111111111
111111111111111111111111111111111111111111111111111111111111111111111111
111111111111111111111111111111111111111111111111111111111111111111111111
111111111111111111111111111111111111111111111111111111111111111111111111
111111111111111111111111111111111111111111111111111111111111111111111111
111111111111111111111111111111111111111111111111111111111111111111111111
111111111111111111111111111111111111111111111111111111111111111111111111
111111111111111111111111111111111111111111111111111111111111111111111111
111111111111111111111111111111111111111111111111111111111111111111111111
111111111111111111111111111111111111111111111111111111111111111111111111
111111111111111111111111111111111111111111111111111111111111111111111111
111111111111111111111111111111111111111111111111111111111111111111111111
111111111111111111111111111111111111111111111111111111111111111111111111
111111111111111111111111111111111111111111111111111111111111111111111111
111111111111111111111111111111111111111111111111111111111111111111111111
111111111111111111111111111111111111111111111111111111111111111111111111
111111111111111111111111111111111111111111111111111111111111111111111111
111111111111111111111111111111111111111111111111111111111111111111111111
111111111111111111111111111111111111111111111111111111111111111111111111
111111111111111111111111111111111111111111111111111111111111111111111111
111111111111111111111111111111111111111111111111111111111111111111111111
111111111122222222222222
# atoms in fragment 1/2:  2602    14
 fragment masses (1/2) :    18371.93      110.11
CMA distance (Bohr)    :  19.745
constraining FC (au)   :  0.0500
########################################################################
[WARNING] Please study the warnings concerning your input carefully
-2- prog_main: XTBPATH is not set, using XTBHOME instead
-1- prog_main: XTBHOME is not set, using HOME instead
########################################################################
           ------------------------------------------------- 
          |                 G F N 2 - x T B                 |
          | Geometry, Frequencies, Noncovalent interactions |
          |            JCTC 2019 parametrisation            |
           ------------------------------------------------- 
             k(s)              :                1.8500
             k(p)              :                2.2300
             k(d)              :                2.2300
             k(f)              :                2.0000
             kEN (H0ij)        :               -2.0000
             D4 a1             :                0.5200
             D4 a2             :                5.0000
             D4 s6             :                1.0000
             D4 s8             :                2.7000
             D4 s9             :                5.0000
             alphaj            :                2.0000

  Z AO/shell   Hii/eV     exponent
  1     Wed Apr 25 08:07:45 CEST 2018   EN: 2.200 GM2: 0.406  GM3: 0.0800  RAES: 1.40
     1s    -10.707211    1.230000
  6     Wed Apr 25 08:07:45 CEST 2018   EN: 2.550 GM2: 0.538  GM3: 0.1500  RAES: 3.00
     2s    -13.970922    2.096432
     2p    -10.063292    1.800000
  7     Wed Apr 25 08:07:45 CEST 2018   EN: 3.040 GM2: 0.461  GM3:-0.0640  RAES: 1.90
     2s    -16.686243    2.339881
     2p    -12.523956    2.014332
  8     Wed Apr 25 08:07:45 CEST 2018   EN: 3.440 GM2: 0.452  GM3:-0.0517  RAES: 1.80
     2s    -20.229985    2.439742
     2p    -15.503117    2.137023
 16     Tue Apr 24 11:44:34 CEST 2018   EN: 2.580 GM2: 0.340  GM3:-0.0502  RAES: 3.10
     3s    -20.029654    1.981333
     3p    -11.377694    2.025643
     3d     -0.420282    1.702555

 Solvent             : water
 Using internal parameter file: .param_gbsa2_water
 Gsolv ref. state (COSMO-RS): gsolv [1 M gas/solution]
 temperature (mdtemp)       :    298.14999999999998     
 dielectric constant        :    80.200000000000003     
 rho                        :    1.0000000000000000     
 mass                       :    18.000000000000000     
 surface tension            :    15.568945408385856     
 probe radius               :   0.97531378999999996     
 Gshift (Eh)                :    1.8574431267947933E-003
 c1                         :    1.5524381700000001     
 soset                      :   0.13032636000000000     
 HB correction              :  T
           ------------------------------------------------- 
          |        Self-Consistent Charge Iterations        |
           ------------------------------------------------- 

          ...................................................
          :                      SETUP                      :
          :.................................................:
          :  # basis functions                6549          :
          :  # atomic orbitals                6543          :
          :  # shells                         3921          :
          :  # electrons                      7234          :
          :  max. iterations                   250          :
          :  Hamiltonian                  GFN2-xTB          :
          :  restarted?                      false          :
          :  GBSA solvation                   true          :
          :  PC potential                    false          :
          :  electronic temp.          300.0000000     K    :
          :  accuracy                    1.0000000          :
          :  -> integral cutoff          0.2500000E+02      :
          :  -> integral neglect         0.1000000E-07      :
          :  -> SCF convergence          0.1000000E-05 Eh   :
          :  -> wf. convergence          0.1000000E-03 e    :
          :  Broyden damping             0.4000000          :
          ...................................................

 iter      E             dE          RMSdq      gap      omega  full diag
   1  -4144.9431137 -0.414494E+04  0.427E+00    2.33       0.0  T
   2  -4157.0659302 -0.121228E+02  0.226E+00    2.51       1.0  T
   3  -4157.5332942 -0.467364E+00  0.119E+00    2.44       1.0  T
   4  -4157.5938436 -0.605493E-01  0.291E-01    2.12       1.0  T
   5  -4157.7054449 -0.111601E+00  0.144E-01    2.14       1.0  T
   6  -4157.7220134 -0.165686E-01  0.754E-02    2.18       1.0  T
   7  -4157.7250326 -0.301918E-02  0.407E-02    2.19       1.0  T
   8  -4157.7264964 -0.146378E-02  0.182E-02    2.17       1.0  T
   9  -4157.7267447 -0.248319E-03  0.113E-02    2.15       1.0  T
  10  -4157.7268528 -0.108107E-03  0.594E-03    2.14       1.0  T
  11  -4157.7268811 -0.282583E-04  0.312E-03    2.13       1.0  T
  12  -4157.7268904 -0.936836E-05  0.168E-03    2.12       1.2  T
  13  -4157.7268930 -0.257686E-05  0.911E-04    2.12       2.1  T
  14  -4157.7268938 -0.753122E-06  0.454E-04    2.12       4.3  T
  15  -4157.7268940 -0.196872E-06  0.233E-04    2.12       8.4  T

   *** convergence criteria satisfied after 15 iterations ***

         #    Occupation            Energy/Eh            Energy/eV
      -------------------------------------------------------------
         1        2.0000           -0.7601632             -20.6851
       ...           ...                  ...                  ...
      3611        2.0000           -0.3618415              -9.8462
      3612        2.0000           -0.3595528              -9.7839
      3613        2.0000           -0.3592988              -9.7770
      3614        2.0000           -0.3579555              -9.7405
      3615        2.0000           -0.3566525              -9.7050
      3616        2.0000           -0.3555920              -9.6762
      3617        2.0000           -0.3546349              -9.6501 (HOMO)
      3618                         -0.2768817              -7.5343 (LUMO)
      3619                         -0.2695539              -7.3349
      3620                         -0.2693665              -7.3298
      3621                         -0.2649101              -7.2086
      3622                         -0.2637594              -7.1773
       ...                                ...                  ...
      6543                          0.7445602              20.2605
      -------------------------------------------------------------
                  HL-Gap            0.0777532 Eh            2.1158 eV
             Fermi-level           -0.3157583 Eh           -8.5922 eV

 SCC (total)                   0 d,  0 h,  6 min, 33.962 sec
 SCC setup                      ...        0 min,  3.679 sec (  0.934%)
 Dispersion                     ...        0 min,  1.993 sec (  0.506%)
 integral evaluation            ...        0 min,  8.763 sec (  2.224%)
 zeroth order Hamiltonian       ...        0 min,  0.348 sec (  0.088%)
 iterations                     ...        6 min,  1.162 sec ( 91.674%)
 molecular gradient             ...        0 min, 17.483 sec (  4.438%)
 printout                       ...        0 min,  0.533 sec (  0.135%)

         :::::::::::::::::::::::::::::::::::::::::::::::::::::
         ::                     SUMMARY                     ::
         :::::::::::::::::::::::::::::::::::::::::::::::::::::
         :: total energy           -4109.357136418789 Eh    ::
         :: total w/o Gsasa/hb     -4108.969460888331 Eh    ::
         :: gradient norm              1.294004081158 Eh/a0 ::
         :: HOMO-LUMO gap              2.115771281073 eV    ::
         ::.................................................::
         :: SCC energy             -4157.791460155470 Eh    ::
         :: -> isotropic ES           14.062874478902 Eh    ::
         :: -> anisotropic ES         -0.777313237283 Eh    ::
         :: -> anisotropic XC          1.168616027087 Eh    ::
         :: -> dispersion             -3.942684151859 Eh    ::
         :: -> Gsolv                  -3.947007730050 Eh    ::
         ::    -> Gborn               -3.559332199592 Eh    ::
         ::    -> Gsasa               -0.066423621883 Eh    ::
         ::    -> Ghb                 -0.323109351703 Eh    ::
         ::    -> Gshift               0.001857443127 Eh    ::
         :: repulsion energy          47.879373706290 Eh    ::
         :: add. restraining           0.000000000000 Eh    ::
         :::::::::::::::::::::::::::::::::::::::::::::::::::::

           -------------------------------------------------
          |                Property Printout                |
           -------------------------------------------------

    * Orbital Energies and Occupations

         #    Occupation            Energy/Eh            Energy/eV
      -------------------------------------------------------------
         1        2.0000           -0.7601632             -20.6851
       ...           ...                  ...                  ...
      3605        2.0000           -0.3686880             -10.0325
      3606        2.0000           -0.3684316             -10.0255
      3607        2.0000           -0.3651540              -9.9363
      3608        2.0000           -0.3644394              -9.9169
      3609        2.0000           -0.3631826              -9.8827
      3610        2.0000           -0.3625241              -9.8648
      3611        2.0000           -0.3618415              -9.8462
      3612        2.0000           -0.3595528              -9.7839
      3613        2.0000           -0.3592988              -9.7770
      3614        2.0000           -0.3579555              -9.7405
      3615        2.0000           -0.3566525              -9.7050
      3616        2.0000           -0.3555920              -9.6762
      3617        2.0000           -0.3546349              -9.6501 (HOMO)
      3618                         -0.2768817              -7.5343 (LUMO)
      3619                         -0.2695539              -7.3349
      3620                         -0.2693665              -7.3298
      3621                         -0.2649101              -7.2086
      3622                         -0.2637594              -7.1773
      3623                         -0.2625257              -7.1437
      3624                         -0.2624420              -7.1414
      3625                         -0.2614443              -7.1143
      3626                         -0.2613146              -7.1107
      3627                         -0.2608753              -7.0988
      3628                         -0.2605404              -7.0897
       ...                                ...                  ...
      6543                          0.7445602              20.2605
      -------------------------------------------------------------
                  HL-Gap            0.0777532 Eh            2.1158 eV
             Fermi-level           -0.3157583 Eh           -8.5922 eV

     #   Z        covCN         q      C6AA      α(0)
     1   7 N      3.484    -0.156    24.366     7.331
     2   1 H      0.860     0.302     0.706     1.316
     3   1 H      0.860     0.299     0.717     1.326
     4   1 H      0.860     0.311     0.681     1.292
     5   6 C      3.779    -0.022    20.985     6.526
     6   1 H      0.925     0.139     1.469     1.895
     7   6 C      3.839    -0.095    22.276     6.714
     8   1 H      0.925     0.098     1.800     2.098
     9   1 H      0.925     0.085     1.931     2.173
    10   6 C      3.799    -0.006    20.692     6.477
    11   1 H      0.927     0.057     2.236     2.338
    12   1 H      0.926     0.070     2.085     2.258
    13  16 S      1.987    -0.240   151.356    20.706
    14   6 C      3.744    -0.046    21.476     6.611
    15   1 H      0.925     0.054     2.274     2.358
    16   1 H      0.925     0.050     2.322     2.383
    17   1 H      0.925     0.046     2.375     2.410
    18   6 C      2.744     0.257    22.673     7.797
    19   8 O      0.856    -0.448    22.657     6.382
    20   7 N      2.686    -0.148    24.208     7.307
    21   1 H      0.860     0.225     0.987     1.557
    22   6 C      3.793     0.018    20.287     6.414
    23   1 H      0.925     0.120     1.617     1.988
    24   6 C      3.823    -0.128    22.941     6.816
    25   1 H      0.924     0.091     1.872     2.140
    26   1 H      0.925     0.095     1.835     2.119
    27   6 C      2.742     0.284    22.193     7.713
    28   8 O      0.860    -0.510    23.996     6.568
    29   7 N      2.651    -0.270    26.980     7.714
    30   1 H      0.860     0.233     0.952     1.529
    31   1 H      0.860     0.244     0.906     1.491
    32   6 C      2.749     0.271    22.412     7.752
    33   8 O      0.861    -0.495    23.672     6.523
    34   7 N      2.687    -0.183    24.960     7.420
    35   1 H      0.860     0.208     1.065     1.617
    36   6 C      3.780     0.005    20.516     6.453
    37   1 H      0.924     0.086     1.919     2.167
    38   6 C      3.849    -0.035    21.173     6.545
    39   1 H      0.924     0.077     2.008     2.216
    40   6 C      3.761    -0.134    23.123     6.855
    41   1 H      0.925     0.042     2.416     2.431
    42   1 H      0.924     0.046     2.373     2.409
    43   1 H      0.925     0.067     2.124     2.279
    44   6 C      3.809    -0.074    21.912     6.663
    45   1 H      0.925     0.038     2.477     2.461
    46   1 H      0.924     0.054     2.265     2.353
    47   6 C      3.748    -0.122    22.903     6.826
    48   1 H      0.925     0.049     2.334     2.389
    49   1 H      0.925     0.037     2.494     2.470
    50   1 H      0.925     0.051     2.309     2.376
    51   6 C      2.749     0.283    22.204     7.716
    52   8 O      0.863    -0.479    23.320     6.475
    53   7 N      2.690    -0.185    25.016     7.428
    54   1 H      0.860     0.230     0.963     1.537
    55   6 C      3.783     0.019    20.265     6.412
    56   1 H      0.924     0.086     1.919     2.166
    57   6 C      3.799    -0.090    22.211     6.710
    58   1 H      0.925     0.060     2.195     2.317
    59   1 H      0.924     0.085     1.926     2.171
    60   6 C      2.953     0.007    27.872     8.659
    61   6 C      2.918    -0.046    29.152     8.854
    62   1 H      0.926     0.061     2.191     2.315
    63   6 C      2.915    -0.036    28.886     8.813
    64   1 H      0.926     0.050     2.324     2.384
    65   6 C      2.905    -0.031    28.765     8.794
    66   1 H      0.926     0.028     2.616     2.529
    67   6 C      2.920    -0.033    28.824     8.804
    68   1 H      0.926     0.013     2.848     2.639
    69   6 C      2.913    -0.049    29.217     8.864
    70   1 H      0.926     0.047     2.354     2.399
    71   6 C      2.745     0.264    22.553     7.776
    72   8 O      0.863    -0.495    23.681     6.525
    73   7 N      2.687    -0.176    24.801     7.396
    74   1 H      0.860     0.203     1.091     1.637
    75   6 C      3.793     0.031    20.065     6.379
    76   1 H      0.925     0.077     2.015     2.220
    77   6 C      3.815    -0.050    21.458     6.593
    78   1 H      0.925     0.043     2.409     2.427
    79   1 H      0.925     0.067     2.115     2.274
    80   6 C      3.811    -0.097    22.343     6.728
    81   1 H      0.925     0.033     2.548     2.496
    82   1 H      0.925     0.028     2.614     2.528
    83   6 C      2.686     0.358    20.917     7.485
    84   8 O      0.856    -0.645    27.253     6.999
    85   8 O      0.857    -0.609    26.329     6.880
    86   6 C      2.742     0.276    22.325     7.736
    87   8 O      0.862    -0.473    23.189     6.456
    88   7 N      2.688    -0.198    25.302     7.471
    89   1 H      0.860     0.215     1.035     1.593
    90   6 C      3.783     0.023    20.199     6.402
    91   1 H      0.925     0.077     2.015     2.220
    92   6 C      3.815    -0.073    21.881     6.658
    93   1 H      0.925     0.075     2.032     2.229
    94   1 H      0.925     0.076     2.019     2.222
    95   6 C      3.786    -0.027    21.062     6.537
    96   1 H      0.924     0.053     2.279     2.361
    97   1 H      0.925     0.035     2.520     2.482
    98  16 S      1.946    -0.170   148.229    20.491
    99   6 C      3.745    -0.070    21.919     6.678
   100   1 H      0.925     0.076     2.020     2.223
   101   1 H      0.925     0.065     2.144     2.290
   102   1 H      0.925     0.055     2.257     2.349
   103   6 C      2.742     0.265    22.527     7.771
   104   8 O      0.859    -0.485    23.449     6.492
   105   7 N      2.688    -0.181    24.924     7.415
   106   1 H      0.860     0.234     0.949     1.526
   107   6 C      3.787     0.019    20.269     6.412
   108   1 H      0.924     0.085     1.926     2.170
   109   6 C      3.810    -0.081    22.042     6.683
   110   1 H      0.925     0.064     2.157     2.296
   111   1 H      0.925     0.067     2.115     2.274
   112   6 C      3.847    -0.029    21.060     6.528
   113   1 H      0.925     0.062     2.172     2.305
   114   6 C      3.759    -0.121    22.878     6.819
   115   1 H      0.925     0.052     2.298     2.370
   116   1 H      0.924     0.049     2.332     2.388
   117   1 H      0.925     0.043     2.412     2.429
   118   6 C      3.758    -0.121    22.863     6.817
   119   1 H      0.925     0.037     2.484     2.465
   120   1 H      0.924     0.044     2.397     2.421
   121   1 H      0.925     0.039     2.464     2.455
   122   6 C      2.748     0.269    22.458     7.760
   123   8 O      0.861    -0.489    23.546     6.506
   124   7 N      2.683    -0.174    24.766     7.391
   125   1 H      0.860     0.211     1.054     1.608
   126   6 C      3.794     0.014    20.350     6.424
   127   1 H      0.925     0.093     1.850     2.127
   128   6 C      3.814    -0.089    22.179     6.703
   129   1 H      0.925     0.088     1.902     2.157
   130   1 H      0.924     0.063     2.159     2.298
   131   6 C      3.800    -0.100    22.411     6.740
   132   1 H      0.924     0.087     1.906     2.159
   133   1 H      0.924     0.081     1.974     2.197
   134   6 C      3.743    -0.022    21.044     6.544
   135   1 H      0.925     0.088     1.895     2.153
   136   1 H      0.924     0.076     2.017     2.221
   137   7 N      2.699    -0.142    24.065     7.286
   138   1 H      0.860     0.214     1.038     1.596
   139   6 C      2.734     0.232    23.125     7.873
   140   7 N      2.702    -0.261    26.764     7.684
   141   1 H      0.860     0.266     0.825     1.423
   142   1 H      0.860     0.243     0.912     1.496
   143   7 N      2.697    -0.253    26.584     7.658
   144   1 H      0.860     0.245     0.901     1.487
   145   1 H      0.860     0.228     0.975     1.547
   146   6 C      2.759     0.270    22.447     7.759
   147   8 O      0.861    -0.512    24.052     6.575
   148   7 N      2.689    -0.168    24.636     7.372
   149   1 H      0.860     0.207     1.070     1.621
   150   6 C      3.777     0.009    20.444     6.442
   151   1 H      0.925     0.090     1.882     2.145
   152   6 C      3.836    -0.030    21.074     6.531
   153   1 H      0.924     0.043     2.407     2.426
   154   6 C      3.743    -0.117    22.817     6.814
   155   1 H      0.924     0.047     2.360     2.402
   156   1 H      0.924     0.046     2.374     2.409
   157   1 H      0.925     0.052     2.298     2.371
   158   6 C      3.794    -0.075    21.946     6.671
   159   1 H      0.925     0.064     2.158     2.297
   160   1 H      0.925     0.042     2.417     2.431
   161   6 C      3.747    -0.099    22.458     6.759
   162   1 H      0.924     0.023     2.690     2.565
   163   1 H      0.925     0.030     2.586     2.515
   164   1 H      0.924     0.049     2.332     2.388
   165   6 C      2.740     0.270    22.444     7.757
   166   8 O      0.858    -0.491    23.584     6.511
   167   7 N      2.684    -0.215    25.677     7.526
   168   1 H      0.860     0.234     0.947     1.524
   169   6 C      3.784     0.028    20.112     6.388
   170   1 H      0.924     0.087     1.913     2.163
   171   6 C      3.801    -0.094    22.289     6.722
   172   1 H      0.925     0.041     2.435     2.440
   173   1 H      0.925     0.068     2.107     2.270
   174   6 C      2.688     0.341    21.208     7.537
   175   8 O      0.856    -0.593    25.943     6.829
   176   8 O      0.855    -0.574    25.494     6.769
   177   6 C      2.748     0.274    22.364     7.744
   178   8 O      0.860    -0.461    22.943     6.422
   179   7 N      2.688    -0.202    25.390     7.484
   180   1 H      0.860     0.203     1.093     1.637
   181   6 C      3.793     0.019    20.269     6.411
   182   1 H      0.925     0.098     1.804     2.100
   183   6 C      3.805    -0.056    21.584     6.614
   184   1 H      0.925     0.046     2.377     2.411
   185   1 H      0.925     0.041     2.442     2.444
   186   6 C      3.798    -0.091    22.235     6.714
   187   1 H      0.925     0.031     2.577     2.511
   188   1 H      0.925     0.027     2.632     2.537
   189   6 C      2.685     0.365    20.805     7.465
   190   8 O      0.857    -0.633    26.955     6.961
   191   8 O      0.858    -0.629    26.843     6.946
   192   6 C      2.752     0.271    22.416     7.753
   193   8 O      0.859    -0.508    23.963     6.563
   194   7 N      2.686    -0.146    24.168     7.301
   195   1 H      0.860     0.215     1.033     1.592
   196   6 C      3.742    -0.032    21.211     6.570
   197   1 H      0.925     0.087     1.904     2.158
   198   1 H      0.925     0.098     1.805     2.101
   199   6 C      2.746     0.273    22.383     7.747
   200   8 O      0.860    -0.489    23.547     6.506
   201   7 N      2.687    -0.186    25.035     7.431
   202   1 H      0.860     0.213     1.043     1.600
   203   6 C      3.791     0.016    20.319     6.419
   204   1 H      0.925     0.073     2.052     2.240
   205   6 C      3.813    -0.080    22.019     6.679
   206   1 H      0.925     0.071     2.071     2.250
   207   1 H      0.924     0.051     2.304     2.374
   208   6 C      3.850    -0.018    20.867     6.497
   209   1 H      0.925     0.045     2.381     2.413
   210   6 C      3.755    -0.124    22.935     6.829
   211   1 H      0.925     0.049     2.336     2.390
   212   1 H      0.925     0.019     2.747     2.592
   213   1 H      0.924     0.050     2.316     2.380
   214   6 C      3.756    -0.131    23.070     6.848
   215   1 H      0.925     0.057     2.238     2.340
   216   1 H      0.925     0.050     2.317     2.380
   217   1 H      0.924     0.050     2.317     2.380
   218   6 C      2.749     0.271    22.417     7.753
   219   8 O      0.857    -0.448    22.667     6.383
   220   7 N      2.683    -0.193    25.185     7.453
   221   1 H      0.860     0.215     1.033     1.592
   222   6 C      3.780     0.013    20.379     6.431
   223   1 H      0.925     0.089     1.891     2.150
   224   6 C      3.797    -0.086    22.146     6.701
   225   1 H      0.925     0.073     2.051     2.240
   226   1 H      0.924     0.055     2.253     2.347
   227   6 C      3.804    -0.091    22.229     6.712
   228   1 H      0.924     0.067     2.120     2.277
   229   1 H      0.925     0.098     1.804     2.100
   230   6 C      3.738    -0.021    21.034     6.544
   231   1 H      0.924     0.093     1.849     2.126
   232   1 H      0.925     0.093     1.847     2.125
   233   7 N      2.706    -0.145    24.128     7.295
   234   1 H      0.860     0.210     1.054     1.608
   235   6 C      2.734     0.232    23.125     7.873
   236   7 N      2.689    -0.259    26.720     7.677
   237   1 H      0.860     0.254     0.868     1.459
   238   1 H      0.860     0.266     0.823     1.421
   239   7 N      2.700    -0.226    25.933     7.563
   240   1 H      0.860     0.239     0.928     1.509
   241   1 H      0.860     0.213     1.043     1.600
   242   6 C      2.744     0.256    22.698     7.801
   243   8 O      0.859    -0.495    23.663     6.522
   244   7 N      2.683    -0.173    24.750     7.389
   245   1 H      0.860     0.213     1.043     1.600
   246   6 C      3.764     0.008    20.479     6.450
   247   1 H      0.925     0.085     1.925     2.169
   248   6 C      3.803    -0.081    22.045     6.684
   249   1 H      0.924     0.071     2.072     2.251
   250   1 H      0.925     0.066     2.126     2.280
   251   6 C      3.846    -0.015    20.817     6.490
   252   1 H      0.924     0.041     2.430     2.438
   253   6 C      3.760    -0.128    23.012     6.839
   254   1 H      0.925     0.041     2.435     2.440
   255   1 H      0.925     0.052     2.300     2.372
   256   1 H      0.924     0.056     2.242     2.342
   257   6 C      3.747    -0.120    22.875     6.822
   258   1 H      0.925     0.023     2.689     2.564
   259   1 H      0.924     0.034     2.525     2.485
   260   1 H      0.924     0.049     2.333     2.389
   261   6 C      2.727     0.256    22.687     7.798
   262   8 O      0.857    -0.457    22.857     6.410
   263   7 N      2.685    -0.162    24.495     7.351
   264   1 H      0.860     0.210     1.058     1.611
   265   6 C      3.791     0.013    20.372     6.428
   266   1 H      0.925     0.095     1.835     2.118
   267   6 C      3.805    -0.093    22.272     6.718
   268   1 H      0.924     0.077     2.006     2.215
   269   1 H      0.924     0.072     2.062     2.246
   270   6 C      3.794    -0.086    22.141     6.701
   271   1 H      0.924     0.060     2.198     2.319
   272   1 H      0.924     0.051     2.303     2.373
   273   6 C      3.796    -0.106    22.528     6.758
   274   1 H      0.924     0.090     1.880     2.144
   275   1 H      0.925     0.087     1.905     2.159
   276   6 C      3.731    -0.054    21.643     6.641
   277   1 H      0.924     0.122     1.596     1.975
   278   1 H      0.924     0.121     1.605     1.981
   279   7 N      3.487    -0.152    24.285     7.319
   280   1 H      0.860     0.298     0.719     1.328
   281   1 H      0.860     0.301     0.710     1.320
   282   1 H      0.860     0.297     0.722     1.331
   283   6 C      2.747     0.258    22.656     7.794
   284   8 O      0.857    -0.520    24.238     6.601
   285   7 N      2.681    -0.163    24.519     7.354
   286   1 H      0.860     0.228     0.976     1.547
   287   6 C      3.784     0.017    20.307     6.419
   288   1 H      0.925     0.060     2.196     2.317
   289   6 C      3.839    -0.028    21.044     6.526
   290   1 H      0.925     0.081     1.971     2.196
   291   6 C      3.748    -0.127    23.009     6.841
   292   1 H      0.925     0.041     2.434     2.440
   293   1 H      0.925     0.073     2.056     2.242
   294   1 H      0.925     0.036     2.501     2.473
   295   6 C      3.799    -0.079    22.014     6.680
   296   1 H      0.925     0.059     2.216     2.328
   297   1 H      0.925     0.037     2.483     2.464
   298   6 C      3.747    -0.122    22.898     6.825
   299   1 H      0.925     0.046     2.370     2.408
   300   1 H      0.925     0.058     2.217     2.328
   301   1 H      0.924     0.028     2.622     2.532
   302   6 C      2.754     0.279    22.271     7.728
   303   8 O      0.862    -0.507    23.948     6.561
   304   7 N      2.685    -0.140    24.042     7.282
   305   1 H      0.860     0.203     1.093     1.638
   306   6 C      3.774     0.006    20.507     6.453
   307   1 H      0.925     0.128     1.548     1.946
   308   6 C      3.796    -0.096    22.337     6.730
   309   1 H      0.925     0.090     1.882     2.146
   310   1 H      0.925     0.072     2.061     2.245
   311   6 C      2.947    -0.009    28.243     8.716
   312   6 C      2.915    -0.048    29.196     8.860
   313   1 H      0.926     0.058     2.222     2.331
   314   6 C      2.901    -0.078    29.947     8.973
   315   1 H      0.926     0.025     2.663     2.552
   316   6 C      2.844     0.138    24.987     8.192
   317   8 O      1.659    -0.458    22.006     6.333
   318   1 H      0.805     0.316     0.674     1.289
   319   6 C      2.900    -0.062    29.541     8.912
   320   1 H      0.926     0.040     2.445     2.445
   321   6 C      2.918    -0.046    29.133     8.851
   322   1 H      0.926     0.070     2.087     2.259
   323   6 C      2.735     0.253    22.754     7.810
   324   8 O      0.857    -0.490    23.570     6.509
   325   7 N      2.683    -0.151    24.259     7.315
   326   1 H      0.860     0.222     1.000     1.567
   327   6 C      3.788     0.007    20.475     6.445
   328   1 H      0.925     0.084     1.934     2.175
   329   6 C      3.803    -0.075    21.939     6.668
   330   1 H      0.924     0.042     2.419     2.432
   331   1 H      0.924     0.063     2.165     2.301
   332   6 C      3.802    -0.079    22.007     6.679
   333   1 H      0.925     0.076     2.025     2.225
   334   1 H      0.925     0.057     2.230     2.336
   335   6 C      3.793    -0.094    22.294     6.724
   336   1 H      0.925     0.064     2.152     2.294
   337   1 H      0.924     0.081     1.965     2.192
   338   6 C      3.728    -0.059    21.744     6.657
   339   1 H      0.924     0.129     1.544     1.943
   340   1 H      0.925     0.121     1.608     1.983
   341   7 N      3.487    -0.142    24.073     7.287
   342   1 H      0.860     0.288     0.749     1.355
   343   1 H      0.860     0.299     0.715     1.325
   344   1 H      0.860     0.311     0.681     1.293
   345   6 C      2.743     0.267    22.485     7.764
   346   8 O      0.858    -0.502    23.838     6.546
   347   7 N      2.692    -0.185    25.006     7.427
   348   1 H      0.860     0.233     0.954     1.530
   349   6 C      3.778     0.037    19.975     6.368
   350   1 H      0.925     0.048     2.349     2.397
   351   6 C      3.791    -0.100    22.424     6.744
   352   1 H      0.925     0.032     2.552     2.498
   353   1 H      0.924     0.043     2.411     2.428
   354   6 C      2.686     0.380    20.570     7.422
   355   8 O      0.858    -0.617    26.550     6.908
   356   8 O      0.857    -0.638    27.061     6.975
   357   6 C      2.749     0.268    22.483     7.764
   358   8 O      0.859    -0.496    23.691     6.526
   359   7 N      2.684    -0.172    24.719     7.384
   360   1 H      0.860     0.195     1.134     1.668
   361   6 C      3.798     0.023    20.191     6.398
   362   1 H      0.925     0.083     1.953     2.185
   363   6 C      3.731     0.129    18.570     6.151
   364   1 H      0.924     0.033     2.549     2.496
   365   6 C      3.753    -0.139    23.238     6.874
   366   1 H      0.925     0.077     2.014     2.219
   367   1 H      0.925     0.053     2.281     2.362
   368   1 H      0.925     0.065     2.146     2.291
   369   8 O      1.657    -0.517    23.252     6.509
   370   1 H      0.806     0.338     0.617     1.233
   371   6 C      2.771     0.285    22.169     7.711
   372   8 O      0.860    -0.502    23.833     6.545
   373   7 N      2.684    -0.188    25.068     7.436
   374   1 H      0.860     0.219     1.012     1.576
   375   6 C      3.799     0.013    20.360     6.425
   376   1 H      0.924     0.090     1.877     2.142
   377   6 C      3.800    -0.045    21.386     6.584
   378   1 H      0.925     0.070     2.081     2.256
   379   1 H      0.925     0.022     2.705     2.572
   380   6 C      3.801    -0.092    22.255     6.717
   381   1 H      0.924     0.013     2.842     2.636
   382   1 H      0.925     0.028     2.615     2.529
   383   6 C      2.697     0.377    20.620     7.432
   384   8 O      0.859    -0.623    26.696     6.927
   385   8 O      0.857    -0.626    26.763     6.936
   386   6 C      2.745     0.263    22.570     7.779
   387   8 O      0.860    -0.474    23.209     6.459
   388   7 N      2.687    -0.177    24.829     7.400
   389   1 H      0.860     0.189     1.163     1.689
   390   6 C      3.748    -0.029    21.151     6.560
   391   1 H      0.925     0.126     1.569     1.959
   392   1 H      0.925     0.113     1.667     2.019
   393   6 C      2.754     0.264    22.547     7.776
   394   8 O      0.859    -0.496    23.703     6.527
   395   7 N      2.689    -0.158    24.408     7.337
   396   1 H      0.860     0.176     1.237     1.742
   397   6 C      3.786     0.021    20.243     6.408
   398   1 H      0.925     0.078     1.996     2.209
   399   6 C      3.803    -0.080    22.026     6.682
   400   1 H      0.925     0.087     1.907     2.160
   401   1 H      0.924     0.046     2.368     2.407
   402   6 C      2.953    -0.010    28.254     8.718
   403   6 C      2.908    -0.051    29.260     8.870
   404   1 H      0.926     0.035     2.512     2.479
   405   6 C      2.903    -0.055    29.353     8.883
   406   1 H      0.926     0.066     2.124     2.279
   407   6 C      2.841     0.142    24.911     8.179
   408   8 O      1.659    -0.424    21.328     6.234
   409   1 H      0.806     0.348     0.593     1.210
   410   6 C      2.903    -0.068    29.687     8.934
   411   1 H      0.926     0.060     2.196     2.317
   412   6 C      2.902    -0.049    29.206     8.861
   413   1 H      0.926     0.044     2.394     2.419
   414   6 C      2.752     0.268    22.476     7.763
   415   8 O      0.857    -0.505    23.903     6.555
   416   7 N      2.684    -0.139    24.013     7.278
   417   1 H      0.860     0.226     0.981     1.551
   418   6 C      3.782     0.012    20.393     6.433
   419   1 H      0.924     0.102     1.769     2.080
   420   6 C      3.808    -0.081    22.032     6.682
   421   1 H      0.924     0.061     2.183     2.311
   422   1 H      0.925     0.050     2.324     2.384
   423   6 C      2.989    -0.002    28.058     8.689
   424   6 C      2.909    -0.044    29.083     8.843
   425   1 H      0.926     0.033     2.540     2.492
   426   6 C      2.913    -0.060    29.495     8.906
   427   1 H      0.926     0.025     2.658     2.550
   428   6 C      2.827     0.128    25.194     8.225
   429   8 O      1.658    -0.410    21.037     6.192
   430   1 H      0.806     0.336     0.621     1.238
   431   6 C      2.945    -0.072    29.797     8.953
   432   1 H      0.926     0.080     1.982     2.202
   433   6 C      2.902    -0.043    29.064     8.840
   434   1 H      0.926     0.080     1.981     2.201
   435   6 C      2.742     0.271    22.427     7.754
   436   8 O      0.857    -0.481    23.363     6.480
   437   7 N      2.680    -0.181    24.920     7.414
   438   1 H      0.860     0.231     0.960     1.535
   439   6 C      3.775     0.006    20.513     6.453
   440   1 H      0.925     0.077     2.007     2.216
   441   6 C      3.710     0.115    18.829     6.202
   442   1 H      0.925     0.036     2.502     2.474
   443   6 C      3.743    -0.110    22.686     6.795
   444   1 H      0.925     0.045     2.383     2.414
   445   1 H      0.924     0.054     2.270     2.356
   446   1 H      0.924     0.043     2.412     2.429
   447   8 O      1.653    -0.477    22.403     6.389
   448   1 H      0.806     0.311     0.690     1.304
   449   6 C      2.744     0.271    22.412     7.751
   450   8 O      0.867    -0.449    22.680     6.385
   451   7 N      2.688    -0.193    25.179     7.452
   452   1 H      0.860     0.227     0.977     1.548
   453   6 C      3.785     0.020    20.250     6.410
   454   1 H      0.924     0.084     1.937     2.176
   455   6 C      3.856    -0.029    21.057     6.526
   456   1 H      0.925     0.072     2.062     2.245
   457   6 C      3.763    -0.131    23.069     6.846
   458   1 H      0.925     0.048     2.348     2.396
   459   1 H      0.925     0.060     2.203     2.321
   460   1 H      0.924     0.038     2.470     2.458
   461   6 C      3.808    -0.081    22.042     6.683
   462   1 H      0.925     0.037     2.483     2.464
   463   1 H      0.924     0.065     2.147     2.291
   464   6 C      3.748    -0.119    22.847     6.817
   465   1 H      0.925     0.053     2.281     2.362
   466   1 H      0.925     0.051     2.305     2.374
   467   1 H      0.925     0.032     2.560     2.502
   468   6 C      2.746     0.262    22.590     7.782
   469   8 O      0.857    -0.502    23.824     6.544
   470   7 N      2.677    -0.161    24.476     7.348
   471   1 H      0.860     0.234     0.948     1.526
   472   6 C      3.734    -0.018    20.987     6.538
   473   1 H      0.925     0.058     2.221     2.331
   474   1 H      0.924     0.107     1.720     2.051
   475   6 C      2.749     0.260    22.618     7.787
   476   8 O      0.856    -0.488    23.523     6.503
   477   7 N      2.686    -0.150    24.256     7.315
   478   1 H      0.860     0.199     1.110     1.651
   479   6 C      3.792     0.008    20.456     6.441
   480   1 H      0.925     0.083     1.949     2.183
   481   6 C      3.846    -0.022    20.936     6.508
   482   1 H      0.924     0.034     2.531     2.488
   483   6 C      3.751    -0.113    22.729     6.799
   484   1 H      0.925     0.062     2.173     2.305
   485   1 H      0.924     0.050     2.320     2.382
   486   1 H      0.925     0.022     2.698     2.569
   487   6 C      3.795    -0.072    21.880     6.661
   488   1 H      0.924     0.036     2.507     2.476
   489   1 H      0.925     0.058     2.225     2.333
   490   6 C      3.748    -0.120    22.876     6.822
   491   1 H      0.925     0.046     2.365     2.405
   492   1 H      0.924     0.043     2.405     2.425
   493   1 H      0.924     0.056     2.244     2.343
   494   6 C      2.748     0.275    22.341     7.740
   495   8 O      0.870    -0.453    22.771     6.398
   496   7 N      2.694    -0.176    24.818     7.399
   497   1 H      0.860     0.204     1.086     1.632
   498   6 C      3.743    -0.018    20.969     6.533
   499   1 H      0.925     0.083     1.953     2.185
   500   1 H      0.925     0.096     1.818     2.108
   501   6 C      2.747     0.276    22.326     7.737
   502   8 O      0.861    -0.518    24.192     6.595
   503   7 N      2.689    -0.149    24.220     7.309
   504   1 H      0.860     0.220     1.008     1.573
   505   6 C      3.789     0.028    20.122     6.389
   506   1 H      0.925     0.058     2.222     2.331
   507   6 C      3.803    -0.090    22.216     6.710
   508   1 H      0.925     0.110     1.700     2.039
   509   1 H      0.924     0.098     1.801     2.099
   510   6 C      3.128     0.054    26.595     8.444
   511   7 N      2.776    -0.038    21.974     6.962
   512   1 H      0.860     0.259     0.850     1.444
   513   6 C      3.114     0.079    26.088     8.367
   514   1 H      0.926     0.138     1.476     1.900
   515   7 N      2.793    -0.018    21.605     6.903
   516   1 H      0.860     0.265     0.828     1.425
   517   6 C      3.053    -0.010    28.220     8.712
   518   1 H      0.926     0.137     1.481     1.903
   519   6 C      2.746     0.268    22.469     7.762
   520   8 O      0.864    -0.487    23.502     6.500
   521   7 N      2.692    -0.135    23.928     7.265
   522   1 H      0.860     0.205     1.083     1.630
   523   6 C      3.778     0.012    20.401     6.435
   524   1 H      0.925     0.084     1.936     2.176
   525   6 C      3.804    -0.078    21.980     6.674
   526   1 H      0.924     0.042     2.424     2.435
   527   1 H      0.925     0.050     2.316     2.380
   528   6 C      3.843    -0.024    20.969     6.514
   529   1 H      0.925     0.065     2.141     2.288
   530   6 C      3.747    -0.120    22.878     6.822
   531   1 H      0.925     0.059     2.206     2.323
   532   1 H      0.924     0.024     2.672     2.556
   533   1 H      0.925     0.046     2.375     2.410
   534   6 C      3.748    -0.125    22.972     6.836
   535   1 H      0.925     0.034     2.526     2.485
   536   1 H      0.925     0.053     2.284     2.363
   537   1 H      0.925     0.057     2.237     2.339
   538   6 C      2.742     0.276    22.322     7.736
   539   8 O      0.859    -0.480    23.338     6.477
   540   7 N      2.698    -0.186    25.039     7.432
   541   1 H      0.860     0.229     0.971     1.544
   542   6 C      3.793     0.028    20.106     6.386
   543   1 H      0.925     0.087     1.903     2.158
   544   6 C      3.808    -0.079    22.009     6.678
   545   1 H      0.925     0.038     2.474     2.460
   546   1 H      0.924     0.053     2.282     2.362
   547   6 C      3.839    -0.026    21.012     6.521
   548   1 H      0.924     0.040     2.443     2.444
   549   6 C      3.747    -0.131    23.077     6.852
   550   1 H      0.924     0.057     2.231     2.336
   551   1 H      0.925     0.061     2.188     2.313
   552   1 H      0.924     0.055     2.258     2.350
   553   6 C      3.755    -0.115    22.761     6.803
   554   1 H      0.925     0.034     2.527     2.486
   555   1 H      0.925     0.058     2.225     2.333
   556   1 H      0.925     0.034     2.536     2.490
   557   6 C      2.762     0.262    22.583     7.782
   558   8 O      0.857    -0.499    23.763     6.536
   559   7 N      2.683    -0.156    24.382     7.334
   560   1 H      0.860     0.211     1.053     1.607
   561   6 C      3.773     0.006    20.507     6.453
   562   1 H      0.924     0.071     2.070     2.250
   563   6 C      3.702     0.118    18.796     6.199
   564   1 H      0.925     0.018     2.767     2.601
   565   6 C      3.745    -0.129    23.048     6.848
   566   1 H      0.924     0.047     2.354     2.399
   567   1 H      0.925     0.046     2.377     2.411
   568   1 H      0.924     0.073     2.058     2.244
   569   8 O      1.659    -0.462    22.099     6.346
   570   1 H      0.805     0.347     0.595     1.211
   571   6 C      2.744     0.266    22.506     7.768
   572   8 O      0.861    -0.466    23.049     6.437
   573   7 N      2.683    -0.174    24.756     7.390
   574   1 H      0.860     0.211     1.049     1.605
   575   6 C      3.775     0.017    20.313     6.422
   576   1 H      0.924     0.107     1.723     2.053
   577   6 C      3.796    -0.081    22.052     6.687
   578   1 H      0.924     0.082     1.958     2.188
   579   1 H      0.925     0.076     2.025     2.225
   580   6 C      3.805    -0.079    22.011     6.679
   581   1 H      0.924     0.051     2.306     2.375
   582   1 H      0.925     0.044     2.397     2.421
   583   6 C      3.801    -0.100    22.413     6.740
   584   1 H      0.925     0.085     1.926     2.171
   585   1 H      0.925     0.086     1.917     2.165
   586   6 C      3.730    -0.063    21.814     6.667
   587   1 H      0.925     0.109     1.707     2.043
   588   1 H      0.925     0.110     1.694     2.035
   589   7 N      3.485    -0.150    24.243     7.313
   590   1 H      0.860     0.304     0.701     1.312
   591   1 H      0.860     0.302     0.708     1.318
   592   1 H      0.860     0.306     0.696     1.307
   593   6 C      2.738     0.264    22.541     7.773
   594   8 O      0.857    -0.493    23.637     6.518
   595   7 N      2.684    -0.175    24.794     7.395
   596   1 H      0.860     0.205     1.083     1.630
   597   6 C      3.788     0.026    20.145     6.392
   598   1 H      0.925     0.090     1.877     2.142
   599   6 C      3.686     0.068    19.636     6.343
   600   1 H      0.925     0.045     2.388     2.416
   601   1 H      0.925     0.051     2.307     2.375
   602   8 O      1.653    -0.488    22.629     6.422
   603   1 H      0.805     0.351     0.586     1.202
   604   6 C      2.769     0.274    22.377     7.747
   605   8 O      0.860    -0.507    23.932     6.559
   606   7 N      2.739    -0.102    23.234     7.159
   607   6 C      3.784    -0.019    20.925     6.516
   608   1 H      0.925     0.086     1.922     2.168
   609   1 H      0.924     0.065     2.136     2.285
   610   6 C      3.821    -0.076    21.928     6.664
   611   1 H      0.925     0.063     2.161     2.299
   612   1 H      0.924     0.076     2.021     2.223
   613   6 C      3.858    -0.069    21.774     6.636
   614   1 H      0.925     0.079     1.987     2.204
   615   1 H      0.924     0.066     2.128     2.281
   616   6 C      3.830     0.030    20.047     6.371
   617   1 H      0.925     0.086     1.917     2.165
   618   6 C      2.756     0.273    22.380     7.747
   619   8 O      0.859    -0.483    23.415     6.488
   620   7 N      2.687    -0.171    24.708     7.383
   621   1 H      0.860     0.196     1.126     1.663
   622   6 C      3.777     0.016    20.336     6.425
   623   1 H      0.925     0.099     1.799     2.097
   624   6 C      3.681     0.060    19.773     6.368
   625   1 H      0.925     0.054     2.265     2.354
   626   1 H      0.925     0.067     2.116     2.275
   627   8 O      1.654    -0.483    22.535     6.408
   628   1 H      0.805     0.344     0.603     1.220
   629   6 C      2.740     0.260    22.620     7.787
   630   8 O      0.858    -0.479    23.331     6.476
   631   7 N      2.684    -0.169    24.666     7.376
   632   1 H      0.860     0.219     1.016     1.579
   633   6 C      3.783     0.009    20.441     6.440
   634   1 H      0.925     0.098     1.800     2.098
   635   6 C      3.807    -0.092    22.257     6.716
   636   1 H      0.925     0.062     2.176     2.307
   637   1 H      0.925     0.085     1.924     2.169
   638   6 C      3.838    -0.025    21.001     6.519
   639   1 H      0.924     0.051     2.305     2.374
   640   6 C      3.752    -0.134    23.144     6.860
   641   1 H      0.925     0.064     2.153     2.294
   642   1 H      0.924     0.055     2.253     2.347
   643   1 H      0.924     0.031     2.575     2.509
   644   6 C      3.750    -0.134    23.141     6.861
   645   1 H      0.925     0.047     2.353     2.399
   646   1 H      0.925     0.059     2.214     2.327
   647   1 H      0.925     0.052     2.297     2.370
   648   6 C      2.754     0.261    22.594     7.784
   649   8 O      0.860    -0.468    23.095     6.443
   650   7 N      2.686    -0.180    24.900     7.411
   651   1 H      0.860     0.218     1.020     1.582
   652   6 C      3.801     0.010    20.407     6.432
   653   1 H      0.925     0.118     1.632     1.998
   654   6 C      3.815    -0.124    22.870     6.807
   655   1 H      0.925     0.083     1.949     2.183
   656   1 H      0.925     0.120     1.613     1.986
   657   6 C      2.749     0.294    22.005     7.681
   658   8 O      0.871    -0.496    23.692     6.526
   659   7 N      2.652    -0.297    27.653     7.810
   660   1 H      0.860     0.233     0.954     1.530
   661   1 H      0.860     0.239     0.928     1.509
   662   6 C      2.744     0.272    22.404     7.750
   663   8 O      0.858    -0.479    23.333     6.476
   664   7 N      2.692    -0.194    25.202     7.456
   665   1 H      0.860     0.224     0.993     1.561
   666   6 C      3.789     0.023    20.196     6.400
   667   1 H      0.924     0.075     2.030     2.228
   668   6 C      3.754    -0.137    23.202     6.869
   669   1 H      0.925     0.079     1.994     2.208
   670   1 H      0.924     0.087     1.908     2.160
   671   1 H      0.925     0.061     2.190     2.314
   672   6 C      2.753     0.277    22.322     7.737
   673   8 O      0.860    -0.500    23.787     6.539
   674   7 N      2.696    -0.199    25.318     7.473
   675   1 H      0.860     0.229     0.970     1.543
   676   6 C      3.789     0.028    20.117     6.388
   677   1 H      0.924     0.044     2.399     2.422
   678   6 C      3.761    -0.143    23.308     6.882
   679   1 H      0.925     0.070     2.087     2.259
   680   1 H      0.925     0.093     1.846     2.125
   681   1 H      0.924     0.084     1.943     2.180
   682   6 C      2.748     0.274    22.375     7.745
   683   8 O      0.863    -0.513    24.074     6.578
   684   7 N      2.693    -0.179    24.869     7.407
   685   1 H      0.860     0.247     0.896     1.483
   686   6 C      3.793     0.021    20.236     6.406
   687   1 H      0.924     0.087     1.911     2.162
   688   6 C      3.808    -0.088    22.170     6.703
   689   1 H      0.925     0.054     2.275     2.359
   690   1 H      0.925     0.079     1.993     2.208
   691   6 C      3.797    -0.082    22.065     6.689
   692   1 H      0.925     0.089     1.885     2.147
   693   1 H      0.924     0.060     2.200     2.320
   694   6 C      3.797    -0.098    22.371     6.735
   695   1 H      0.925     0.077     2.015     2.220
   696   1 H      0.925     0.101     1.777     2.085
   697   6 C      3.718    -0.050    21.603     6.639
   698   1 H      0.924     0.129     1.544     1.943
   699   1 H      0.924     0.104     1.746     2.066
   700   7 N      3.478    -0.157    24.377     7.333
   701   1 H      0.860     0.309     0.687     1.298
   702   1 H      0.860     0.299     0.716     1.326
   703   1 H      0.860     0.288     0.749     1.355
   704   6 C      2.759     0.281    22.247     7.724
   705   8 O      0.861    -0.486    23.465     6.495
   706   7 N      2.685    -0.214    25.667     7.524
   707   1 H      0.860     0.238     0.930     1.510
   708   6 C      3.788     0.030    20.085     6.383
   709   1 H      0.925     0.072     2.063     2.246
   710   6 C      3.681     0.078    19.475     6.320
   711   1 H      0.924     0.038     2.476     2.461
   712   1 H      0.924     0.036     2.509     2.477
   713   8 O      1.655    -0.465    22.152     6.354
   714   1 H      0.806     0.354     0.578     1.194
   715   6 C      2.749     0.262    22.582     7.781
   716   8 O      0.859    -0.488    23.522     6.502
   717   7 N      2.693    -0.201    25.369     7.481
   718   1 H      0.860     0.204     1.083     1.630
   719   6 C      3.790     0.046    19.817     6.340
   720   1 H      0.924     0.063     2.164     2.300
   721   6 C      3.812    -0.044    21.351     6.577
   722   1 H      0.925     0.047     2.360     2.402
   723   1 H      0.924     0.048     2.340     2.392
   724   6 C      3.805    -0.088    22.174     6.704
   725   1 H      0.924     0.014     2.822     2.627
   726   1 H      0.925     0.031     2.574     2.509
   727   6 C      2.683     0.363    20.848     7.472
   728   8 O      0.857    -0.623    26.679     6.925
   729   8 O      0.856    -0.665    27.769     7.065
   730   6 C      2.749     0.266    22.510     7.769
   731   8 O      0.858    -0.478    23.312     6.473
   732   7 N      2.686    -0.202    25.395     7.484
   733   1 H      0.860     0.219     1.013     1.577
   734   6 C      3.799     0.022    20.212     6.401
   735   1 H      0.924     0.079     1.993     2.208
   736   6 C      3.805    -0.080    22.023     6.681
   737   1 H      0.925     0.050     2.322     2.383
   738   1 H      0.924     0.074     2.040     2.233
   739   6 C      3.850    -0.014    20.792     6.486
   740   1 H      0.924     0.025     2.662     2.551
   741   6 C      3.758    -0.124    22.938     6.828
   742   1 H      0.925     0.034     2.530     2.487
   743   1 H      0.925     0.055     2.255     2.349
   744   1 H      0.925     0.054     2.270     2.356
   745   6 C      3.764    -0.124    22.920     6.824
   746   1 H      0.925     0.060     2.197     2.318
   747   1 H      0.925     0.029     2.595     2.519
   748   1 H      0.924     0.068     2.108     2.270
   749   6 C      2.789     0.271    22.433     7.758
   750   8 O      0.857    -0.506    23.907     6.556
   751   7 N      2.694    -0.166    24.592     7.365
   752   1 H      0.860     0.209     1.059     1.612
   753   6 C      3.817     0.041    19.876     6.345
   754   1 H      0.925     0.085     1.925     2.169
   755   6 C      3.791    -0.098    22.388     6.738
   756   1 H      0.924     0.049     2.335     2.390
   757   1 H      0.925     0.035     2.520     2.483
   758   6 C      2.681     0.361    20.877     7.477
   759   8 O      0.856    -0.585    25.765     6.805
   760   8 O      0.856    -0.615    26.489     6.900
   761   6 C      2.741     0.259    22.636     7.790
   762   8 O      0.858    -0.496    23.686     6.525
   763   7 N      2.678    -0.187    25.063     7.435
   764   1 H      0.860     0.186     1.181     1.703
   765   6 C      3.781     0.021    20.243     6.409
   766   1 H      0.924     0.089     1.884     2.147
   767   6 C      3.795    -0.065    21.761     6.643
   768   1 H      0.924     0.070     2.089     2.260
   769   1 H      0.925     0.057     2.236     2.338
   770   6 C      3.781    -0.071    21.884     6.664
   771   1 H      0.925     0.057     2.240     2.340
   772   1 H      0.924     0.055     2.262     2.352
   773   6 C      3.780    -0.096    22.359     6.736
   774   1 H      0.924     0.074     2.047     2.237
   775   1 H      0.924     0.085     1.928     2.172
   776   6 C      3.724    -0.053    21.643     6.643
   777   1 H      0.925     0.116     1.644     2.005
   778   1 H      0.925     0.112     1.681     2.027
   779   7 N      3.486    -0.148    24.197     7.306
   780   1 H      0.860     0.307     0.693     1.304
   781   1 H      0.860     0.303     0.703     1.314
   782   1 H      0.860     0.304     0.701     1.311
   783   6 C      2.743     0.272    22.406     7.750
   784   8 O      0.862    -0.510    24.000     6.568
   785   7 N      2.682    -0.182    24.945     7.418
   786   1 H      0.860     0.210     1.059     1.612
   787   6 C      3.762     0.017    20.336     6.428
   788   1 H      0.924     0.085     1.932     2.173
   789   6 C      3.748    -0.134    23.140     6.861
   790   1 H      0.925     0.087     1.908     2.160
   791   1 H      0.924     0.066     2.125     2.280
   792   1 H      0.924     0.076     2.019     2.222
   793   6 C      2.738     0.263    22.568     7.778
   794   8 O      0.856    -0.494    23.657     6.521
   795   7 N      2.681    -0.172    24.727     7.385
   796   1 H      0.860     0.208     1.064     1.616
   797   6 C      3.786     0.006    20.495     6.448
   798   1 H      0.925     0.084     1.942     2.179
   799   6 C      3.851    -0.016    20.834     6.492
   800   1 H      0.925     0.029     2.604     2.523
   801   6 C      3.753    -0.118    22.821     6.812
   802   1 H      0.925     0.047     2.355     2.400
   803   1 H      0.925     0.073     2.057     2.243
   804   1 H      0.924     0.031     2.569     2.507
   805   6 C      3.797    -0.071    21.860     6.657
   806   1 H      0.925     0.066     2.131     2.283
   807   1 H      0.925     0.047     2.363     2.404
   808   6 C      3.749    -0.110    22.671     6.791
   809   1 H      0.924     0.037     2.490     2.468
   810   1 H      0.925     0.043     2.415     2.430
   811   1 H      0.925     0.032     2.561     2.503
   812   6 C      2.751     0.278    22.299     7.733
   813   8 O      0.858    -0.456    22.833     6.407
   814   7 N      2.685    -0.174    24.770     7.392
   815   1 H      0.860     0.195     1.131     1.666
   816   6 C      3.747    -0.032    21.210     6.569
   817   1 H      0.925     0.104     1.753     2.071
   818   1 H      0.924     0.091     1.870     2.138
   819   6 C      2.755     0.276    22.329     7.738
   820   8 O      0.860    -0.502    23.834     6.546
   821   7 N      2.690    -0.155    24.347     7.328
   822   1 H      0.860     0.206     1.077     1.626
   823   6 C      3.795     0.015    20.329     6.420
   824   1 H      0.925     0.083     1.951     2.184
   825   6 C      3.804    -0.074    21.919     6.665
   826   1 H      0.925     0.077     2.012     2.218
   827   1 H      0.925     0.076     2.026     2.226
   828   6 C      3.804    -0.083    22.084     6.690
   829   1 H      0.924     0.071     2.080     2.255
   830   1 H      0.925     0.077     2.014     2.219
   831   6 C      3.739    -0.015    20.932     6.528
   832   1 H      0.924     0.070     2.089     2.260
   833   1 H      0.925     0.054     2.276     2.359
   834   7 N      2.693    -0.162    24.500     7.351
   835   1 H      0.860     0.248     0.890     1.478
   836   6 C      2.736     0.240    22.986     7.850
   837   7 N      2.671    -0.268    26.941     7.709
   838   1 H      0.860     0.243     0.911     1.495
   839   1 H      0.860     0.235     0.943     1.521
   840   7 N      2.668    -0.271    27.009     7.719
   841   1 H      0.860     0.238     0.930     1.511
   842   1 H      0.860     0.251     0.878     1.468
   843   6 C      2.758     0.273    22.391     7.749
   844   8 O      0.859    -0.482    23.392     6.485
   845   7 N      2.678    -0.192    25.169     7.451
   846   1 H      0.860     0.229     0.968     1.541
   847   6 C      3.805     0.028    20.096     6.382
   848   1 H      0.925     0.063     2.169     2.303
   849   6 C      3.801    -0.108    22.571     6.764
   850   1 H      0.924     0.083     1.948     2.183
   851   1 H      0.925     0.075     2.034     2.230
   852   6 C      2.736     0.284    22.180     7.711
   853   8 O      0.879    -0.521    24.245     6.602
   854   7 N      2.654    -0.274    27.080     7.729
   855   1 H      0.860     0.244     0.907     1.492
   856   1 H      0.860     0.233     0.951     1.527
   857   6 C      2.754     0.268    22.467     7.762
   858   8 O      0.859    -0.478    23.303     6.472
   859   7 N      2.709    -0.187    25.048     7.433
   860   1 H      0.860     0.230     0.963     1.537
   861   6 C      3.921     0.035    19.921     6.343
   862   1 H      0.924     0.099     1.796     2.096
   863   6 C      3.807    -0.010    20.749     6.484
   864   1 H      0.924     0.086     1.918     2.166
   865   1 H      0.925     0.050     2.314     2.379
   866  16 S      2.020    -0.278   153.061    20.823
   867   1 H      0.923     0.178     1.219     1.727
   868   6 C      2.758     0.257    22.674     7.798
   869   8 O      0.860    -0.475    23.244     6.464
   870   7 N      2.686    -0.180    24.906     7.412
   871   1 H      0.860     0.191     1.154     1.683
   872   6 C      3.772     0.030    20.105     6.389
   873   1 H      0.925     0.087     1.912     2.162
   874   6 C      3.786    -0.102    22.468     6.752
   875   1 H      0.925     0.079     1.991     2.207
   876   1 H      0.925     0.071     2.075     2.252
   877   6 C      2.739     0.282    22.223     7.718
   878   8 O      0.864    -0.483    23.418     6.488
   879   7 N      2.643    -0.285    27.367     7.769
   880   1 H      0.860     0.263     0.833     1.430
   881   1 H      0.860     0.218     1.020     1.582
   882   6 C      2.749     0.278    22.300     7.732
   883   8 O      0.859    -0.453    22.774     6.398
   884   7 N      2.680    -0.168    24.647     7.373
   885   1 H      0.860     0.181     1.210     1.723
   886   6 C      3.737    -0.045    21.463     6.611
   887   1 H      0.925     0.133     1.514     1.924
   888   1 H      0.925     0.107     1.726     2.054
   889   6 C      2.739     0.272    22.393     7.748
   890   8 O      0.858    -0.446    22.614     6.376
   891   7 N      2.671    -0.182    24.953     7.419
   892   1 H      0.860     0.187     1.176     1.699
   893   6 C      3.774     0.012    20.394     6.435
   894   1 H      0.925     0.090     1.876     2.142
   895   6 C      3.839    -0.022    20.944     6.511
   896   1 H      0.924     0.077     2.008     2.216
   897   6 C      3.742    -0.125    22.977     6.839
   898   1 H      0.925     0.032     2.562     2.503
   899   1 H      0.925     0.043     2.410     2.427
   900   1 H      0.925     0.054     2.276     2.359
   901   6 C      3.749    -0.128    23.020     6.843
   902   1 H      0.925     0.054     2.276     2.359
   903   1 H      0.924     0.035     2.514     2.480
   904   1 H      0.925     0.068     2.103     2.268
   905   6 C      2.753     0.270    22.439     7.757
   906   8 O      0.859    -0.497    23.725     6.531
   907   7 N      2.687    -0.156    24.385     7.334
   908   1 H      0.860     0.230     0.967     1.541
   909   6 C      3.793     0.020    20.240     6.407
   910   1 H      0.925     0.076     2.018     2.222
   911   6 C      3.842    -0.022    20.934     6.509
   912   1 H      0.925     0.033     2.540     2.492
   913   6 C      3.752    -0.110    22.659     6.788
   914   1 H      0.925     0.052     2.294     2.368
   915   1 H      0.925     0.043     2.416     2.431
   916   1 H      0.924     0.037     2.484     2.465
   917   6 C      3.786    -0.072    21.901     6.666
   918   1 H      0.925     0.042     2.417     2.431
   919   1 H      0.924     0.059     2.212     2.326
   920   6 C      3.744    -0.117    22.810     6.813
   921   1 H      0.925     0.046     2.374     2.409
   922   1 H      0.925     0.047     2.354     2.399
   923   1 H      0.925     0.031     2.575     2.509
   924   6 C      2.744     0.261    22.609     7.786
   925   8 O      0.858    -0.472    23.181     6.455
   926   7 N      2.675    -0.186    25.030     7.430
   927   1 H      0.860     0.197     1.120     1.658
   928   6 C      3.787     0.003    20.547     6.456
   929   1 H      0.925     0.095     1.829     2.115
   930   6 C      3.734     0.120    18.705     6.173
   931   1 H      0.924     0.049     2.334     2.389
   932   6 C      3.751    -0.144    23.339     6.890
   933   1 H      0.925     0.070     2.089     2.260
   934   1 H      0.924     0.065     2.143     2.289
   935   1 H      0.925     0.061     2.187     2.313
   936   8 O      1.658    -0.488    22.629     6.422
   937   1 H      0.805     0.321     0.661     1.277
   938   6 C      2.756     0.276    22.327     7.738
   939   8 O      0.863    -0.508    23.961     6.563
   940   7 N      2.689    -0.169    24.667     7.376
   941   1 H      0.860     0.220     1.010     1.574
   942   6 C      3.796     0.018    20.282     6.413
   943   1 H      0.925     0.100     1.786     2.090
   944   6 C      3.817    -0.077    21.961     6.670
   945   1 H      0.925     0.068     2.108     2.270
   946   1 H      0.924     0.071     2.075     2.253
   947   6 C      3.803    -0.084    22.101     6.693
   948   1 H      0.925     0.065     2.141     2.288
   949   1 H      0.925     0.059     2.207     2.323
   950   6 C      3.794    -0.097    22.362     6.734
   951   1 H      0.924     0.078     1.998     2.210
   952   1 H      0.925     0.088     1.903     2.157
   953   6 C      3.736    -0.058    21.698     6.648
   954   1 H      0.924     0.119     1.624     1.993
   955   1 H      0.925     0.119     1.625     1.993
   956   7 N      3.491    -0.144    24.097     7.291
   957   1 H      0.860     0.300     0.713     1.323
   958   1 H      0.860     0.304     0.702     1.312
   959   1 H      0.860     0.310     0.685     1.296
   960   6 C      2.765     0.271    22.424     7.755
   961   8 O      0.858    -0.500    23.794     6.540
   962   7 N      2.686    -0.201    25.358     7.479
   963   1 H      0.860     0.216     1.027     1.588
   964   6 C      3.786     0.037    19.974     6.366
   965   1 H      0.924     0.059     2.206     2.323
   966   6 C      3.809    -0.093    22.261     6.716
   967   1 H      0.924     0.053     2.284     2.363
   968   1 H      0.925     0.060     2.204     2.322
   969   6 C      2.692     0.361    20.868     7.476
   970   8 O      0.857    -0.650    27.372     7.014
   971   8 O      0.856    -0.663    27.719     7.059
   972   6 C      2.743     0.284    22.183     7.712
   973   8 O      0.861    -0.499    23.771     6.537
   974   7 N      2.688    -0.173    24.753     7.389
   975   1 H      0.860     0.209     1.060     1.613
   976   6 C      3.792     0.020    20.247     6.408
   977   1 H      0.924     0.072     2.069     2.249
   978   6 C      3.802    -0.067    21.789     6.646
   979   1 H      0.925     0.056     2.241     2.341
   980   1 H      0.924     0.064     2.151     2.293
   981   6 C      3.796    -0.100    22.408     6.741
   982   1 H      0.925     0.028     2.621     2.532
   983   1 H      0.925     0.029     2.596     2.520
   984   6 C      2.681     0.373    20.678     7.441
   985   8 O      0.857    -0.609    26.344     6.881
   986   8 O      0.857    -0.567    25.314     6.746
   987   6 C      2.746     0.271    22.420     7.753
   988   8 O      0.861    -0.497    23.726     6.531
   989   7 N      2.693    -0.171    24.703     7.382
   990   1 H      0.860     0.224     0.993     1.561
   991   6 C      3.781     0.018    20.285     6.416
   992   1 H      0.924     0.088     1.895     2.152
   993   6 C      3.751    -0.135    23.153     6.862
   994   1 H      0.925     0.076     2.025     2.225
   995   1 H      0.925     0.076     2.025     2.225
   996   1 H      0.925     0.091     1.869     2.138
   997   6 C      2.750     0.270    22.436     7.756
   998   8 O      0.861    -0.501    23.811     6.542
   999   7 N      2.688    -0.170    24.672     7.377
  1000   1 H      0.860     0.220     1.009     1.574
  1001   6 C      3.797     0.021    20.219     6.403
  1002   1 H      0.925     0.091     1.870     2.138
  1003   6 C      3.799    -0.055    21.569     6.613
  1004   1 H      0.924     0.052     2.296     2.370
  1005   1 H      0.924     0.038     2.476     2.461
  1006   6 C      3.799    -0.100    22.416     6.741
  1007   1 H      0.925     0.057     2.233     2.337
  1008   1 H      0.924     0.052     2.291     2.367
  1009   6 C      2.688     0.360    20.884     7.479
  1010   8 O      0.858    -0.631    26.885     6.952
  1011   8 O      0.858    -0.635    27.004     6.967
  1012   6 C      2.752     0.264    22.539     7.774
  1013   8 O      0.860    -0.493    23.640     6.519
  1014   7 N      2.685    -0.181    24.929     7.415
  1015   1 H      0.860     0.197     1.119     1.657
  1016   6 C      3.790     0.011    20.403     6.433
  1017   1 H      0.924     0.083     1.950     2.184
  1018   6 C      3.804    -0.083    22.081     6.690
  1019   1 H      0.924     0.051     2.306     2.375
  1020   1 H      0.924     0.065     2.137     2.286
  1021   6 C      3.802    -0.071    21.863     6.657
  1022   1 H      0.925     0.059     2.208     2.324
  1023   1 H      0.925     0.054     2.268     2.355
  1024   6 C      3.805    -0.093    22.267     6.718
  1025   1 H      0.925     0.082     1.957     2.188
  1026   1 H      0.925     0.071     2.075     2.253
  1027   6 C      3.735    -0.051    21.585     6.631
  1028   1 H      0.925     0.107     1.727     2.055
  1029   1 H      0.925     0.128     1.550     1.947
  1030   7 N      3.491    -0.138    23.973     7.272
  1031   1 H      0.860     0.302     0.708     1.318
  1032   1 H      0.860     0.308     0.691     1.302
  1033   1 H      0.860     0.293     0.735     1.343
  1034   6 C      2.757     0.283    22.216     7.718
  1035   8 O      0.861    -0.478    23.294     6.471
  1036   7 N      2.691    -0.184    24.981     7.423
  1037   1 H      0.860     0.232     0.959     1.534
  1038   6 C      3.800     0.028    20.099     6.383
  1039   1 H      0.925     0.081     1.965     2.192
  1040   6 C      3.805    -0.075    21.926     6.666
  1041   1 H      0.924     0.044     2.397     2.421
  1042   1 H      0.925     0.063     2.165     2.301
  1043   6 C      3.845    -0.012    20.765     6.482
  1044   1 H      0.925     0.022     2.704     2.571
  1045   6 C      3.753    -0.117    22.797     6.809
  1046   1 H      0.924     0.053     2.288     2.365
  1047   1 H      0.925     0.024     2.680     2.560
  1048   1 H      0.924     0.047     2.361     2.403
  1049   6 C      3.749    -0.131    23.084     6.852
  1050   1 H      0.925     0.062     2.179     2.308
  1051   1 H      0.924     0.048     2.346     2.395
  1052   1 H      0.924     0.058     2.224     2.332
  1053   6 C      2.750     0.278    22.295     7.732
  1054   8 O      0.860    -0.532    24.510     6.638
  1055   7 N      2.689    -0.202    25.390     7.484
  1056   1 H      0.860     0.229     0.970     1.542
  1057   6 C      3.789     0.041    19.903     6.354
  1058   1 H      0.925     0.060     2.199     2.319
  1059   6 C      3.807    -0.084    22.101     6.692
  1060   1 H      0.925     0.069     2.099     2.266
  1061   1 H      0.924     0.076     2.017     2.221
  1062   6 C      2.961    -0.001    28.059     8.688
  1063   6 C      2.916    -0.030    28.743     8.792
  1064   1 H      0.926     0.018     2.757     2.597
  1065   6 C      2.909    -0.039    28.974     8.826
  1066   1 H      0.926     0.057     2.239     2.340
  1067   6 C      2.930    -0.042    29.038     8.837
  1068   1 H      0.926     0.046     2.370     2.407
  1069   6 C      2.909    -0.034    28.856     8.808
  1070   1 H      0.926     0.061     2.190     2.314
  1071   6 C      2.915    -0.046    29.136     8.851
  1072   1 H      0.926     0.044     2.401     2.423
  1073   6 C      2.763     0.262    22.580     7.782
  1074   8 O      0.856    -0.522    24.271     6.605
  1075   7 N      2.686    -0.181    24.920     7.414
  1076   1 H      0.860     0.251     0.880     1.470
  1077   6 C      3.800     0.034    19.999     6.367
  1078   1 H      0.924     0.075     2.034     2.230
  1079   6 C      3.808    -0.109    22.571     6.763
  1080   1 H      0.924     0.076     2.022     2.224
  1081   1 H      0.924     0.095     1.832     2.116
  1082   6 C      2.741     0.284    22.189     7.713
  1083   8 O      0.874    -0.496    23.694     6.527
  1084   7 N      2.655    -0.285    27.347     7.767
  1085   1 H      0.860     0.255     0.865     1.457
  1086   1 H      0.860     0.224     0.993     1.561
  1087   6 C      2.740     0.276    22.331     7.737
  1088   8 O      0.860    -0.466    23.037     6.435
  1089   7 N      2.680    -0.199    25.328     7.475
  1090   1 H      0.860     0.226     0.985     1.554
  1091   6 C      3.772     0.018    20.300     6.420
  1092   1 H      0.924     0.097     1.817     2.108
  1093   6 C      3.798    -0.059    21.632     6.622
  1094   1 H      0.925     0.076     2.026     2.226
  1095   1 H      0.925     0.047     2.355     2.400
  1096   6 C      3.805    -0.097    22.346     6.730
  1097   1 H      0.925     0.086     1.920     2.167
  1098   1 H      0.925     0.073     2.056     2.242
  1099   6 C      2.751     0.289    22.094     7.697
  1100   8 O      0.870    -0.530    24.455     6.630
  1101   7 N      2.648    -0.280    27.235     7.751
  1102   1 H      0.860     0.243     0.911     1.495
  1103   1 H      0.860     0.232     0.955     1.531
  1104   6 C      2.747     0.271    22.422     7.753
  1105   8 O      0.864    -0.508    23.951     6.562
  1106   7 N      2.689    -0.166    24.585     7.364
  1107   1 H      0.860     0.192     1.148     1.678
  1108   6 C      3.793     0.042    19.884     6.350
  1109   1 H      0.925     0.080     1.977     2.199
  1110   6 C      3.818    -0.084    22.080     6.687
  1111   1 H      0.925     0.035     2.516     2.480
  1112   1 H      0.924     0.042     2.427     2.436
  1113   6 C      2.686     0.367    20.780     7.460
  1114   8 O      0.856    -0.622    26.670     6.924
  1115   8 O      0.856    -0.611    26.385     6.887
  1116   6 C      2.759     0.276    22.336     7.739
  1117   8 O      0.863    -0.493    23.634     6.518
  1118   7 N      2.688    -0.196    25.259     7.464
  1119   1 H      0.860     0.205     1.083     1.630
  1120   6 C      3.785     0.022    20.219     6.405
  1121   1 H      0.925     0.080     1.983     2.202
  1122   6 C      3.842    -0.012    20.762     6.482
  1123   1 H      0.925     0.031     2.574     2.509
  1124   6 C      3.763    -0.127    22.973     6.832
  1125   1 H      0.925     0.056     2.248     2.345
  1126   1 H      0.925     0.077     2.013     2.219
  1127   1 H      0.925     0.069     2.100     2.266
  1128   6 C      3.761    -0.120    22.846     6.814
  1129   1 H      0.924     0.055     2.256     2.349
  1130   1 H      0.924     0.057     2.231     2.336
  1131   1 H      0.925     0.030     2.591     2.517
  1132   6 C      2.751     0.273    22.383     7.747
  1133   8 O      0.860    -0.480    23.353     6.479
  1134   7 N      2.679    -0.213    25.648     7.522
  1135   1 H      0.860     0.215     1.030     1.590
  1136   6 C      3.779     0.026    20.158     6.396
  1137   1 H      0.924     0.087     1.910     2.161
  1138   6 C      3.807    -0.096    22.327     6.726
  1139   1 H      0.925     0.031     2.575     2.509
  1140   1 H      0.925     0.047     2.357     2.401
  1141   6 C      2.690     0.366    20.786     7.462
  1142   8 O      0.857    -0.650    27.386     7.016
  1143   8 O      0.857    -0.574    25.482     6.768
  1144   6 C      2.757     0.270    22.436     7.757
  1145   8 O      0.857    -0.472    23.175     6.454
  1146   7 N      2.687    -0.171    24.709     7.383
  1147   1 H      0.860     0.199     1.112     1.652
  1148   6 C      3.804     0.038    19.938     6.357
  1149   1 H      0.925     0.088     1.896     2.154
  1150   6 C      3.766    -0.133    23.100     6.850
  1151   1 H      0.924     0.072     2.063     2.246
  1152   1 H      0.924     0.091     1.872     2.139
  1153   1 H      0.925     0.045     2.383     2.414
  1154   6 C      2.759     0.267    22.500     7.768
  1155   8 O      0.859    -0.519    24.209     6.597
  1156   7 N      2.684    -0.173    24.756     7.390
  1157   1 H      0.860     0.211     1.050     1.605
  1158   6 C      3.779     0.028    20.129     6.392
  1159   1 H      0.924     0.070     2.085     2.258
  1160   6 C      3.748    -0.124    22.954     6.833
  1161   1 H      0.924     0.055     2.260     2.351
  1162   1 H      0.924     0.067     2.113     2.273
[...]
  2292  H   0.963        N 2291 0.931
  2293  C   3.963        N 2291 0.991    C 2295 0.973    H 2294 0.946    C 2313 0.945
  2294  H   0.990        C 2293 0.946
  2295  C   3.983        C 2298 1.000    C 2293 0.973    H 2296 0.972    H 2297 0.970
  2296  H   0.996        C 2295 0.972
  2297  H   0.993        C 2295 0.970
  2298  C   3.977        C 2295 1.000    C 2301 0.999    H 2300 0.976    H 2299 0.969
  2299  H   0.994        C 2298 0.969
  2300  H   0.995        C 2298 0.976
  2301  C   3.944        C 2298 0.999    N 2304 0.968    H 2302 0.966    H 2303 0.965
  2302  H   0.994        C 2301 0.966
  2303  H   0.995        C 2301 0.965
  2304  N   3.478        C 2306 1.359    C 2301 0.968    H 2305 0.878    N 2310 0.116
  2305  H   0.936        N 2304 0.878
  2306  C   3.979        N 2304 1.359    N 2310 1.334    N 2307 1.259
  2307  N   3.348        C 2306 1.259    H 2309 0.927    H 2308 0.918
  2308  H   0.950        N 2307 0.918
  2309  H   0.949        N 2307 0.927
  2310  N   3.408        C 2306 1.334    H 2311 0.921    H 2312 0.885    N 2304 0.116
  2311  H   0.950        N 2310 0.921
  2312  H   0.932        N 2310 0.885
  2313  C   3.957        O 2314 1.569    N 2315 1.357    C 2293 0.945
  2314  O   1.888        C 2313 1.569    N 2315 0.196
  2315  N   3.510        C 2313 1.357    C 2317 0.983    H 2316 0.881    O 2314 0.196
  2316  H   0.944        N 2315 0.881
  2317  C   3.955        C 2319 0.986    N 2315 0.983    C 2323 0.943    H 2318 0.942
  2318  H   0.992        C 2317 0.942
  2319  C   3.977        C 2317 0.986    H 2320 0.980    H 2321 0.975    H 2322 0.973
  2320  H   0.996        C 2319 0.980
  2321  H   0.993        C 2319 0.975
  2322  H   0.995        C 2319 0.973
  2323  C   3.948        O 2324 1.598    N 2325 1.312    C 2317 0.943
  2324  O   1.933        C 2323 1.598    N 2325 0.194
  2325  N   3.472        C 2323 1.312    C 2327 0.971    H 2326 0.885    O 2324 0.194
  2326  H   0.943        N 2325 0.885
  2327  C   3.953        C 2329 0.981    N 2325 0.971    C 2345 0.944    H 2328 0.939
  2328  H   0.989        C 2327 0.939
  2329  C   3.975        C 2332 0.989    C 2327 0.981    H 2331 0.970    H 2330 0.969
  2330  H   0.993        C 2329 0.969
  2331  H   0.994        C 2329 0.970
  2332  C   3.986        C 2335 1.018    C 2329 0.989    H 2333 0.972    H 2334 0.970
  2333  H   0.995        C 2332 0.972
  2334  H   0.995        C 2332 0.970
  2335  C   3.985        C 2332 1.018    C 2338 0.999    H 2337 0.972    H 2336 0.970
  2336  H   0.994        C 2335 0.970
  2337  H   0.994        C 2335 0.972
  2338  C   3.904        C 2335 0.999    H 2339 0.964    H 2340 0.963    N 2341 0.953
  2339  H   0.985        C 2338 0.964
  2340  H   0.984        C 2338 0.963
  2341  N   3.652        C 2338 0.953    H 2343 0.898    H 2344 0.892    H 2342 0.890
  2342  H   0.911        N 2341 0.890
  2343  H   0.908        N 2341 0.898
  2344  H   0.910        N 2341 0.892
  2345  C   3.938        O 2346 1.557    N 2347 1.339    C 2327 0.944
  2346  O   1.922        C 2345 1.557    N 2347 0.189
  2347  N   3.497        C 2345 1.339    C 2349 0.969    H 2348 0.911    O 2346 0.189
  2348  H   0.951        N 2347 0.911
  2349  C   3.957        C 2351 0.982    N 2347 0.969    H 2350 0.946    C 2369 0.936
  2350  H   0.989        C 2349 0.946
  2351  C   3.974        C 2354 0.990    C 2349 0.982    H 2353 0.971    H 2352 0.966
  2352  H   0.994        C 2351 0.966
  2353  H   0.994        C 2351 0.971
  2354  C   3.986        C 2357 1.006    C 2351 0.990    H 2355 0.969    H 2356 0.967
  2355  H   0.993        C 2354 0.969
  2356  H   0.993        C 2354 0.967
  2357  C   3.945        C 2354 1.006    H 2359 0.966    N 2360 0.966    H 2358 0.962
  2358  H   0.992        C 2357 0.962
  2359  H   0.993        C 2357 0.966
  2360  N   3.458        C 2362 1.324    C 2357 0.966    H 2361 0.882    N 2366 0.103    N 2363 0.102
  2361  H   0.945        N 2360 0.882
  2362  C   3.979        N 2360 1.324    N 2366 1.318    N 2363 1.308
  2363  N   3.390        C 2362 1.308    H 2365 0.921    H 2364 0.911    N 2360 0.102
  2364  H   0.941        N 2363 0.911
  2365  H   0.945        N 2363 0.921
  2366  N   3.386        C 2362 1.318    H 2367 0.916    H 2368 0.881    N 2360 0.103
  2367  H   0.942        N 2366 0.916
  2368  H   0.944        N 2366 0.881
  2369  C   3.942        O 2370 1.581    N 2371 1.323    C 2349 0.936
  2370  O   1.982        C 2369 1.581    N 2371 0.189
  2371  N   3.483        C 2369 1.323    C 2373 0.965    H 2372 0.912    O 2370 0.189
  2372  H   0.952        N 2371 0.912
  2373  C   3.954        C 2375 0.976    N 2371 0.965    H 2374 0.948    C 2385 0.932
  2374  H   0.993        C 2373 0.948
  2375  C   3.982        C 2377 0.997    C 2381 0.996    C 2373 0.976    H 2376 0.963
  2376  H   0.995        C 2375 0.963
  2377  C   3.989        C 2375 0.997    H 2379 0.983    H 2378 0.981    H 2380 0.981
  2378  H   0.996        C 2377 0.981
  2379  H   0.998        C 2377 0.983
  2380  H   0.997        C 2377 0.981
  2381  C   3.990        C 2375 0.996    H 2384 0.989    H 2382 0.984    H 2383 0.984
  2382  H   0.997        C 2381 0.984
  2383  H   0.997        C 2381 0.984
  2384  H   0.999        C 2381 0.989
  2385  C   3.951        O 2386 1.645    N 2387 1.280    C 2373 0.932
  2386  O   1.987        C 2385 1.645    N 2387 0.196
  2387  N   3.462        C 2385 1.280    C 2389 0.989    H 2388 0.896    O 2386 0.196
  2388  H   0.950        N 2387 0.896
  2389  C   3.960        N 2387 0.989    C 2391 0.961    C 2404 0.952    H 2390 0.938
  2390  H   0.992        C 2389 0.938
  2391  C   3.982        C 2397 0.999    C 2393 0.999    C 2389 0.961    H 2392 0.953
  2392  H   0.995        C 2391 0.953
  2393  C   3.986        C 2391 0.999    H 2396 0.981    H 2395 0.980    H 2394 0.979
  2394  H   0.998        C 2393 0.979
  2395  H   0.999        C 2393 0.980
  2396  H   0.994        C 2393 0.981
  2397  C   3.993        C 2400 1.019    C 2391 0.999    H 2398 0.972    H 2399 0.970
  2398  H   0.997        C 2397 0.972
  2399  H   0.998        C 2397 0.970
  2400  C   3.990        C 2397 1.019    H 2401 0.984    H 2403 0.984    H 2402 0.979
  2401  H   0.998        C 2400 0.984
  2402  H   0.998        C 2400 0.979
  2403  H   0.998        C 2400 0.984
  2404  C   3.938        O 2405 1.590    N 2406 1.290    C 2389 0.952
  2405  O   1.924        C 2404 1.590    N 2406 0.187
  2406  N   3.452        C 2404 1.290    C 2408 0.978    H 2407 0.893    O 2405 0.187
  2407  H   0.952        N 2406 0.893
  2408  C   3.961        N 2406 0.978    C 2410 0.954    H 2409 0.953    C 2418 0.921
  2409  H   0.992        C 2408 0.953
  2410  C   3.961        O 2416 1.003    C 2412 0.997    H 2411 0.956    C 2408 0.954
  2411  H   0.998        C 2410 0.956
  2412  C   3.987        C 2410 0.997    H 2414 0.986    H 2415 0.982    H 2413 0.981
  2413  H   0.997        C 2412 0.981
  2414  H   0.998        C 2412 0.986
  2415  H   0.995        C 2412 0.982
  2416  O   1.937        C 2410 1.003    H 2417 0.839
  2417  H   0.881        O 2416 0.839
  2418  C   3.948        O 2419 1.616    N 2420 1.328    C 2408 0.921
  2419  O   1.984        C 2418 1.616    N 2420 0.196
  2420  N   3.475        C 2418 1.328    C 2422 0.967    H 2421 0.888    O 2419 0.196
  2421  H   0.950        N 2420 0.888
  2422  C   3.952        N 2420 0.967    C 2424 0.948    H 2423 0.947    C 2432 0.922
  2423  H   0.992        C 2422 0.947
  2424  C   3.961        O 2430 1.010    C 2426 1.001    H 2425 0.958    C 2422 0.948
  2425  H   1.000        C 2424 0.958
  2426  C   3.990        C 2424 1.001    H 2428 0.982    H 2427 0.982    H 2429 0.980
  2427  H   0.996        C 2426 0.982
  2428  H   0.996        C 2426 0.982
  2429  H   0.998        C 2426 0.980
  2430  O   1.948        C 2424 1.010    H 2431 0.819
  2431  H   0.890        O 2430 0.819
  2432  C   3.951        O 2433 1.647    N 2434 1.306    C 2422 0.922
  2433  O   1.982        C 2432 1.647    N 2434 0.194
  2434  N   3.454        C 2432 1.306    C 2436 0.947    H 2435 0.904    O 2433 0.194
  2435  H   0.953        N 2434 0.904
  2436  C   3.954        C 2438 0.997    N 2434 0.947    H 2437 0.942    C 2452 0.936
  2437  H   0.990        C 2436 0.942
  2438  C   3.985        C 2436 0.997    C 2441 0.995    H 2440 0.963    H 2439 0.945
  2439  H   0.993        C 2438 0.945
  2440  H   0.995        C 2438 0.963
  2441  C   3.984        C 2450 1.454    C 2442 1.374    C 2438 0.995    C 2446 0.112
  2442  C   3.989        C 2444 1.459    C 2441 1.374    H 2443 0.960    C 2448 0.129
  2443  H   0.998        C 2442 0.960
  2444  C   3.991        C 2442 1.459    C 2446 1.445    H 2445 0.961
  2445  H   0.996        C 2444 0.961
  2446  C   3.988        C 2444 1.445    C 2448 1.423    H 2447 0.970    C 2441 0.112
  2447  H   0.998        C 2446 0.970
  2448  C   3.987        C 2450 1.428    C 2446 1.423    H 2449 0.972    C 2442 0.129
  2449  H   0.997        C 2448 0.972
  2450  C   3.991        C 2441 1.454    C 2448 1.428    H 2451 0.963
  2451  H   0.998        C 2450 0.963
  2452  C   3.942        O 2453 1.591    N 2454 1.319    C 2436 0.936
  2453  O   1.990        C 2452 1.591    N 2454 0.197
  2454  N   3.480        C 2452 1.319    C 2456 0.971    H 2455 0.889    O 2453 0.197
  2455  H   0.946        N 2454 0.889
  2456  C   3.959        C 2458 0.983    N 2454 0.971    H 2457 0.947    C 2476 0.938
  2457  H   0.991        C 2456 0.947
  2458  C   3.983        C 2461 1.007    C 2456 0.983    H 2459 0.970    H 2460 0.957
  2459  H   0.995        C 2458 0.970
  2460  H   0.990        C 2458 0.957
  2461  C   3.990        C 2458 1.007    C 2464 1.006    H 2463 0.972    H 2462 0.968
  2462  H   0.997        C 2461 0.968
  2463  H   0.995        C 2461 0.972
  2464  C   3.950        C 2461 1.006    H 2466 0.967    H 2465 0.963    N 2467 0.956
  2465  H   0.991        C 2464 0.963
  2466  H   0.993        C 2464 0.967
  2467  N   3.438        C 2469 1.304    C 2464 0.956    H 2468 0.908    N 2470 0.107
  2468  H   0.954        N 2467 0.908
  2469  C   3.978        N 2470 1.374    N 2467 1.304    N 2473 1.280
  2470  N   3.424        C 2469 1.374    H 2471 0.904    H 2472 0.897    N 2467 0.107    N 2473 0.104
  2471  H   0.930        N 2470 0.904
  2472  H   0.933        N 2470 0.897
  2473  N   3.351        C 2469 1.280    H 2474 0.925    H 2475 0.874    N 2470 0.104
  2474  H   0.946        N 2473 0.925
  2475  H   0.938        N 2473 0.874
  2476  C   3.946        O 2477 1.608    N 2478 1.323    C 2456 0.938
  2477  O   1.914        C 2476 1.608    N 2478 0.195
  2478  N   3.467        C 2476 1.323    C 2480 0.972    H 2479 0.884    O 2477 0.195
  2479  H   0.945        N 2478 0.884
  2480  C   3.964        C 2482 0.979    N 2478 0.972    H 2481 0.954    C 2490 0.911
  2481  H   0.991        C 2480 0.954
  2482  C   3.959        C 2484 0.993    O 2488 0.983    C 2480 0.979    H 2483 0.957
  2483  H   0.998        C 2482 0.957
  2484  C   3.987        C 2482 0.993    H 2485 0.982    H 2486 0.982    H 2487 0.978
  2485  H   0.996        C 2484 0.982
  2486  H   0.997        C 2484 0.982
  2487  H   0.994        C 2484 0.978
  2488  O   1.942        C 2482 0.983    H 2489 0.871
  2489  H   0.893        O 2488 0.871
  2490  C   3.948        O 2491 1.631    N 2492 1.326    C 2480 0.911
  2491  O   1.945        C 2490 1.631    N 2492 0.197
  2492  N   3.497        C 2490 1.326    C 2494 0.992    H 2493 0.912    O 2491 0.197
  2493  H   0.952        N 2492 0.912
  2494  C   3.953        N 2492 0.992    H 2495 0.953    H 2496 0.951    C 2497 0.931
  2495  H   0.987        C 2494 0.953
  2496  H   0.989        C 2494 0.951
  2497  C   3.942        O 2498 1.640    N 2499 1.302    C 2494 0.931
  2498  O   1.950        C 2497 1.640    N 2499 0.190
  2499  N   3.484        C 2497 1.302    C 2501 1.006    H 2500 0.907    O 2498 0.190
  2500  H   0.952        N 2499 0.907
  2501  C   3.973        N 2499 1.006    C 2503 0.959    H 2502 0.947    C 2511 0.924
  2502  H   0.994        C 2501 0.947
  2503  C   3.957        C 2505 1.001    O 2509 0.981    C 2501 0.959    H 2504 0.956
  2504  H   0.999        C 2503 0.956
  2505  C   3.988        C 2503 1.001    H 2507 0.983    H 2506 0.982    H 2508 0.979
  2506  H   0.996        C 2505 0.982
  2507  H   0.997        C 2505 0.983
  2508  H   0.995        C 2505 0.979
  2509  O   1.936        C 2503 0.981    H 2510 0.876
  2510  H   0.894        O 2509 0.876
  2511  C   3.947        O 2512 1.582    N 2513 1.349    C 2501 0.924
  2512  O   1.908        C 2511 1.582    N 2513 0.190
  2513  N   3.478        C 2511 1.349    C 2515 0.948    H 2514 0.916    O 2512 0.190
  2514  H   0.955        N 2513 0.916
  2515  C   3.949        C 2517 0.982    N 2513 0.948    C 2535 0.939    H 2516 0.931
  2516  H   0.991        C 2515 0.931
  2517  C   3.983        C 2520 1.011    C 2515 0.982    H 2519 0.969    H 2518 0.957
  2518  H   0.995        C 2517 0.957
  2519  H   0.997        C 2517 0.969
  2520  C   3.967        C 2521 1.615    C 2534 1.147    C 2517 1.011
  2521  C   3.961        C 2520 1.615    N 2523 1.206    H 2522 0.963
  2522  H   0.996        C 2521 0.963
  2523  N   3.532        C 2521 1.206    C 2525 1.160    H 2524 0.930
  2524  H   0.960        N 2523 0.930
  2525  C   3.964        C 2526 1.345    C 2534 1.270    N 2523 1.160
  2526  C   3.988        C 2528 1.481    C 2525 1.345    H 2527 0.965    C 2532 0.121
  2527  H   0.996        C 2526 0.965
  2528  C   3.987        C 2526 1.481    C 2530 1.393    H 2529 0.967
  2529  H   0.997        C 2528 0.967
  2530  C   3.987        C 2532 1.465    C 2528 1.393    H 2531 0.962
  2531  H   0.999        C 2530 0.962
  2532  C   3.989        C 2530 1.465    C 2534 1.360    H 2533 0.961    C 2526 0.121
  2533  H   0.999        C 2532 0.961
  2534  C   3.983        C 2532 1.360    C 2525 1.270    C 2520 1.147
  2535  C   3.946        O 2536 1.625    N 2537 1.294    C 2515 0.939
  2536  O   1.969        C 2535 1.625    N 2537 0.191
  2537  N   3.469        C 2535 1.294    C 2539 0.992    H 2538 0.903    O 2536 0.191
  2538  H   0.954        N 2537 0.903
  2539  C   3.961        N 2537 0.992    C 2541 0.960    H 2540 0.943    C 2547 0.931
  2540  H   0.994        C 2539 0.943
  2541  C   3.979        H 2542 0.980    H 2543 0.967    C 2539 0.960    C 2544 0.928
  2542  H   0.998        C 2541 0.980
  2543  H   0.996        C 2541 0.967
  2544  C   3.941        O 2545 1.586    O 2546 1.405    C 2541 0.928
  2545  O   1.883        C 2544 1.586    O 2546 0.219
  2546  O   1.738        C 2544 1.405    O 2545 0.219
  2547  C   3.949        O 2548 1.612    N 2549 1.319    C 2539 0.931
  2548  O   1.956        C 2547 1.612    N 2549 0.192
  2549  N   3.474        C 2547 1.319    C 2551 0.945    H 2550 0.925    O 2548 0.192
  2550  H   0.957        N 2549 0.925
  2551  C   3.945        C 2553 0.994    N 2549 0.945    C 2557 0.940    H 2552 0.940
  2552  H   0.989        C 2551 0.940
  2553  C   3.968        C 2551 0.994    H 2555 0.984    H 2556 0.977    H 2554 0.963
  2554  H   0.989        C 2553 0.963
  2555  H   0.995        C 2553 0.984
  2556  H   0.994        C 2553 0.977
  2557  C   3.947        O 2558 1.662    N 2559 1.273    C 2551 0.940
  2558  O   1.981        C 2557 1.662    N 2559 0.195
  2559  N   3.443        C 2557 1.273    C 2561 0.968    H 2560 0.905    O 2558 0.195
  2560  H   0.961        N 2559 0.905
  2561  C   3.963        N 2559 0.968    C 2563 0.966    C 2578 0.961    H 2562 0.941
  2562  H   0.994        C 2561 0.941
  2563  C   3.982        C 2566 1.004    C 2561 0.966    H 2564 0.964    H 2565 0.960
  2564  H   0.997        C 2563 0.964
  2565  H   0.997        C 2563 0.960
  2566  C   3.987        C 2576 1.453    C 2567 1.377    C 2563 1.004
  2567  C   3.989        C 2569 1.487    C 2566 1.377    H 2568 0.965    C 2574 0.102
  2568  H   0.998        C 2567 0.965
  2569  C   3.983        C 2567 1.487    C 2571 1.328    H 2570 0.967    C 2576 0.117
  2570  H   0.995        C 2569 0.967
  2571  C   3.940        C 2574 1.432    C 2569 1.328    O 2572 1.051
  2572  O   2.059        C 2571 1.051    H 2573 0.822
  2573  H   0.894        O 2572 0.822
  2574  C   3.987        C 2571 1.432    C 2576 1.393    H 2575 0.966    C 2567 0.102
  2575  H   0.998        C 2574 0.966
  2576  C   3.990        C 2566 1.453    C 2574 1.393    H 2577 0.969    C 2569 0.117
  2577  H   0.999        C 2576 0.969
  2578  C   3.945        O 2579 1.599    N 2580 1.305    C 2561 0.961
  2579  O   1.911        C 2578 1.599    N 2580 0.197
  2580  N   3.475        C 2578 1.305    C 2582 0.973    H 2581 0.929    O 2579 0.197
  2581  H   0.961        N 2580 0.929
  2582  C   3.950        N 2580 0.973    C 2584 0.966    H 2583 0.958    C 2600 0.915
  2583  H   0.998        C 2582 0.958
  2584  C   3.989        C 2587 1.017    H 2585 0.972    H 2586 0.970    C 2582 0.966
  2585  H   0.998        C 2584 0.972
  2586  H   0.998        C 2584 0.970
  2587  C   3.995        C 2584 1.017    C 2590 0.997    H 2588 0.973    H 2589 0.970
  2588  H   0.998        C 2587 0.973
  2589  H   0.998        C 2587 0.970
  2590  C   3.988        C 2593 1.008    C 2587 0.997    H 2591 0.976    H 2592 0.972
  2591  H   0.994        C 2590 0.976
  2592  H   0.994        C 2590 0.972
  2593  C   3.915        C 2590 1.008    H 2594 0.965    H 2595 0.963    N 2596 0.960
  2594  H   0.985        C 2593 0.965
  2595  H   0.986        C 2593 0.963
  2596  N   3.648        C 2593 0.960    H 2599 0.895    H 2597 0.868    H 2598 0.866
  2597  H   0.921        N 2596 0.868
  2598  H   0.916        N 2596 0.866
  2599  H   0.917        N 2596 0.895
  2600  C   3.939        O 2601 1.495    O 2602 1.489    C 2582 0.915
  2601  O   1.796        C 2600 1.495    O 2602 0.221
  2602  O   1.785        C 2600 1.489    O 2601 0.221
  2603  O   2.032        C 2605 1.032    H 2604 0.823
  2604  H   0.893        O 2603 0.823
  2605  C   3.936        C 2606 1.433    C 2614 1.284    O 2603 1.032
  2606  C   3.986        C 2605 1.433    C 2608 1.382    H 2607 0.964    C 2612 0.104
  2607  H   0.998        C 2606 0.964
  2608  C   3.989        C 2610 1.484    C 2606 1.382    H 2609 0.966
  2609  H   0.998        C 2608 0.966
  2610  C   3.989        C 2608 1.484    C 2612 1.384    H 2611 0.969
  2611  H   0.998        C 2610 0.969
  2612  C   3.984        C 2614 1.420    C 2610 1.384    H 2613 0.965    C 2606 0.104
  2613  H   0.996        C 2612 0.965
  2614  C   3.948        C 2612 1.420    C 2605 1.284    O 2615 1.082
  2615  O   2.102        C 2614 1.082    H 2616 0.821
  2616  H   0.881        O 2615 0.821

molecular dipole:
                 x           y           z       tot (Debye)
 q only:      597.890     698.219     669.321
   full:      597.683     697.889     676.829    2900.680
molecular quadrupole (traceless):
                xx          xy          yy          xz          yz          zz
 q only:   -13211.608   74204.446    9954.433   70145.401   81803.878    3257.175
  q+dip:   -13985.645   73770.727    9377.964   70687.472   82582.039    4607.681
   full:   -13973.437   73775.482    9356.962   70686.393   82577.138    4616.475


           -------------------------------------------------
          | TOTAL ENERGY            -4109.357136418789 Eh   |
          | GRADIENT NORM               1.294004081158 Eh/α |
          | HOMO-LUMO GAP               2.115771281073 eV   |
           -------------------------------------------------

------------------------------------------------------------------------
 * finished run on 2020/05/18 at 10:51:46.670     
------------------------------------------------------------------------
 total:
 * wall-time:     0 d,  0 h,  7 min,  1.828 sec
 *  cpu-time:     0 d,  5 h,  8 min, 56.933 sec
 * ratio c/w:    43.944 speedup
 SCF:
 * wall-time:     0 d,  0 h,  6 min, 34.026 sec
 *  cpu-time:     0 d,  5 h,  0 min, 37.597 sec
 * ratio c/w:    45.778 speedup

