      -----------------------------------------------------------      
     |                   =====================                   |     
     |                           x T B                           |     
     |                   =====================                   |     
     |                         S. Grimme                         |     
     |          Mulliken Center for Theoretical Chemistry        |     
     |                    University of Bonn                     |     
      -----------------------------------------------------------      

   * xtb version 6.2.3 (d7bf61a) compiled by 'conda@06d140edd85e' on 2020-05-12

   xtb is free software: you can redistribute it and/or modify it under
   the terms of the GNU Lesser General Public License as published by
   the Free Software Foundation, either version 3 of the License, or
   (at your option) any later version.
   
   xtb is distributed in the hope that it will be useful,
   but WITHOUT ANY WARRANTY; without even the implied warranty of
   MERCHANTABILITY or FITNESS FOR A PARTICULAR PURPOSE.  See the
   GNU Lesser General Public License for more details.
   
   Cite this work as:
   * S. Grimme, C. Bannwarth, P. Shushkov, J. Chem. Theory Comput., 2017,
     13, 1989-2009. DOI: 10.1021/acs.jctc.7b00118
   * C. Bannwarth, S. Ehlert and S. Grimme., J. Chem. Theory Comput., 2019,
     15, 1652-1671. DOI: 10.1021/acs.jctc.8b01176
   * P. Pracht, E. Caldeweyher, S. Ehlert, S. Grimme, ChemRxiv, 2019, preprint.
     DOI: 10.26434/chemrxiv.8326202.v1
   
   for DFT-D4:
   * E. Caldeweyher, C. Bannwarth and S. Grimme, J. Chem. Phys., 2017,
     147, 034112. DOI: 10.1063/1.4993215
   * E. Caldeweyher, S. Ehlert, A. Hansen, H. Neugebauer, S. Spicher,
     C. Bannwarth and S. Grimme, J. Chem. Phys., 2019, 150, 154122.
     DOI: 10.1063/1.5090222
   
   for sTDA-xTB:
   * S. Grimme and C. Bannwarth, J. Chem. Phys., 2016, 145, 054103.
     DOI: 10.1063/1.4959605
   
   in the mass-spec context:
   * V. Asgeirsson, C. Bauer and S. Grimme, Chem. Sci., 2017, 8, 4879.
     DOI: 10.1039/c7sc00601b
   
   for metadynamics refer to:
   * S. Grimme, J. Chem. Theory Comput., 2019, 155, 2847-2862
     DOI: 10.1021/acs.jctc.9b00143
   
   with help from (in alphabetical order)
   C. Bannwarth, F. Bohle, G. Brandenburg, E. Caldeweyher, M. Checinski,
   S. Dohm, S. Ehlert, S. Ehrlich, F. März, H. Neugebauer, J. Pisarek,
   P. Pracht, P. Shushkov, and S. Spicher.
   
 * started run on 2020/06/09 at 03:20:22.136     

           -------------------------------------------------
          |                Calculation Setup                |
           -------------------------------------------------

          program call               : xtb complex_39621.xyz --chrg +9 --uhf 0 --gbsa water
          hostname                   : gold56.cluster.local
          coordinate file            : complex_39621.xyz
          omp threads                :                    64
          number of atoms            :                  2616
          number of electrons        :                  7234
          charge                     :                     9
          spin                       :                   0.0
          first test random number   :      0.29281790569333


molecular fragmentation (1/2 indicates fragments):
111111111111111111111111111111111111111111111111111111111111111111111111
111111111111111111111111111111111111111111111111111111111111111111111111
111111111111111111111111111111111111111111111111111111111111111111111111
111111111111111111111111111111111111111111111111111111111111111111111111
111111111111111111111111111111111111111111111111111111111111111111111111
111111111111111111111111111111111111111111111111111111111111111111111111
111111111111111111111111111111111111111111111111111111111111111111111111
111111111111111111111111111111111111111111111111111111111111111111111111
111111111111111111111111111111111111111111111111111111111111111111111111
111111111111111111111111111111111111111111111111111111111111111111111111
111111111111111111111111111111111111111111111111111111111111111111111111
111111111111111111111111111111111111111111111111111111111111111111111111
111111111111111111111111111111111111111111111111111111111111111111111111
111111111111111111111111111111111111111111111111111111111111111111111111
111111111111111111111111111111111111111111111111111111111111111111111111
111111111111111111111111111111111111111111111111111111111111111111111111
111111111111111111111111111111111111111111111111111111111111111111111111
111111111111111111111111111111111111111111111111111111111111111111111111
111111111111111111111111111111111111111111111111111111111111111111111111
111111111111111111111111111111111111111111111111111111111111111111111111
111111111111111111111111111111111111111111111111111111111111111111111111
111111111111111111111111111111111111111111111111111111111111111111111111
111111111111111111111111111111111111111111111111111111111111111111111111
111111111111111111111111111111111111111111111111111111111111111111111111
111111111111111111111111111111111111111111111111111111111111111111111111
111111111111111111111111111111111111111111111111111111111111111111111111
111111111111111111111111111111111111111111111111111111111111111111111111
111111111111111111111111111111111111111111111111111111111111111111111111
111111111111111111111111111111111111111111111111111111111111111111111111
111111111111111111111111111111111111111111111111111111111111111111111111
111111111111111111111111111111111111111111111111111111111111111111111111
111111111111111111111111111111111111111111111111111111111111111111111111
111111111111111111111111111111111111111111111111111111111111111111111111
111111111111111111111111111111111111111111111111111111111111111111111111
111111111111111111111111111111111111111111111111111111111111111111111111
111111111111111111111111111111111111111111111111111111111111111111111111
111111111122222222222222
# atoms in fragment 1/2:  2602    14
 fragment masses (1/2) :    18371.93      110.11
CMA distance (Bohr)    :  19.603
constraining FC (au)   :  0.0500
########################################################################
[WARNING] Please study the warnings concerning your input carefully
-2- prog_main: XTBPATH is not set, using XTBHOME instead
-1- prog_main: XTBHOME is not set, using HOME instead
########################################################################
           ------------------------------------------------- 
          |                 G F N 2 - x T B                 |
          | Geometry, Frequencies, Noncovalent interactions |
          |            JCTC 2019 parametrisation            |
           ------------------------------------------------- 
             k(s)              :                1.8500
             k(p)              :                2.2300
             k(d)              :                2.2300
             k(f)              :                2.0000
             kEN (H0ij)        :               -2.0000
             D4 a1             :                0.5200
             D4 a2             :                5.0000
             D4 s6             :                1.0000
             D4 s8             :                2.7000
             D4 s9             :                5.0000
             alphaj            :                2.0000

  Z AO/shell   Hii/eV     exponent
  1     Wed Apr 25 08:07:45 CEST 2018   EN: 2.200 GM2: 0.406  GM3: 0.0800  RAES: 1.40
     1s    -10.707211    1.230000
  6     Wed Apr 25 08:07:45 CEST 2018   EN: 2.550 GM2: 0.538  GM3: 0.1500  RAES: 3.00
     2s    -13.970922    2.096432
     2p    -10.063292    1.800000
  7     Wed Apr 25 08:07:45 CEST 2018   EN: 3.040 GM2: 0.461  GM3:-0.0640  RAES: 1.90
     2s    -16.686243    2.339881
     2p    -12.523956    2.014332
  8     Wed Apr 25 08:07:45 CEST 2018   EN: 3.440 GM2: 0.452  GM3:-0.0517  RAES: 1.80
     2s    -20.229985    2.439742
     2p    -15.503117    2.137023
 16     Tue Apr 24 11:44:34 CEST 2018   EN: 2.580 GM2: 0.340  GM3:-0.0502  RAES: 3.10
     3s    -20.029654    1.981333
     3p    -11.377694    2.025643
     3d     -0.420282    1.702555

 Solvent             : water
 Using internal parameter file: .param_gbsa2_water
 Gsolv ref. state (COSMO-RS): gsolv [1 M gas/solution]
 temperature (mdtemp)       :    298.14999999999998     
 dielectric constant        :    80.200000000000003     
 rho                        :    1.0000000000000000     
 mass                       :    18.000000000000000     
 surface tension            :    15.568945408385856     
 probe radius               :   0.97531378999999996     
 Gshift (Eh)                :    1.8574431267947933E-003
 c1                         :    1.5524381700000001     
 soset                      :   0.13032636000000000     
 HB correction              :  T
           ------------------------------------------------- 
          |        Self-Consistent Charge Iterations        |
           ------------------------------------------------- 

          ...................................................
          :                      SETUP                      :
          :.................................................:
          :  # basis functions                6549          :
          :  # atomic orbitals                6543          :
          :  # shells                         3921          :
          :  # electrons                      7234          :
          :  max. iterations                   250          :
          :  Hamiltonian                  GFN2-xTB          :
          :  restarted?                      false          :
          :  GBSA solvation                   true          :
          :  PC potential                    false          :
          :  electronic temp.          300.0000000     K    :
          :  accuracy                    1.0000000          :
          :  -> integral cutoff          0.2500000E+02      :
          :  -> integral neglect         0.1000000E-07      :
          :  -> SCF convergence          0.1000000E-05 Eh   :
          :  -> wf. convergence          0.1000000E-03 e    :
          :  Broyden damping             0.4000000          :
          ...................................................

 iter      E             dE          RMSdq      gap      omega  full diag
   1  -4145.0067347 -0.414501E+04  0.427E+00    2.15       0.0  T
   2  -4157.2748060 -0.122681E+02  0.226E+00    2.33       1.0  T
   3  -4157.7493775 -0.474571E+00  0.119E+00    1.85       1.0  T
   4  -4157.8150892 -0.657118E-01  0.294E-01    1.75       1.0  T
   5  -4157.9259618 -0.110873E+00  0.144E-01    1.56       1.0  T
   6  -4157.9410775 -0.151156E-01  0.745E-02    1.68       1.0  T
   7  -4157.9436886 -0.261110E-02  0.391E-02    1.64       1.0  T
   8  -4157.9448693 -0.118072E-02  0.175E-02    1.62       1.0  T
   9  -4157.9450799 -0.210577E-03  0.108E-02    1.60       1.0  T
  10  -4157.9451850 -0.105160E-03  0.565E-03    1.58       1.0  T
  11  -4157.9452124 -0.273483E-04  0.290E-03    1.56       1.0  T
  12  -4157.9452207 -0.836375E-05  0.163E-03    1.56       1.2  T
  13  -4157.9452234 -0.265374E-05  0.916E-04    1.55       2.1  T
  14  -4157.9452242 -0.814618E-06  0.490E-04    1.55       4.0  T
  15  -4157.9452244 -0.236406E-06  0.263E-04    1.55       7.4  T

   *** convergence criteria satisfied after 15 iterations ***

         #    Occupation            Energy/Eh            Energy/eV
      -------------------------------------------------------------
         1        2.0000           -0.7569187             -20.5968
       ...           ...                  ...                  ...
      3611        2.0000           -0.3585616              -9.7570
      3612        2.0000           -0.3577246              -9.7342
      3613        2.0000           -0.3561460              -9.6912
      3614        2.0000           -0.3560532              -9.6887
      3615        2.0000           -0.3556570              -9.6779
      3616        2.0000           -0.3545894              -9.6489
      3617        2.0000           -0.3519804              -9.5779 (HOMO)
      3618                         -0.2950390              -8.0284 (LUMO)
      3619                         -0.2718270              -7.3968
      3620                         -0.2695173              -7.3339
      3621                         -0.2694778              -7.3329
      3622                         -0.2683253              -7.3015
       ...                                ...                  ...
      6543                          0.7758224              21.1112
      -------------------------------------------------------------
                  HL-Gap            0.0569414 Eh            1.5495 eV
             Fermi-level           -0.3235097 Eh           -8.8031 eV

 SCC (total)                   0 d,  0 h,  6 min, 53.979 sec
 SCC setup                      ...        0 min,  3.182 sec (  0.769%)
 Dispersion                     ...        0 min,  2.008 sec (  0.485%)
 integral evaluation            ...        0 min,  8.718 sec (  2.106%)
 zeroth order Hamiltonian       ...        0 min,  0.346 sec (  0.084%)
 iterations                     ...        6 min, 21.276 sec ( 92.100%)
 molecular gradient             ...        0 min, 17.667 sec (  4.268%)
 printout                       ...        0 min,  0.782 sec (  0.189%)

         :::::::::::::::::::::::::::::::::::::::::::::::::::::
         ::                     SUMMARY                     ::
         :::::::::::::::::::::::::::::::::::::::::::::::::::::
         :: total energy           -4109.201346181674 Eh    ::
         :: total w/o Gsasa/hb     -4108.797543774308 Eh    ::
         :: gradient norm              1.334254095130 Eh/a0 ::
         :: HOMO-LUMO gap              1.549455454054 eV    ::
         ::.................................................::
         :: SCC energy             -4158.010997193791 Eh    ::
         :: -> isotropic ES           14.288143879640 Eh    ::
         :: -> anisotropic ES         -0.746469674775 Eh    ::
         :: -> anisotropic XC          1.159032861584 Eh    ::
         :: -> dispersion             -3.934012328937 Eh    ::
         :: -> Gsolv                  -4.104102459451 Eh    ::
         ::    -> Gborn               -3.700300052084 Eh    ::
         ::    -> Gsasa               -0.067630199701 Eh    ::
         ::    -> Ghb                 -0.338029650792 Eh    ::
         ::    -> Gshift               0.001857443127 Eh    ::
         :: repulsion energy          48.257126867013 Eh    ::
         :: add. restraining           0.000000000000 Eh    ::
         :::::::::::::::::::::::::::::::::::::::::::::::::::::

           -------------------------------------------------
          |                Property Printout                |
           -------------------------------------------------

    * Orbital Energies and Occupations

         #    Occupation            Energy/Eh            Energy/eV
      -------------------------------------------------------------
         1        2.0000           -0.7569187             -20.5968
       ...           ...                  ...                  ...
      3605        2.0000           -0.3621882              -9.8556
      3606        2.0000           -0.3618366              -9.8461
      3607        2.0000           -0.3614325              -9.8351
      3608        2.0000           -0.3608243              -9.8185
      3609        2.0000           -0.3602487              -9.8029
      3610        2.0000           -0.3600540              -9.7976
      3611        2.0000           -0.3585616              -9.7570
      3612        2.0000           -0.3577246              -9.7342
      3613        2.0000           -0.3561460              -9.6912
      3614        2.0000           -0.3560532              -9.6887
      3615        2.0000           -0.3556570              -9.6779
      3616        2.0000           -0.3545894              -9.6489
      3617        2.0000           -0.3519804              -9.5779 (HOMO)
      3618                         -0.2950390              -8.0284 (LUMO)
      3619                         -0.2718270              -7.3968
      3620                         -0.2695173              -7.3339
      3621                         -0.2694778              -7.3329
      3622                         -0.2683253              -7.3015
      3623                         -0.2679448              -7.2911
      3624                         -0.2676944              -7.2843
      3625                         -0.2665847              -7.2541
      3626                         -0.2664235              -7.2498
      3627                         -0.2637082              -7.1759
      3628                         -0.2636800              -7.1751
       ...                                ...                  ...
      6543                          0.7758224              21.1112
      -------------------------------------------------------------
                  HL-Gap            0.0569414 Eh            1.5495 eV
             Fermi-level           -0.3235097 Eh           -8.8031 eV

     #   Z        covCN         q      C6AA      α(0)
     1   7 N      3.504    -0.131    23.833     7.251
     2   1 H      0.860     0.311     0.681     1.293
     3   1 H      0.860     0.297     0.723     1.332
     4   1 H      0.860     0.288     0.750     1.357
     5   6 C      3.800    -0.041    21.314     6.573
     6   1 H      0.925     0.140     1.464     1.892
     7   6 C      3.833    -0.101    22.405     6.735
     8   1 H      0.925     0.099     1.797     2.096
     9   1 H      0.924     0.114     1.660     2.015
    10   6 C      3.794    -0.038    21.259     6.566
    11   1 H      0.924     0.077     2.006     2.215
    12   1 H      0.925     0.061     2.185     2.312
    13  16 S      1.963    -0.207   149.860    20.604
    14   6 C      3.740    -0.057    21.673     6.642
    15   1 H      0.925     0.043     2.409     2.427
    16   1 H      0.925     0.068     2.110     2.272
    17   1 H      0.925     0.037     2.495     2.470
    18   6 C      2.771     0.266    22.518     7.772
    19   8 O      0.862    -0.411    21.890     6.273
    20   7 N      2.700    -0.158    24.417     7.339
    21   1 H      0.860     0.219     1.015     1.578
    22   6 C      3.787     0.013    20.375     6.429
    23   1 H      0.924     0.108     1.714     2.047
    24   6 C      3.803    -0.129    22.964     6.822
    25   1 H      0.924     0.081     1.968     2.194
    26   1 H      0.925     0.101     1.774     2.083
    27   6 C      2.736     0.276    22.325     7.736
    28   8 O      0.859    -0.517    24.158     6.590
    29   7 N      2.643    -0.265    26.865     7.698
    30   1 H      0.860     0.238     0.931     1.512
    31   1 H      0.860     0.256     0.860     1.452
    32   6 C      2.744     0.271    22.421     7.753
    33   8 O      0.863    -0.507    23.928     6.559
    34   7 N      2.685    -0.163    24.518     7.354
    35   1 H      0.860     0.227     0.978     1.549
    36   6 C      3.780     0.007    20.489     6.448
    37   1 H      0.924     0.109     1.707     2.043
    38   6 C      3.844    -0.044    21.323     6.569
    39   1 H      0.925     0.089     1.887     2.148
    40   6 C      3.749    -0.132    23.101     6.855
    41   1 H      0.925     0.047     2.355     2.400
    42   1 H      0.925     0.080     1.980     2.200
    43   1 H      0.924     0.039     2.459     2.452
    44   6 C      3.800    -0.063    21.710     6.634
    45   1 H      0.925     0.033     2.549     2.497
    46   1 H      0.925     0.055     2.256     2.349
    47   6 C      3.757    -0.122    22.894     6.822
    48   1 H      0.925     0.031     2.570     2.507
    49   1 H      0.925     0.059     2.217     2.328
    50   1 H      0.925     0.046     2.372     2.409
    51   6 C      2.746     0.275    22.351     7.741
    52   8 O      0.861    -0.511    24.021     6.571
    53   7 N      2.683    -0.189    25.089     7.439
    54   1 H      0.860     0.225     0.989     1.557
    55   6 C      3.775     0.030    20.098     6.388
    56   1 H      0.925     0.078     2.003     2.213
    57   6 C      3.797    -0.067    21.781     6.645
    58   1 H      0.925     0.051     2.310     2.377
    59   1 H      0.925     0.067     2.124     2.279
    60   6 C      2.940     0.008    27.843     8.654
    61   6 C      2.911    -0.037    28.926     8.819
    62   1 H      0.926     0.057     2.235     2.338
    63   6 C      2.904    -0.039    28.959     8.824
    64   1 H      0.926     0.063     2.160     2.298
    65   6 C      2.910    -0.029    28.713     8.787
    66   1 H      0.926     0.033     2.550     2.497
    67   6 C      2.901    -0.032    28.792     8.798
    68   1 H      0.926     0.015     2.816     2.624
    69   6 C      2.907    -0.047    29.162     8.855
    70   1 H      0.926     0.025     2.655     2.548
    71   6 C      2.746     0.276    22.323     7.736
    72   8 O      0.858    -0.472    23.165     6.453
    73   7 N      2.683    -0.205    25.469     7.495
    74   1 H      0.860     0.210     1.056     1.609
    75   6 C      3.789     0.030    20.075     6.381
    76   1 H      0.925     0.059     2.214     2.327
    77   6 C      3.808    -0.056    21.570     6.611
    78   1 H      0.925     0.054     2.274     2.358
    79   1 H      0.924     0.055     2.253     2.347
    80   6 C      3.795    -0.098    22.375     6.736
    81   1 H      0.925     0.039     2.456     2.451
    82   1 H      0.924     0.018     2.757     2.597
    83   6 C      2.683     0.369    20.742     7.453
    84   8 O      0.858    -0.625    26.750     6.934
    85   8 O      0.857    -0.637    27.039     6.972
    86   6 C      2.751     0.262    22.583     7.781
    87   8 O      0.859    -0.499    23.762     6.536
    88   7 N      2.687    -0.189    25.103     7.441
    89   1 H      0.860     0.238     0.931     1.511
    90   6 C      3.790     0.030    20.079     6.382
    91   1 H      0.924     0.083     1.947     2.182
    92   6 C      3.869    -0.074    21.866     6.649
    93   1 H      0.925     0.051     2.306     2.375
    94   1 H      0.925     0.086     1.916     2.165
    95   6 C      3.797    -0.026    21.049     6.533
    96   1 H      0.925     0.085     1.928     2.171
    97   1 H      0.925     0.037     2.490     2.467
    98  16 S      1.999    -0.135   146.726    20.387
    99   6 C      3.747    -0.063    21.774     6.656
   100   1 H      0.925     0.032     2.561     2.502
   101   1 H      0.925     0.043     2.403     2.424
   102   1 H      0.925     0.058     2.223     2.332
   103   6 C      2.753     0.269    22.459     7.760
   104   8 O      0.859    -0.509    23.985     6.566
   105   7 N      2.684    -0.186    25.036     7.431
   106   1 H      0.860     0.234     0.948     1.525
   107   6 C      3.786     0.030    20.078     6.382
   108   1 H      0.924     0.073     2.051     2.240
   109   6 C      3.807    -0.077    21.972     6.673
   110   1 H      0.925     0.057     2.240     2.341
   111   1 H      0.924     0.060     2.197     2.318
   112   6 C      3.851    -0.013    20.780     6.484
   113   1 H      0.925     0.050     2.317     2.381
   114   6 C      3.761    -0.114    22.736     6.797
   115   1 H      0.925     0.028     2.615     2.529
   116   1 H      0.924     0.049     2.327     2.385
   117   1 H      0.925     0.047     2.362     2.403
   118   6 C      3.762    -0.111    22.661     6.786
   119   1 H      0.924     0.032     2.555     2.500
   120   1 H      0.925     0.033     2.545     2.495
   121   1 H      0.925     0.048     2.349     2.397
   122   6 C      2.745     0.262    22.574     7.780
   123   8 O      0.857    -0.471    23.156     6.452
   124   7 N      2.681    -0.190    25.132     7.445
   125   1 H      0.860     0.190     1.158     1.685
   126   6 C      3.784     0.020    20.261     6.412
   127   1 H      0.925     0.082     1.961     2.190
   128   6 C      3.805    -0.069    21.812     6.649
   129   1 H      0.924     0.061     2.189     2.313
   130   1 H      0.924     0.059     2.216     2.328
   131   6 C      3.789    -0.088    22.186     6.708
   132   1 H      0.925     0.067     2.117     2.276
   133   1 H      0.925     0.091     1.865     2.135
   134   6 C      3.730    -0.026    21.139     6.563
   135   1 H      0.924     0.094     1.842     2.122
   136   1 H      0.925     0.072     2.066     2.248
   137   7 N      2.770    -0.169    24.655     7.375
   138   1 H      0.862     0.217     1.025     1.586
   139   6 C      2.743     0.262    22.582     7.781
   140   7 N      2.677    -0.276    27.139     7.737
   141   1 H      0.860     0.241     0.918     1.500
   142   1 H      0.860     0.238     0.931     1.512
   143   7 N      2.739    -0.266    26.872     7.699
   144   1 H      0.860     0.246     0.899     1.485
   145   1 H      0.860     0.230     0.964     1.538
   146   6 C      2.745     0.277    22.318     7.735
   147   8 O      0.863    -0.500    23.782     6.539
   148   7 N      2.683    -0.167    24.615     7.369
   149   1 H      0.860     0.193     1.140     1.672
   150   6 C      3.784     0.015    20.344     6.425
   151   1 H      0.924     0.098     1.801     2.099
   152   6 C      3.840    -0.027    21.027     6.523
   153   1 H      0.924     0.054     2.265     2.353
   154   6 C      3.740    -0.118    22.846     6.820
   155   1 H      0.925     0.055     2.262     2.352
   156   1 H      0.925     0.043     2.405     2.425
   157   1 H      0.925     0.055     2.256     2.349
   158   6 C      3.800    -0.057    21.600     6.617
   159   1 H      0.924     0.034     2.527     2.486
   160   1 H      0.924     0.037     2.496     2.471
   161   6 C      3.753    -0.097    22.417     6.752
   162   1 H      0.924     0.033     2.545     2.495
   163   1 H      0.925     0.050     2.324     2.384
   164   1 H      0.925     0.024     2.676     2.558
   165   6 C      2.751     0.272    22.409     7.752
   166   8 O      0.860    -0.487    23.495     6.499
   167   7 N      2.684    -0.208    25.518     7.502
   168   1 H      0.860     0.229     0.968     1.541
   169   6 C      3.786     0.036    19.986     6.368
   170   1 H      0.925     0.078     1.995     2.209
   171   6 C      3.803    -0.102    22.446     6.745
   172   1 H      0.924     0.025     2.658     2.550
   173   1 H      0.925     0.067     2.122     2.278
   174   6 C      2.685     0.352    21.026     7.504
   175   8 O      0.857    -0.576    25.547     6.777
   176   8 O      0.856    -0.577    25.549     6.777
   177   6 C      2.744     0.272    22.404     7.750
   178   8 O      0.861    -0.479    23.327     6.476
   179   7 N      2.682    -0.191    25.151     7.448
   180   1 H      0.860     0.187     1.174     1.697
   181   6 C      3.781     0.029    20.104     6.387
   182   1 H      0.925     0.083     1.949     2.183
   183   6 C      3.805    -0.057    21.593     6.615
   184   1 H      0.924     0.048     2.343     2.394
   185   1 H      0.925     0.044     2.395     2.420
   186   6 C      3.791    -0.092    22.267     6.720
   187   1 H      0.924     0.024     2.677     2.559
   188   1 H      0.925     0.014     2.830     2.631
   189   6 C      2.674     0.356    20.959     7.491
   190   8 O      0.857    -0.630    26.877     6.951
   191   8 O      0.857    -0.622    26.677     6.925
   192   6 C      2.745     0.277    22.306     7.733
   193   8 O      0.859    -0.490    23.554     6.507
   194   7 N      2.681    -0.162    24.516     7.354
   195   1 H      0.860     0.211     1.053     1.608
   196   6 C      3.735    -0.034    21.264     6.581
   197   1 H      0.925     0.101     1.779     2.086
   198   1 H      0.925     0.087     1.904     2.158
   199   6 C      2.742     0.265    22.523     7.771
   200   8 O      0.864    -0.517    24.155     6.590
   201   7 N      2.697    -0.148    24.197     7.306
   202   1 H      0.860     0.214     1.036     1.595
   203   6 C      3.794     0.016    20.316     6.419
   204   1 H      0.925     0.068     2.110     2.272
   205   6 C      3.793    -0.093    22.288     6.723
   206   1 H      0.925     0.073     2.053     2.241
   207   1 H      0.924     0.066     2.128     2.282
   208   6 C      3.841    -0.021    20.927     6.508
   209   1 H      0.924     0.054     2.271     2.357
   210   6 C      3.750    -0.134    23.134     6.859
   211   1 H      0.925     0.038     2.476     2.461
   212   1 H      0.925     0.054     2.272     2.357
   213   1 H      0.925     0.032     2.557     2.501
   214   6 C      3.753    -0.132    23.102     6.854
   215   1 H      0.924     0.068     2.108     2.270
   216   1 H      0.924     0.041     2.441     2.444
   217   1 H      0.925     0.061     2.183     2.310
   218   6 C      2.751     0.270    22.433     7.756
   219   8 O      0.857    -0.483    23.410     6.487
   220   7 N      2.683    -0.172    24.730     7.386
   221   1 H      0.860     0.207     1.069     1.620
   222   6 C      3.779     0.012    20.393     6.434
   223   1 H      0.925     0.098     1.803     2.100
   224   6 C      3.808    -0.094    22.287     6.720
   225   1 H      0.925     0.098     1.802     2.099
   226   1 H      0.924     0.079     1.987     2.204
   227   6 C      3.803    -0.093    22.264     6.718
   228   1 H      0.925     0.063     2.169     2.303
   229   1 H      0.925     0.090     1.876     2.142
   230   6 C      3.748    -0.042    21.387     6.596
   231   1 H      0.924     0.095     1.835     2.119
   232   1 H      0.924     0.097     1.816     2.107
   233   7 N      2.740    -0.129    23.799     7.246
   234   1 H      0.860     0.210     1.056     1.610
   235   6 C      2.741     0.235    23.077     7.865
   236   7 N      2.672    -0.245    26.395     7.630
   237   1 H      0.860     0.252     0.877     1.467
   238   1 H      0.860     0.271     0.808     1.408
   239   7 N      2.679    -0.270    26.986     7.715
   240   1 H      0.860     0.240     0.922     1.504
   241   1 H      0.860     0.219     1.012     1.576
   242   6 C      2.749     0.259    22.639     7.791
   243   8 O      0.859    -0.489    23.534     6.504
   244   7 N      2.678    -0.183    24.972     7.422
   245   1 H      0.860     0.221     1.005     1.571
   246   6 C      3.777    -0.004    20.678     6.479
   247   1 H      0.925     0.102     1.770     2.080
   248   6 C      3.788    -0.083    22.090     6.694
   249   1 H      0.925     0.081     1.964     2.191
   250   1 H      0.925     0.075     2.034     2.230
   251   6 C      3.850    -0.021    20.914     6.505
   252   1 H      0.925     0.047     2.360     2.402
   253   6 C      3.767    -0.124    22.920     6.823
   254   1 H      0.924     0.039     2.456     2.451
   255   1 H      0.925     0.048     2.344     2.394
   256   1 H      0.924     0.050     2.319     2.381
   257   6 C      3.768    -0.119    22.820     6.808
   258   1 H      0.925     0.036     2.509     2.477
   259   1 H      0.924     0.044     2.399     2.422
   260   1 H      0.924     0.033     2.543     2.494
   261   6 C      2.751     0.266    22.509     7.769
   262   8 O      0.861    -0.481    23.360     6.480
   263   7 N      2.693    -0.160    24.470     7.347
   264   1 H      0.860     0.197     1.121     1.658
   265   6 C      3.795     0.001    20.572     6.459
   266   1 H      0.925     0.097     1.815     2.107
   267   6 C      3.800    -0.092    22.257     6.717
   268   1 H      0.925     0.075     2.031     2.229
   269   1 H      0.925     0.079     1.987     2.204
   270   6 C      3.798    -0.079    22.015     6.681
   271   1 H      0.925     0.060     2.202     2.321
   272   1 H      0.925     0.062     2.170     2.304
   273   6 C      3.799    -0.099    22.392     6.738
   274   1 H      0.925     0.087     1.912     2.162
   275   1 H      0.925     0.086     1.919     2.166
   276   6 C      3.729    -0.062    21.788     6.664
   277   1 H      0.924     0.118     1.630     1.996
   278   1 H      0.925     0.119     1.621     1.991
   279   7 N      3.489    -0.147    24.173     7.302
   280   1 H      0.860     0.302     0.707     1.317
   281   1 H      0.860     0.293     0.735     1.343
   282   1 H      0.860     0.298     0.721     1.330
   283   6 C      2.748     0.264    22.546     7.775
   284   8 O      0.858    -0.478    23.309     6.473
   285   7 N      2.680    -0.192    25.169     7.451
   286   1 H      0.860     0.220     1.011     1.575
   287   6 C      3.788     0.017    20.303     6.417
   288   1 H      0.924     0.056     2.249     2.345
   289   6 C      3.846    -0.028    21.041     6.525
   290   1 H      0.925     0.083     1.952     2.185
   291   6 C      3.747    -0.121    22.890     6.824
   292   1 H      0.925     0.032     2.553     2.499
   293   1 H      0.925     0.047     2.363     2.404
   294   1 H      0.925     0.059     2.209     2.324
   295   6 C      3.807    -0.082    22.059     6.686
   296   1 H      0.925     0.055     2.262     2.352
   297   1 H      0.925     0.035     2.523     2.484
   298   6 C      3.753    -0.128    23.026     6.843
   299   1 H      0.925     0.078     2.001     2.212
   300   1 H      0.925     0.035     2.517     2.481
   301   1 H      0.924     0.036     2.507     2.476
   302   6 C      2.752     0.274    22.365     7.744
   303   8 O      0.859    -0.485    23.453     6.493
   304   7 N      2.694    -0.148    24.202     7.307
   305   1 H      0.860     0.223     0.996     1.563
   306   6 C      3.789     0.024    20.188     6.399
   307   1 H      0.925     0.120     1.616     1.988
   308   6 C      3.817    -0.102    22.435     6.741
   309   1 H      0.924     0.105     1.744     2.065
   310   1 H      0.924     0.075     2.035     2.231
   311   6 C      2.955     0.004    27.941     8.670
   312   6 C      2.913    -0.049    29.205     8.862
   313   1 H      0.926     0.039     2.458     2.452
   314   6 C      2.906    -0.074    29.839     8.957
   315   1 H      0.926     0.021     2.723     2.580
   316   6 C      2.832     0.148    24.781     8.158
   317   8 O      1.662    -0.444    21.710     6.290
   318   1 H      0.806     0.334     0.628     1.245
   319   6 C      2.910    -0.089    30.221     9.014
   320   1 H      0.926     0.054     2.271     2.357
   321   6 C      2.927    -0.055    29.372     8.888
   322   1 H      0.926     0.099     1.792     2.093
   323   6 C      2.755     0.252    22.762     7.813
   324   8 O      0.856    -0.513    24.074     6.578
   325   7 N      2.681    -0.157    24.405     7.337
   326   1 H      0.860     0.219     1.013     1.576
   327   6 C      3.772     0.022    20.227     6.409
   328   1 H      0.925     0.074     2.039     2.233
   329   6 C      3.801    -0.077    21.970     6.673
   330   1 H      0.925     0.073     2.048     2.238
   331   1 H      0.925     0.030     2.593     2.518
   332   6 C      3.806    -0.085    22.113     6.694
   333   1 H      0.925     0.059     2.217     2.328
   334   1 H      0.925     0.071     2.077     2.253
   335   6 C      3.809    -0.100    22.408     6.738
   336   1 H      0.925     0.096     1.818     2.108
   337   1 H      0.925     0.062     2.174     2.306
   338   6 C      3.740    -0.065    21.834     6.667
   339   1 H      0.924     0.117     1.639     2.002
   340   1 H      0.924     0.135     1.494     1.912
   341   7 N      3.500    -0.147    24.178     7.303
   342   1 H      0.860     0.305     0.698     1.309
   343   1 H      0.860     0.308     0.690     1.302
   344   1 H      0.860     0.300     0.714     1.324
   345   6 C      2.740     0.271    22.422     7.753
   346   8 O      0.863    -0.488    23.525     6.503
   347   7 N      2.688    -0.166    24.596     7.366
   348   1 H      0.860     0.194     1.135     1.669
   349   6 C      3.786     0.034    20.018     6.373
   350   1 H      0.924     0.068     2.105     2.269
   351   6 C      3.799    -0.098    22.378     6.736
   352   1 H      0.925     0.022     2.703     2.571
   353   1 H      0.925     0.051     2.302     2.373
   354   6 C      2.692     0.378    20.591     7.426
   355   8 O      0.858    -0.584    25.718     6.799
   356   8 O      0.858    -0.626    26.756     6.935
   357   6 C      2.753     0.267    22.495     7.766
   358   8 O      0.861    -0.507    23.942     6.560
   359   7 N      2.683    -0.168    24.627     7.370
   360   1 H      0.860     0.202     1.098     1.641
   361   6 C      3.769    -0.003    20.672     6.480
   362   1 H      0.925     0.106     1.731     2.058
   363   6 C      3.729     0.115    18.790     6.188
   364   1 H      0.925     0.040     2.447     2.446
   365   6 C      3.752    -0.137    23.190     6.867
   366   1 H      0.924     0.076     2.021     2.223
   367   1 H      0.924     0.060     2.200     2.320
   368   1 H      0.925     0.059     2.209     2.324
   369   8 O      1.659    -0.483    22.518     6.406
   370   1 H      0.806     0.323     0.656     1.272
   371   6 C      2.729     0.263    22.567     7.777
   372   8 O      0.856    -0.471    23.147     6.450
   373   7 N      2.677    -0.204    25.448     7.492
   374   1 H      0.860     0.206     1.077     1.625
   375   6 C      3.777     0.022    20.221     6.407
   376   1 H      0.924     0.091     1.872     2.140
   377   6 C      3.801    -0.037    21.235     6.561
   378   1 H      0.924     0.049     2.335     2.390
   379   1 H      0.924     0.031     2.569     2.506
   380   6 C      3.804    -0.092    22.258     6.717
   381   1 H      0.925     0.035     2.512     2.478
   382   1 H      0.924     0.033     2.550     2.497
   383   6 C      2.687     0.370    20.720     7.449
   384   8 O      0.858    -0.587    25.800     6.810
   385   8 O      0.858    -0.675    28.035     7.099
   386   6 C      2.742     0.269    22.452     7.758
   387   8 O      0.857    -0.484    23.444     6.492
   388   7 N      2.679    -0.183    24.956     7.419
   389   1 H      0.860     0.202     1.098     1.641
   390   6 C      3.723    -0.039    21.382     6.603
   391   1 H      0.924     0.109     1.704     2.042
   392   1 H      0.924     0.111     1.688     2.032
   393   6 C      2.737     0.266    22.509     7.768
   394   8 O      0.863    -0.495    23.669     6.523
   395   7 N      2.688    -0.156    24.378     7.333
   396   1 H      0.860     0.196     1.129     1.664
   397   6 C      3.788     0.025    20.158     6.395
   398   1 H      0.925     0.059     2.215     2.327
   399   6 C      3.817    -0.083    22.073     6.687
   400   1 H      0.924     0.073     2.048     2.238
   401   1 H      0.925     0.061     2.187     2.313
   402   6 C      2.974    -0.012    28.313     8.728
   403   6 C      2.904    -0.050    29.243     8.867
   404   1 H      0.926     0.045     2.378     2.411
   405   6 C      2.908    -0.054    29.336     8.881
   406   1 H      0.926     0.051     2.304     2.374
   407   6 C      2.822     0.142    24.901     8.177
   408   8 O      1.658    -0.431    21.453     6.253
   409   1 H      0.805     0.350     0.587     1.204
   410   6 C      2.926    -0.070    29.738     8.943
   411   1 H      0.926     0.046     2.373     2.409
   412   6 C      2.905    -0.041    29.011     8.832
   413   1 H      0.926     0.051     2.309     2.376
   414   6 C      2.756     0.279    22.279     7.729
   415   8 O      0.861    -0.511    24.028     6.572
   416   7 N      2.693    -0.140    24.024     7.280
   417   1 H      0.860     0.216     1.028     1.588
   418   6 C      3.774     0.013    20.388     6.434
   419   1 H      0.925     0.084     1.937     2.176
   420   6 C      3.785    -0.081    22.058     6.690
   421   1 H      0.924     0.091     1.869     2.138
   422   1 H      0.924     0.060     2.197     2.318
   423   6 C      2.942    -0.010    28.276     8.721
   424   6 C      2.897    -0.044    29.092     8.843
   425   1 H      0.926     0.036     2.503     2.474
   426   6 C      2.899    -0.072    29.794     8.950
   427   1 H      0.926     0.015     2.815     2.624
   428   6 C      2.827     0.142    24.904     8.177
   429   8 O      1.661    -0.402    20.883     6.169
   430   1 H      0.805     0.333     0.630     1.247
   431   6 C      2.895    -0.070    29.733     8.940
   432   1 H      0.926     0.085     1.927     2.171
   433   6 C      2.899    -0.044    29.081     8.842
   434   1 H      0.926     0.058     2.224     2.332
   435   6 C      2.749     0.287    22.133     7.703
   436   8 O      0.866    -0.471    23.139     6.450
   437   7 N      2.689    -0.220    25.799     7.544
   438   1 H      0.860     0.242     0.916     1.500
   439   6 C      3.783     0.016    20.328     6.422
   440   1 H      0.924     0.062     2.172     2.304
   441   6 C      3.726     0.130    18.558     6.151
   442   1 H      0.924     0.032     2.557     2.501
   443   6 C      3.751    -0.112    22.710     6.796
   444   1 H      0.925     0.028     2.612     2.527
   445   1 H      0.925     0.041     2.433     2.439
   446   1 H      0.925     0.044     2.400     2.423
   447   8 O      1.660    -0.473    22.309     6.376
   448   1 H      0.805     0.317     0.673     1.289
   449   6 C      2.747     0.265    22.527     7.772
   450   8 O      0.859    -0.467    23.056     6.438
   451   7 N      2.683    -0.164    24.553     7.359
   452   1 H      0.860     0.219     1.013     1.577
   453   6 C      3.788     0.001    20.581     6.461
   454   1 H      0.925     0.097     1.815     2.107
   455   6 C      3.842    -0.039    21.231     6.555
   456   1 H      0.924     0.073     2.055     2.242
   457   6 C      3.749    -0.127    23.013     6.842
   458   1 H      0.925     0.033     2.540     2.492
   459   1 H      0.925     0.049     2.338     2.391
   460   1 H      0.925     0.075     2.034     2.230
   461   6 C      3.794    -0.079    22.021     6.682
   462   1 H      0.925     0.044     2.391     2.418
   463   1 H      0.925     0.056     2.251     2.346
   464   6 C      3.749    -0.125    22.964     6.835
   465   1 H      0.925     0.067     2.114     2.274
   466   1 H      0.925     0.044     2.402     2.424
   467   1 H      0.924     0.049     2.327     2.386
   468   6 C      2.752     0.279    22.284     7.730
   469   8 O      0.860    -0.484    23.430     6.490
   470   7 N      2.688    -0.162    24.505     7.352
   471   1 H      0.860     0.235     0.945     1.523
   472   6 C      3.740    -0.042    21.404     6.601
   473   1 H      0.925     0.067     2.124     2.279
   474   1 H      0.925     0.117     1.639     2.002
   475   6 C      2.751     0.270    22.447     7.758
   476   8 O      0.860    -0.493    23.638     6.519
   477   7 N      2.714    -0.157    24.403     7.337
   478   1 H      0.860     0.210     1.058     1.612
   479   6 C      3.806     0.017    20.284     6.411
   480   1 H      0.925     0.090     1.874     2.141
   481   6 C      3.846    -0.020    20.901     6.503
   482   1 H      0.925     0.052     2.298     2.371
   483   6 C      3.763    -0.103    22.520     6.764
   484   1 H      0.925     0.046     2.374     2.410
   485   1 H      0.925     0.041     2.439     2.442
   486   1 H      0.924     0.017     2.779     2.607
   487   6 C      3.813    -0.066    21.757     6.639
   488   1 H      0.925     0.050     2.318     2.381
   489   1 H      0.924     0.047     2.364     2.404
   490   6 C      3.750    -0.114    22.741     6.801
   491   1 H      0.924     0.043     2.411     2.428
   492   1 H      0.925     0.063     2.159     2.298
   493   1 H      0.925     0.026     2.649     2.545
   494   6 C      2.779     0.276    22.331     7.740
   495   8 O      0.859    -0.504    23.871     6.551
   496   7 N      2.687    -0.182    24.953     7.419
   497   1 H      0.860     0.226     0.983     1.553
   498   6 C      3.731    -0.019    21.006     6.542
   499   1 H      0.925     0.076     2.018     2.221
   500   1 H      0.925     0.088     1.894     2.152
   501   6 C      2.741     0.271    22.414     7.752
   502   8 O      0.857    -0.503    23.843     6.547
   503   7 N      2.684    -0.167    24.611     7.368
   504   1 H      0.860     0.238     0.930     1.511
   505   6 C      3.782     0.030    20.082     6.384
   506   1 H      0.925     0.048     2.348     2.396
   507   6 C      3.798    -0.089    22.204     6.709
   508   1 H      0.925     0.111     1.689     2.032
   509   1 H      0.925     0.107     1.724     2.053
   510   6 C      3.107     0.042    26.931     8.503
   511   7 N      2.755    -0.033    21.874     6.946
   512   1 H      0.860     0.254     0.868     1.459
   513   6 C      3.015     0.067    26.481     8.441
   514   1 H      0.926     0.150     1.390     1.844
   515   7 N      2.805    -0.012    21.490     6.885
   516   1 H      0.860     0.263     0.833     1.430
   517   6 C      2.985    -0.010    28.252     8.719
   518   1 H      0.926     0.145     1.423     1.865
   519   6 C      2.744     0.264    22.547     7.775
   520   8 O      0.859    -0.426    22.200     6.317
   521   7 N      2.708    -0.181    24.909     7.413
   522   1 H      0.860     0.190     1.160     1.687
   523   6 C      3.795     0.032    20.037     6.374
   524   1 H      0.924     0.080     1.979     2.200
   525   6 C      3.824    -0.080    22.015     6.677
   526   1 H      0.925     0.044     2.401     2.423
   527   1 H      0.924     0.059     2.207     2.323
   528   6 C      3.844    -0.016    20.821     6.491
   529   1 H      0.925     0.027     2.631     2.537
   530   6 C      3.763    -0.128    23.000     6.836
   531   1 H      0.924     0.052     2.296     2.370
   532   1 H      0.925     0.044     2.396     2.421
   533   1 H      0.925     0.045     2.382     2.413
   534   6 C      3.757    -0.134    23.125     6.856
   535   1 H      0.925     0.057     2.239     2.340
   536   1 H      0.925     0.070     2.085     2.258
   537   1 H      0.925     0.044     2.392     2.419
   538   6 C      2.751     0.276    22.334     7.739
   539   8 O      0.861    -0.507    23.940     6.560
   540   7 N      2.688    -0.180    24.909     7.412
   541   1 H      0.860     0.220     1.009     1.573
   542   6 C      3.792     0.018    20.281     6.413
   543   1 H      0.925     0.082     1.962     2.191
   544   6 C      3.814    -0.080    22.016     6.678
   545   1 H      0.924     0.049     2.338     2.391
   546   1 H      0.925     0.057     2.240     2.341
   547   6 C      3.851    -0.023    20.943     6.509
   548   1 H      0.925     0.025     2.660     2.551
   549   6 C      3.757    -0.133    23.107     6.854
   550   1 H      0.925     0.058     2.224     2.332
   551   1 H      0.924     0.041     2.436     2.441
   552   1 H      0.925     0.075     2.037     2.232
   553   6 C      3.752    -0.135    23.154     6.862
   554   1 H      0.925     0.022     2.697     2.568
   555   1 H      0.924     0.050     2.318     2.381
   556   1 H      0.925     0.074     2.041     2.234
   557   6 C      2.770     0.281    22.252     7.726
   558   8 O      0.859    -0.496    23.706     6.528
   559   7 N      2.687    -0.174    24.760     7.390
   560   1 H      0.860     0.234     0.950     1.527
   561   6 C      3.788     0.003    20.543     6.455
   562   1 H      0.924     0.082     1.959     2.189
   563   6 C      3.707     0.099    19.083     6.244
   564   1 H      0.925     0.031     2.573     2.508
   565   6 C      3.746    -0.130    23.077     6.852
   566   1 H      0.924     0.059     2.205     2.322
   567   1 H      0.924     0.063     2.170     2.304
   568   1 H      0.925     0.073     2.052     2.240
   569   8 O      1.650    -0.492    22.720     6.434
   570   1 H      0.805     0.337     0.620     1.236
   571   6 C      2.739     0.265    22.529     7.771
   572   8 O      0.858    -0.460    22.910     6.417
   573   7 N      2.685    -0.175    24.779     7.393
   574   1 H      0.860     0.212     1.046     1.602
   575   6 C      3.774     0.014    20.368     6.431
   576   1 H      0.924     0.087     1.906     2.159
   577   6 C      3.801    -0.080    22.028     6.682
   578   1 H      0.925     0.085     1.929     2.172
   579   1 H      0.924     0.072     2.061     2.245
   580   6 C      3.803    -0.079    22.010     6.679
   581   1 H      0.925     0.057     2.232     2.336
   582   1 H      0.925     0.051     2.304     2.374
   583   6 C      3.800    -0.095    22.317     6.726
   584   1 H      0.925     0.078     2.004     2.214
   585   1 H      0.924     0.090     1.883     2.146
   586   6 C      3.731    -0.056    21.671     6.645
   587   1 H      0.924     0.114     1.666     2.018
   588   1 H      0.924     0.112     1.678     2.026
   589   7 N      3.485    -0.152    24.274     7.317
   590   1 H      0.860     0.298     0.720     1.330
   591   1 H      0.860     0.306     0.696     1.307
   592   1 H      0.860     0.301     0.709     1.319
   593   6 C      2.733     0.259    22.641     7.790
   594   8 O      0.857    -0.503    23.854     6.548
   595   7 N      2.684    -0.164    24.550     7.359
   596   1 H      0.860     0.215     1.034     1.592
   597   6 C      3.782     0.017    20.306     6.419
   598   1 H      0.924     0.083     1.951     2.185
   599   6 C      3.680     0.076    19.519     6.328
   600   1 H      0.925     0.037     2.489     2.467
   601   1 H      0.925     0.053     2.288     2.365
   602   8 O      1.658    -0.475    22.369     6.385
   603   1 H      0.806     0.355     0.576     1.192
   604   6 C      2.756     0.260    22.627     7.789
   605   8 O      0.858    -0.485    23.457     6.493
   606   7 N      2.739    -0.094    23.074     7.134
   607   6 C      3.782    -0.011    20.785     6.495
   608   1 H      0.925     0.076     2.019     2.222
   609   1 H      0.925     0.053     2.288     2.366
   610   6 C      3.828    -0.077    21.942     6.665
   611   1 H      0.924     0.064     2.150     2.293
   612   1 H      0.925     0.064     2.157     2.297
   613   6 C      3.818    -0.070    21.818     6.648
   614   1 H      0.925     0.067     2.124     2.279
   615   1 H      0.925     0.078     2.004     2.214
   616   6 C      3.838     0.012    20.351     6.418
   617   1 H      0.925     0.091     1.874     2.141
   618   6 C      2.756     0.285    22.167     7.710
   619   8 O      0.866    -0.461    22.927     6.420
   620   7 N      2.690    -0.170    24.668     7.376
   621   1 H      0.860     0.200     1.108     1.649
   622   6 C      3.788     0.010    20.419     6.436
   623   1 H      0.925     0.102     1.764     2.077
   624   6 C      3.673     0.056    19.863     6.387
   625   1 H      0.924     0.057     2.238     2.340
   626   1 H      0.925     0.068     2.109     2.271
   627   8 O      1.652    -0.483    22.531     6.408
   628   1 H      0.806     0.346     0.598     1.215
   629   6 C      2.737     0.260    22.612     7.786
   630   8 O      0.859    -0.488    23.515     6.502
   631   7 N      2.683    -0.176    24.810     7.398
   632   1 H      0.860     0.215     1.031     1.590
   633   6 C      3.771     0.013    20.386     6.434
   634   1 H      0.925     0.095     1.827     2.114
   635   6 C      3.792    -0.086    22.140     6.701
   636   1 H      0.925     0.059     2.209     2.324
   637   1 H      0.925     0.075     2.035     2.231
   638   6 C      3.849    -0.012    20.755     6.480
   639   1 H      0.924     0.051     2.305     2.374
   640   6 C      3.760    -0.126    22.970     6.832
   641   1 H      0.925     0.044     2.401     2.423
   642   1 H      0.925     0.066     2.133     2.284
   643   1 H      0.925     0.038     2.471     2.458
   644   6 C      3.757    -0.141    23.263     6.877
   645   1 H      0.924     0.049     2.338     2.391
   646   1 H      0.925     0.050     2.314     2.379
   647   1 H      0.925     0.072     2.069     2.249
   648   6 C      2.747     0.261    22.604     7.785
   649   8 O      0.858    -0.494    23.650     6.520
   650   7 N      2.685    -0.154    24.332     7.326
   651   1 H      0.860     0.221     1.004     1.570
   652   6 C      3.789     0.025    20.169     6.396
   653   1 H      0.925     0.116     1.644     2.005
   654   6 C      3.809    -0.128    22.947     6.819
   655   1 H      0.925     0.092     1.864     2.135
   656   1 H      0.924     0.109     1.702     2.040
   657   6 C      2.745     0.295    21.996     7.679
   658   8 O      0.865    -0.494    23.646     6.520
   659   7 N      2.643    -0.295    27.592     7.801
   660   1 H      0.860     0.237     0.936     1.516
   661   1 H      0.860     0.236     0.939     1.518
   662   6 C      2.748     0.266    22.503     7.767
   663   8 O      0.858    -0.521    24.247     6.602
   664   7 N      2.680    -0.168    24.626     7.370
   665   1 H      0.860     0.230     0.966     1.540
   666   6 C      3.786     0.012    20.387     6.431
   667   1 H      0.925     0.083     1.948     2.183
   668   6 C      3.748    -0.133    23.120     6.858
   669   1 H      0.924     0.078     1.996     2.209
   670   1 H      0.924     0.056     2.241     2.341
   671   1 H      0.925     0.079     1.992     2.207
   672   6 C      2.748     0.280    22.251     7.724
   673   8 O      0.863    -0.511    24.020     6.571
   674   7 N      2.688    -0.181    24.925     7.415
   675   1 H      0.860     0.232     0.955     1.531
   676   6 C      3.786     0.030    20.090     6.384
   677   1 H      0.925     0.065     2.144     2.290
   678   6 C      3.774    -0.142    23.261     6.872
   679   1 H      0.924     0.073     2.048     2.238
   680   1 H      0.925     0.095     1.834     2.118
   681   1 H      0.925     0.066     2.133     2.284
   682   6 C      2.761     0.265    22.529     7.773
   683   8 O      0.863    -0.497    23.721     6.530
   684   7 N      2.688    -0.171    24.701     7.381
   685   1 H      0.860     0.238     0.931     1.511
   686   6 C      3.794     0.013    20.360     6.425
   687   1 H      0.925     0.109     1.709     2.044
   688   6 C      3.810    -0.083    22.072     6.687
   689   1 H      0.925     0.050     2.321     2.382
   690   1 H      0.924     0.076     2.020     2.223
   691   6 C      3.811    -0.091    22.224     6.710
   692   1 H      0.925     0.081     1.965     2.192
   693   1 H      0.924     0.065     2.145     2.291
   694   6 C      3.803    -0.093    22.279     6.720
   695   1 H      0.925     0.059     2.208     2.324
   696   1 H      0.924     0.075     2.027     2.226
   697   6 C      3.729    -0.057    21.698     6.650
   698   1 H      0.925     0.134     1.504     1.918
   699   1 H      0.925     0.123     1.592     1.973
   700   7 N      3.484    -0.155    24.338     7.327
   701   1 H      0.860     0.299     0.715     1.325
   702   1 H      0.860     0.297     0.722     1.331
   703   1 H      0.860     0.282     0.770     1.375
   704   6 C      2.744     0.260    22.624     7.788
   705   8 O      0.856    -0.508    23.963     6.563
   706   7 N      2.687    -0.196    25.248     7.463
   707   1 H      0.860     0.236     0.938     1.517
   708   6 C      3.788     0.017    20.298     6.417
   709   1 H      0.925     0.081     1.965     2.192
   710   6 C      3.679     0.074    19.547     6.333
   711   1 H      0.925     0.056     2.247     2.344
   712   1 H      0.925     0.049     2.335     2.390
   713   8 O      1.656    -0.467    22.198     6.360
   714   1 H      0.806     0.345     0.599     1.215
   715   6 C      2.759     0.256    22.689     7.800
   716   8 O      0.858    -0.526    24.361     6.617
   717   7 N      2.688    -0.168    24.634     7.371
   718   1 H      0.860     0.216     1.028     1.588
   719   6 C      3.798     0.029    20.085     6.381
   720   1 H      0.925     0.070     2.088     2.260
   721   6 C      3.804    -0.054    21.544     6.608
   722   1 H      0.925     0.048     2.347     2.396
   723   1 H      0.925     0.058     2.217     2.329
   724   6 C      3.798    -0.089    22.193     6.708
   725   1 H      0.924     0.035     2.513     2.479
   726   1 H      0.925     0.039     2.459     2.452
   727   6 C      2.685     0.355    20.974     7.495
   728   8 O      0.856    -0.660    27.636     7.048
   729   8 O      0.856    -0.650    27.373     7.015
   730   6 C      2.755     0.278    22.296     7.732
   731   8 O      0.862    -0.476    23.254     6.465
   732   7 N      2.690    -0.198    25.305     7.471
   733   1 H      0.860     0.219     1.016     1.579
   734   6 C      3.782     0.017    20.305     6.419
   735   1 H      0.924     0.081     1.970     2.195
   736   6 C      3.817    -0.096    22.316     6.723
   737   1 H      0.925     0.061     2.186     2.312
   738   1 H      0.925     0.086     1.919     2.166
   739   6 C      3.850    -0.016    20.834     6.492
   740   1 H      0.924     0.024     2.675     2.558
   741   6 C      3.763    -0.132    23.078     6.848
   742   1 H      0.924     0.074     2.040     2.233
   743   1 H      0.924     0.040     2.455     2.450
   744   1 H      0.925     0.057     2.231     2.336
   745   6 C      3.761    -0.128    22.998     6.836
   746   1 H      0.925     0.054     2.271     2.356
   747   1 H      0.925     0.028     2.616     2.529
   748   1 H      0.924     0.065     2.137     2.286
   749   6 C      2.742     0.280    22.255     7.724
   750   8 O      0.861    -0.495    23.683     6.525
   751   7 N      2.695    -0.206    25.476     7.496
   752   1 H      0.860     0.227     0.980     1.550
   753   6 C      3.789     0.052    19.715     6.324
   754   1 H      0.925     0.057     2.239     2.340
   755   6 C      3.815    -0.090    22.197     6.706
   756   1 H      0.925     0.029     2.594     2.519
   757   1 H      0.925     0.055     2.254     2.348
   758   6 C      2.688     0.368    20.762     7.457
   759   8 O      0.858    -0.670    27.890     7.081
   760   8 O      0.857    -0.638    27.080     6.977
   761   6 C      2.744     0.279    22.276     7.728
   762   8 O      0.860    -0.518    24.177     6.592
   763   7 N      2.685    -0.170    24.688     7.379
   764   1 H      0.860     0.208     1.064     1.616
   765   6 C      3.781     0.028    20.123     6.390
   766   1 H      0.925     0.073     2.050     2.239
   767   6 C      3.802    -0.078    21.986     6.676
   768   1 H      0.925     0.065     2.144     2.290
   769   1 H      0.924     0.058     2.220     2.330
   770   6 C      3.798    -0.079    22.019     6.681
   771   1 H      0.924     0.056     2.247     2.344
   772   1 H      0.925     0.057     2.238     2.339
   773   6 C      3.800    -0.088    22.179     6.705
   774   1 H      0.925     0.081     1.965     2.192
   775   1 H      0.925     0.063     2.167     2.302
   776   6 C      3.729    -0.054    21.642     6.641
   777   1 H      0.925     0.134     1.502     1.917
   778   1 H      0.925     0.136     1.489     1.908
   779   7 N      3.490    -0.125    23.709     7.232
   780   1 H      0.860     0.302     0.709     1.319
   781   1 H      0.860     0.271     0.805     1.406
   782   1 H      0.860     0.276     0.790     1.392
   783   6 C      2.742     0.271    22.421     7.753
   784   8 O      0.862    -0.511    24.019     6.571
   785   7 N      2.689    -0.173    24.738     7.387
   786   1 H      0.860     0.235     0.943     1.521
   787   6 C      3.784     0.016    20.316     6.420
   788   1 H      0.925     0.081     1.974     2.197
   789   6 C      3.751    -0.141    23.288     6.882
   790   1 H      0.925     0.068     2.107     2.270
   791   1 H      0.925     0.083     1.953     2.185
   792   1 H      0.925     0.072     2.061     2.245
   793   6 C      2.755     0.276    22.327     7.738
   794   8 O      0.860    -0.503    23.857     6.549
   795   7 N      2.696    -0.181    24.920     7.414
   796   1 H      0.860     0.211     1.051     1.606
   797   6 C      3.806     0.032    20.032     6.371
   798   1 H      0.924     0.086     1.921     2.168
   799   6 C      3.857    -0.015    20.811     6.488
   800   1 H      0.925     0.034     2.532     2.488
   801   6 C      3.762    -0.111    22.667     6.787
   802   1 H      0.924     0.037     2.484     2.465
   803   1 H      0.925     0.060     2.202     2.321
   804   1 H      0.925     0.041     2.436     2.441
   805   6 C      3.802    -0.076    21.945     6.669
   806   1 H      0.925     0.063     2.165     2.301
   807   1 H      0.925     0.048     2.341     2.393
   808   6 C      3.749    -0.112    22.702     6.796
   809   1 H      0.925     0.063     2.167     2.302
   810   1 H      0.925     0.025     2.652     2.547
   811   1 H      0.925     0.042     2.418     2.432
   812   6 C      2.758     0.268    22.468     7.762
   813   8 O      0.862    -0.510    24.011     6.570
   814   7 N      2.679    -0.173    24.742     7.388
   815   1 H      0.860     0.194     1.137     1.671
   816   6 C      3.741    -0.033    21.238     6.575
   817   1 H      0.925     0.101     1.776     2.084
   818   1 H      0.924     0.085     1.930     2.173
   819   6 C      2.744     0.293    22.030     7.685
   820   8 O      0.859    -0.470    23.127     6.448
   821   7 N      2.685    -0.163    24.519     7.354
   822   1 H      0.860     0.200     1.108     1.649
   823   6 C      3.778     0.020    20.267     6.414
   824   1 H      0.925     0.083     1.948     2.182
   825   6 C      3.794    -0.085    22.119     6.697
   826   1 H      0.925     0.079     1.993     2.208
   827   1 H      0.924     0.078     1.998     2.210
   828   6 C      3.799    -0.071    21.867     6.658
   829   1 H      0.925     0.050     2.314     2.379
   830   1 H      0.925     0.051     2.304     2.374
   831   6 C      3.733    -0.018    20.981     6.538
   832   1 H      0.925     0.086     1.920     2.167
   833   1 H      0.925     0.083     1.946     2.182
   834   7 N      2.713    -0.178    24.846     7.403
   835   1 H      0.860     0.234     0.946     1.524
   836   6 C      2.733     0.244    22.903     7.835
   837   7 N      2.684    -0.264    26.840     7.694
   838   1 H      0.860     0.250     0.884     1.473
   839   1 H      0.860     0.249     0.888     1.476
   840   7 N      2.662    -0.260    26.754     7.682
   841   1 H      0.860     0.238     0.931     1.511
   842   1 H      0.860     0.247     0.893     1.481
   843   6 C      2.746     0.268    22.483     7.764
   844   8 O      0.858    -0.492    23.602     6.514
   845   7 N      2.686    -0.182    24.939     7.417
   846   1 H      0.860     0.222     1.000     1.566
   847   6 C      3.787     0.047    19.806     6.339
   848   1 H      0.924     0.055     2.258     2.350
   849   6 C      3.814    -0.106    22.508     6.752
   850   1 H      0.925     0.090     1.882     2.146
   851   1 H      0.925     0.082     1.955     2.187
   852   6 C      2.744     0.290    22.076     7.693
   853   8 O      0.857    -0.519    24.218     6.598
   854   7 N      2.646    -0.276    27.136     7.737
   855   1 H      0.860     0.247     0.894     1.481
   856   1 H      0.860     0.241     0.919     1.502
   857   6 C      2.745     0.271    22.414     7.752
   858   8 O      0.859    -0.463    22.972     6.426
   859   7 N      2.684    -0.173    24.752     7.389
   860   1 H      0.860     0.184     1.190     1.709
   861   6 C      3.817     0.016    20.288     6.410
   862   1 H      0.925     0.113     1.674     2.024
   863   6 C      3.800    -0.014    20.829     6.498
   864   1 H      0.925     0.121     1.602     1.979
   865   1 H      0.925     0.054     2.267     2.355
   866  16 S      1.931    -0.269   152.647    20.795
   867   1 H      0.923     0.149     1.399     1.849
   868   6 C      2.749     0.259    22.630     7.790
   869   8 O      0.859    -0.457    22.861     6.410
   870   7 N      2.692    -0.163    24.536     7.357
   871   1 H      0.860     0.193     1.142     1.674
   872   6 C      3.792     0.029    20.097     6.384
   873   1 H      0.925     0.098     1.806     2.102
   874   6 C      3.805    -0.094    22.294     6.722
   875   1 H      0.924     0.075     2.033     2.230
   876   1 H      0.925     0.081     1.967     2.193
   877   6 C      2.742     0.280    22.253     7.724
   878   8 O      0.865    -0.515    24.123     6.585
   879   7 N      2.641    -0.256    26.662     7.669
   880   1 H      0.860     0.275     0.793     1.395
   881   1 H      0.860     0.238     0.930     1.511
   882   6 C      2.746     0.268    22.472     7.762
   883   8 O      0.870    -0.433    22.342     6.338
   884   7 N      2.692    -0.181    24.920     7.414
   885   1 H      0.860     0.161     1.328     1.805
   886   6 C      3.736    -0.049    21.538     6.623
   887   1 H      0.924     0.138     1.472     1.897
   888   1 H      0.924     0.116     1.644     2.005
   889   6 C      2.750     0.269    22.454     7.759
   890   8 O      0.870    -0.505    23.897     6.554
   891   7 N      2.690    -0.160    24.463     7.346
   892   1 H      0.860     0.208     1.066     1.617
   893   6 C      3.794     0.002    20.561     6.457
   894   1 H      0.925     0.103     1.755     2.072
   895   6 C      3.848    -0.026    20.997     6.518
   896   1 H      0.925     0.071     2.078     2.254
   897   6 C      3.763    -0.123    22.910     6.823
   898   1 H      0.924     0.038     2.480     2.463
   899   1 H      0.924     0.046     2.368     2.406
   900   1 H      0.925     0.060     2.203     2.321
   901   6 C      3.763    -0.127    22.987     6.834
   902   1 H      0.924     0.068     2.105     2.269
   903   1 H      0.925     0.055     2.255     2.348
   904   1 H      0.925     0.032     2.560     2.502
   905   6 C      2.747     0.286    22.162     7.708
   906   8 O      0.860    -0.460    22.919     6.419
   907   7 N      2.686    -0.188    25.084     7.438
   908   1 H      0.860     0.200     1.106     1.647
   909   6 C      3.794     0.009    20.425     6.436
   910   1 H      0.925     0.077     2.010     2.217
   911   6 C      3.851    -0.025    20.982     6.515
   912   1 H      0.925     0.039     2.459     2.452
   913   6 C      3.760    -0.115    22.755     6.800
   914   1 H      0.925     0.051     2.308     2.376
   915   1 H      0.925     0.041     2.438     2.442
   916   1 H      0.925     0.044     2.402     2.424
   917   6 C      3.802    -0.077    21.972     6.674
   918   1 H      0.925     0.034     2.524     2.485
   919   1 H      0.924     0.071     2.073     2.251
   920   6 C      3.750    -0.120    22.863     6.819
   921   1 H      0.925     0.065     2.143     2.289
   922   1 H      0.925     0.022     2.703     2.571
   923   1 H      0.925     0.049     2.330     2.387
   924   6 C      2.749     0.261    22.603     7.785
   925   8 O      0.857    -0.487    23.505     6.500
   926   7 N      2.697    -0.171    24.701     7.381
   927   1 H      0.860     0.223     0.997     1.564
   928   6 C      3.816     0.000    20.563     6.454
   929   1 H      0.925     0.087     1.904     2.158
   930   6 C      3.722     0.095    19.123     6.245
   931   1 H      0.925     0.053     2.289     2.366
   932   6 C      3.752    -0.130    23.052     6.847
   933   1 H      0.925     0.054     2.270     2.356
   934   1 H      0.925     0.067     2.123     2.278
   935   1 H      0.924     0.054     2.270     2.356
   936   8 O      1.657    -0.523    23.401     6.530
   937   1 H      0.806     0.327     0.644     1.261
   938   6 C      2.757     0.285    22.169     7.710
   939   8 O      0.859    -0.460    22.908     6.417
   940   7 N      2.704    -0.185    25.008     7.427
   941   1 H      0.860     0.227     0.977     1.549
   942   6 C      3.785     0.001    20.579     6.461
   943   1 H      0.925     0.105     1.738     2.062
   944   6 C      3.797    -0.094    22.296     6.723
   945   1 H      0.924     0.059     2.207     2.323
   946   1 H      0.925     0.095     1.835     2.118
   947   6 C      3.791    -0.078    22.001     6.680
   948   1 H      0.924     0.067     2.121     2.277
   949   1 H      0.925     0.046     2.373     2.409
   950   6 C      3.794    -0.105    22.521     6.758
   951   1 H      0.924     0.092     1.862     2.134
   952   1 H      0.924     0.102     1.771     2.081
   953   6 C      3.724    -0.058    21.730     6.656
   954   1 H      0.924     0.131     1.530     1.934
   955   1 H      0.925     0.125     1.573     1.961
   956   7 N      3.487    -0.136    23.941     7.267
   957   1 H      0.860     0.287     0.754     1.360
   958   1 H      0.860     0.280     0.775     1.379
   959   1 H      0.860     0.303     0.705     1.315
   960   6 C      2.741     0.266    22.514     7.769
   961   8 O      0.857    -0.482    23.395     6.485
   962   7 N      2.679    -0.201    25.367     7.480
   963   1 H      0.860     0.218     1.018     1.580
   964   6 C      3.782     0.031    20.075     6.382
   965   1 H      0.925     0.068     2.111     2.272
   966   6 C      3.800    -0.100    22.415     6.741
   967   1 H      0.924     0.034     2.525     2.485
   968   1 H      0.925     0.035     2.513     2.479
   969   6 C      2.684     0.375    20.652     7.437
   970   8 O      0.856    -0.650    27.373     7.015
   971   8 O      0.857    -0.614    26.456     6.896
   972   6 C      2.752     0.272    22.407     7.751
   973   8 O      0.859    -0.503    23.858     6.549
   974   7 N      2.685    -0.180    24.905     7.412
   975   1 H      0.860     0.210     1.055     1.609
   976   6 C      3.793     0.024    20.185     6.398
   977   1 H      0.925     0.082     1.960     2.189
   978   6 C      3.810    -0.059    21.628     6.620
   979   1 H      0.924     0.058     2.227     2.334
   980   1 H      0.925     0.069     2.101     2.267
   981   6 C      3.809    -0.096    22.331     6.727
   982   1 H      0.925     0.044     2.398     2.422
   983   1 H      0.925     0.028     2.612     2.527
   984   6 C      2.692     0.371    20.718     7.449
   985   8 O      0.857    -0.600    26.119     6.852
   986   8 O      0.857    -0.604    26.218     6.865
   987   6 C      2.748     0.258    22.655     7.794
   988   8 O      0.857    -0.488    23.519     6.502
   989   7 N      2.692    -0.183    24.973     7.422
   990   1 H      0.860     0.226     0.984     1.554
   991   6 C      3.788     0.022    20.225     6.405
   992   1 H      0.925     0.087     1.910     2.161
   993   6 C      3.762    -0.144    23.331     6.885
   994   1 H      0.925     0.073     2.053     2.241
   995   1 H      0.925     0.102     1.766     2.078
   996   1 H      0.924     0.080     1.977     2.199
   997   6 C      2.749     0.262    22.579     7.781
   998   8 O      0.861    -0.521    24.255     6.603
   999   7 N      2.694    -0.178    24.855     7.404
  1000   1 H      0.860     0.207     1.069     1.619
  1001   6 C      3.792     0.048    19.777     6.333
  1002   1 H      0.925     0.072     2.064     2.247
  1003   6 C      3.817    -0.057    21.576     6.611
  1004   1 H      0.925     0.030     2.580     2.512
  1005   1 H      0.925     0.071     2.073     2.252
  1006   6 C      3.799    -0.090    22.212     6.710
  1007   1 H      0.925     0.011     2.867     2.648
  1008   1 H      0.924     0.032     2.553     2.499
  1009   6 C      2.691     0.360    20.885     7.479
  1010   8 O      0.857    -0.620    26.621     6.918
  1011   8 O      0.856    -0.610    26.367     6.884
  1012   6 C      2.750     0.270    22.444     7.757
  1013   8 O      0.857    -0.523    24.303     6.610
  1014   7 N      2.686    -0.159    24.442     7.343
  1015   1 H      0.860     0.218     1.017     1.579
  1016   6 C      3.796     0.022    20.206     6.401
  1017   1 H      0.925     0.090     1.883     2.146
  1018   6 C      3.809    -0.082    22.052     6.685
  1019   1 H      0.924     0.086     1.918     2.166
  1020   1 H      0.925     0.069     2.096     2.264
  1021   6 C      3.802    -0.072    21.872     6.658
  1022   1 H      0.925     0.057     2.237     2.339
  1023   1 H      0.924     0.057     2.235     2.338
  1024   6 C      3.797    -0.090    22.222     6.712
  1025   1 H      0.924     0.082     1.963     2.191
  1026   1 H      0.925     0.075     2.030     2.228
  1027   6 C      3.729    -0.052    21.599     6.635
  1028   1 H      0.924     0.097     1.817     2.108
  1029   1 H      0.925     0.104     1.749     2.068
  1030   7 N      3.488    -0.148    24.190     7.305
  1031   1 H      0.860     0.317     0.666     1.278
  1032   1 H      0.860     0.305     0.698     1.309
  1033   1 H      0.860     0.302     0.708     1.318
  1034   6 C      2.749     0.260    22.611     7.786
  1035   8 O      0.857    -0.514    24.094     6.581
  1036   7 N      2.682    -0.202    25.397     7.485
  1037   1 H      0.860     0.229     0.971     1.544
  1038   6 C      3.784     0.018    20.296     6.417
  1039   1 H      0.924     0.071     2.079     2.255
  1040   6 C      3.812    -0.086    22.131     6.696
  1041   1 H      0.925     0.060     2.200     2.319
  1042   1 H      0.924     0.084     1.937     2.177
  1043   6 C      3.855    -0.005    20.632     6.460
  1044   1 H      0.925     0.027     2.627     2.535
  1045   6 C      3.786    -0.122    22.855     6.809
  1046   1 H      0.924     0.025     2.664     2.552
  1047   1 H      0.925     0.052     2.297     2.370
  1048   1 H      0.924     0.059     2.207     2.323
  1049   6 C      3.793    -0.137    23.134     6.849
  1050   1 H      0.925     0.048     2.349     2.397
  1051   1 H      0.924     0.071     2.079     2.255
  1052   1 H      0.925     0.054     2.267     2.355
  1053   6 C      2.752     0.282    22.219     7.719
  1054   8 O      0.863    -0.533    24.514     6.638
  1055   7 N      2.702    -0.174    24.766     7.391
  1056   1 H      0.860     0.220     1.012     1.576
  1057   6 C      3.806     0.044    19.829     6.339
  1058   1 H      0.925     0.073     2.048     2.238
  1059   6 C      3.829    -0.077    21.941     6.665
  1060   1 H      0.925     0.069     2.094     2.263
  1061   1 H      0.925     0.073     2.052     2.240
  1062   6 C      2.964     0.010    27.792     8.647
  1063   6 C      2.930    -0.042    29.052     8.839
  1064   1 H      0.926     0.023     2.685     2.562
  1065   6 C      2.911    -0.041    29.008     8.832
  1066   1 H      0.926     0.043     2.406     2.426
  1067   6 C      2.912    -0.027    28.680     8.782
  1068   1 H      0.926     0.049     2.337     2.391
  1069   6 C      2.919    -0.029    28.731     8.790
  1070   1 H      0.926     0.053     2.287     2.365
  1071   6 C      2.916    -0.047    29.163     8.856
  1072   1 H      0.926     0.036     2.498     2.472
  1073   6 C      2.751     0.274    22.361     7.743
  1074   8 O      0.861    -0.508    23.963     6.563
  1075   7 N      2.683    -0.203    25.406     7.486
  1076   1 H      0.860     0.208     1.066     1.617
  1077   6 C      3.782     0.036    19.985     6.368
  1078   1 H      0.925     0.089     1.884     2.146
  1079   6 C      3.815    -0.108    22.549     6.759
  1080   1 H      0.924     0.070     2.089     2.260
  1081   1 H      0.925     0.091     1.871     2.139
  1082   6 C      2.744     0.290    22.089     7.696
  1083   8 O      0.859    -0.468    23.090     6.443
  1084   7 N      2.638    -0.287    27.416     7.776
  1085   1 H      0.860     0.246     0.898     1.484
  1086   1 H      0.860     0.219     1.014     1.578
  1087   6 C      2.746     0.278    22.298     7.732
  1088   8 O      0.860    -0.467    23.071     6.440
  1089   7 N      2.695    -0.184    24.981     7.423
  1090   1 H      0.860     0.201     1.102     1.644
  1091   6 C      3.795     0.041    19.889     6.351
  1092   1 H      0.925     0.091     1.868     2.137
  1093   6 C      3.793    -0.070    21.840     6.655
  1094   1 H      0.924     0.065     2.142     2.289
  1095   1 H      0.925     0.072     2.068     2.249
  1096   6 C      3.803    -0.106    22.526     6.757
  1097   1 H      0.924     0.082     1.960     2.189
  1098   1 H      0.925     0.061     2.190     2.314
  1099   6 C      2.743     0.293    22.038     7.686
  1100   8 O      0.862    -0.518    24.185     6.594
  1101   7 N      2.642    -0.280    27.244     7.752
  1102   1 H      0.860     0.243     0.911     1.495
  1103   1 H      0.860     0.239     0.925     1.507
  1104   6 C      2.761     0.278    22.304     7.734
  1105   8 O      0.865    -0.512    24.047     6.575
  1106   7 N      2.683    -0.197    25.279     7.467
  1107   1 H      0.860     0.203     1.091     1.636
  1108   6 C      3.783     0.045    19.832     6.344
  1109   1 H      0.925     0.080     1.982     2.202
  1110   6 C      3.803    -0.087    22.155     6.701
  1111   1 H      0.924     0.045     2.390     2.417
  1112   1 H      0.925     0.042     2.427     2.436
  1113   6 C      2.686     0.367    20.779     7.460
  1114   8 O      0.857    -0.639    27.108     6.980
  1115   8 O      0.857    -0.588    25.821     6.813
  1116   6 C      2.758     0.261    22.593     7.784
  1117   8 O      0.858    -0.526    24.374     6.619
  1118   7 N      2.686    -0.167    24.604     7.367
  1119   1 H      0.860     0.194     1.139     1.672
  1120   6 C      3.801     0.026    20.136     6.389
  1121   1 H      0.925     0.088     1.903     2.157
  1122   6 C      3.841    -0.028    21.049     6.527
  1123   1 H      0.924     0.042     2.425     2.435
  1124   6 C      3.748    -0.127    23.003     6.841
  1125   1 H      0.925     0.049     2.327     2.386
  1126   1 H      0.925     0.057     2.234     2.337
  1127   1 H      0.925     0.068     2.108     2.270
  1128   6 C      3.749    -0.124    22.935     6.830
  1129   1 H      0.925     0.066     2.132     2.284
  1130   1 H      0.925     0.044     2.400     2.423
  1131   1 H      0.924     0.058     2.222     2.331
  1132   6 C      2.750     0.276    22.332     7.738
  1133   8 O      0.859    -0.456    22.827     6.406
  1134   7 N      2.674    -0.207    25.497     7.499
  1135   1 H      0.860     0.188     1.170     1.694
  1136   6 C      3.781     0.036    19.981     6.368
  1137   1 H      0.925     0.087     1.911     2.162
  1138   6 C      3.804    -0.091    22.240     6.714
  1139   1 H      0.925     0.024     2.678     2.559
  1140   1 H      0.925     0.038     2.474     2.460
  1141   6 C      2.688     0.377    20.621     7.432
  1142   8 O      0.858    -0.575    25.500     6.770
  1143   8 O      0.857    -0.614    26.453     6.896
  1144   6 C      2.747     0.274    22.363     7.743
  1145   8 O      0.858    -0.475    23.238     6.463
  1146   7 N      2.683    -0.186    25.030     7.430
  1147   1 H      0.860     0.190     1.157     1.685
  1148   6 C      3.782     0.020    20.253     6.411
  1149   1 H      0.924     0.090     1.880     2.144
  1150   6 C      3.749    -0.132    23.099     6.855
  1151   1 H      0.925     0.089     1.892     2.151
  1152   1 H      0.925     0.044     2.401     2.423
  1153   1 H      0.925     0.070     2.086     2.258
  1154   6 C      2.756     0.275    22.358     7.743
  1155   8 O      0.859    -0.484    23.438     6.491
  1156   7 N      2.698    -0.166    24.580     7.363
  1157   1 H      0.860     0.203     1.091     1.636
  1158   6 C      3.797     0.031    20.063     6.378
  1159   1 H      0.925     0.057     2.230     2.335
  1160   6 C      3.762    -0.127    22.986     6.834
  1161   1 H      0.925     0.074     2.045     2.236
  1162   1 H      0.925     0.062     2.176     2.307
[...]
  2292  H   0.958        N 2291 0.923
  2293  C   3.959        C 2295 0.980    N 2291 0.966    H 2294 0.950    C 2313 0.939
  2294  H   0.989        C 2293 0.950
  2295  C   3.986        C 2298 1.005    C 2293 0.980    H 2297 0.971    H 2296 0.970
  2296  H   0.996        C 2295 0.970
  2297  H   0.994        C 2295 0.971
  2298  C   3.983        C 2295 1.005    C 2301 0.990    H 2300 0.975    H 2299 0.973
  2299  H   0.994        C 2298 0.973
  2300  H   0.995        C 2298 0.975
  2301  C   3.944        C 2298 0.990    N 2304 0.977    H 2302 0.961    H 2303 0.961
  2302  H   0.996        C 2301 0.961
  2303  H   0.994        C 2301 0.961
  2304  N   3.464        C 2306 1.323    C 2301 0.977    H 2305 0.899    N 2310 0.101
  2305  H   0.944        N 2304 0.899
  2306  C   3.976        N 2304 1.323    N 2307 1.321    N 2310 1.301
  2307  N   3.389        C 2306 1.321    H 2309 0.916    H 2308 0.890
  2308  H   0.945        N 2307 0.890
  2309  H   0.951        N 2307 0.916
  2310  N   3.367        C 2306 1.301    H 2311 0.930    H 2312 0.855    N 2304 0.101
  2311  H   0.957        N 2310 0.930
  2312  H   0.930        N 2310 0.855
  2313  C   3.957        O 2314 1.594    N 2315 1.349    C 2293 0.939
  2314  O   1.928        C 2313 1.594    N 2315 0.205
  2315  N   3.488        C 2313 1.349    C 2317 0.947    H 2316 0.891    O 2314 0.205
  2316  H   0.950        N 2315 0.891
  2317  C   3.950        C 2319 0.991    H 2318 0.954    N 2315 0.947    C 2323 0.946
  2318  H   0.992        C 2317 0.954
  2319  C   3.982        C 2317 0.991    H 2321 0.981    H 2320 0.978    H 2322 0.975
  2320  H   0.997        C 2319 0.978
  2321  H   0.996        C 2319 0.981
  2322  H   0.994        C 2319 0.975
  2323  C   3.960        O 2324 1.593    N 2325 1.350    C 2317 0.946
  2324  O   1.954        C 2323 1.593    N 2325 0.205
  2325  N   3.489        C 2323 1.350    C 2327 0.952    H 2326 0.893    O 2324 0.205
  2326  H   0.945        N 2325 0.893
  2327  C   3.951        C 2329 0.999    N 2325 0.952    H 2328 0.945    C 2345 0.925
  2328  H   0.989        C 2327 0.945
  2329  C   3.981        C 2327 0.999    C 2332 0.999    H 2330 0.967    H 2331 0.962
  2330  H   0.996        C 2329 0.967
  2331  H   0.993        C 2329 0.962
  2332  C   3.986        C 2335 1.008    C 2329 0.999    H 2334 0.972    H 2333 0.970
  2333  H   0.993        C 2332 0.970
  2334  H   0.996        C 2332 0.972
  2335  C   3.984        C 2332 1.008    C 2338 1.001    H 2336 0.974    H 2337 0.966
  2336  H   0.995        C 2335 0.974
  2337  H   0.992        C 2335 0.966
  2338  C   3.910        C 2335 1.001    H 2339 0.964    H 2340 0.963    N 2341 0.960
  2339  H   0.984        C 2338 0.964
  2340  H   0.982        C 2338 0.963
  2341  N   3.666        C 2338 0.960    H 2343 0.897    H 2344 0.895    H 2342 0.893
  2342  H   0.907        N 2341 0.893
  2343  H   0.911        N 2341 0.897
  2344  H   0.912        N 2341 0.895
  2345  C   3.946        O 2346 1.600    N 2347 1.329    C 2327 0.925
  2346  O   1.967        C 2345 1.600    N 2347 0.194
  2347  N   3.499        C 2345 1.329    C 2349 0.985    H 2348 0.916    O 2346 0.194
  2348  H   0.953        N 2347 0.916
  2349  C   3.960        N 2347 0.985    C 2351 0.981    H 2350 0.942    C 2369 0.931
  2350  H   0.987        C 2349 0.942
  2351  C   3.980        C 2354 1.006    C 2349 0.981    H 2352 0.969    H 2353 0.962
  2352  H   0.995        C 2351 0.969
  2353  H   0.990        C 2351 0.962
  2354  C   3.987        C 2357 1.011    C 2351 1.006    H 2356 0.974    H 2355 0.959
  2355  H   0.991        C 2354 0.959
  2356  H   0.997        C 2354 0.974
  2357  C   3.943        C 2354 1.011    H 2359 0.963    H 2358 0.960    N 2360 0.949
  2358  H   0.990        C 2357 0.960
  2359  H   0.993        C 2357 0.963
  2360  N   3.474        C 2362 1.358    C 2357 0.949    H 2361 0.879    N 2366 0.108    N 2363 0.103
  2361  H   0.943        N 2360 0.879
  2362  C   3.978        N 2360 1.358    N 2366 1.302    N 2363 1.290
  2363  N   3.363        C 2362 1.290    H 2364 0.924    H 2365 0.905    N 2360 0.103
  2364  H   0.942        N 2363 0.924
  2365  H   0.932        N 2363 0.905
  2366  N   3.378        C 2362 1.302    H 2367 0.920    H 2368 0.891    N 2360 0.108
  2367  H   0.946        N 2366 0.920
  2368  H   0.950        N 2366 0.891
  2369  C   3.936        O 2370 1.589    N 2371 1.307    C 2349 0.931
  2370  O   1.952        C 2369 1.589    N 2371 0.192
  2371  N   3.490        C 2369 1.307    C 2373 0.995    H 2372 0.907    O 2370 0.192
  2372  H   0.949        N 2371 0.907
  2373  C   3.963        N 2371 0.995    C 2375 0.957    H 2374 0.952    C 2385 0.919
  2374  H   0.994        C 2373 0.952
  2375  C   3.985        C 2381 1.011    C 2377 1.010    H 2376 0.960    C 2373 0.957
  2376  H   0.996        C 2375 0.960
  2377  C   3.993        C 2375 1.010    H 2380 0.984    H 2378 0.983    H 2379 0.977
  2378  H   0.998        C 2377 0.983
  2379  H   0.997        C 2377 0.977
  2380  H   0.999        C 2377 0.984
  2381  C   3.975        C 2375 1.011    H 2384 0.976    H 2383 0.976    H 2382 0.974
  2382  H   0.997        C 2381 0.974
  2383  H   0.995        C 2381 0.976
  2384  H   0.999        C 2381 0.976
  2385  C   3.950        O 2386 1.638    N 2387 1.314    C 2373 0.919
  2386  O   1.965        C 2385 1.638    N 2387 0.201
  2387  N   3.457        C 2385 1.314    C 2389 0.950    H 2388 0.893    O 2386 0.201
  2388  H   0.948        N 2387 0.893
  2389  C   3.955        C 2391 0.984    H 2390 0.951    N 2387 0.950    C 2404 0.923
  2390  H   0.995        C 2389 0.951
  2391  C   3.987        C 2397 1.008    C 2393 0.993    C 2389 0.984    H 2392 0.949
  2392  H   0.993        C 2391 0.949
  2393  C   3.988        C 2391 0.993    H 2396 0.984    H 2395 0.979    H 2394 0.974
  2394  H   0.993        C 2393 0.974
  2395  H   0.998        C 2393 0.979
  2396  H   0.998        C 2393 0.984
  2397  C   3.996        C 2400 1.012    C 2391 1.008    H 2398 0.973    H 2399 0.967
  2398  H   0.999        C 2397 0.973
  2399  H   0.998        C 2397 0.967
  2400  C   3.992        C 2397 1.012    H 2402 0.986    H 2403 0.984    H 2401 0.978
  2401  H   0.997        C 2400 0.978
  2402  H   0.999        C 2400 0.986
  2403  H   0.998        C 2400 0.984
  2404  C   3.943        O 2405 1.672    N 2406 1.271    C 2389 0.923
  2405  O   2.021        C 2404 1.672    N 2406 0.202
  2406  N   3.413        C 2404 1.271    C 2408 0.964    H 2407 0.870    O 2405 0.202
  2407  H   0.935        N 2406 0.870
  2408  C   3.967        C 2418 0.977    N 2406 0.964    C 2410 0.953    H 2409 0.951
  2409  H   0.990        C 2408 0.951
  2410  C   3.964        C 2412 1.009    O 2416 0.989    H 2411 0.953    C 2408 0.953
  2411  H   0.998        C 2410 0.953
  2412  C   3.983        C 2410 1.009    H 2413 0.979    H 2414 0.979    H 2415 0.974
  2413  H   0.994        C 2412 0.979
  2414  H   0.998        C 2412 0.979
  2415  H   0.993        C 2412 0.974
  2416  O   1.930        C 2410 0.989    H 2417 0.861
  2417  H   0.879        O 2416 0.861
  2418  C   3.950        O 2419 1.566    N 2420 1.315    C 2408 0.977
  2419  O   1.923        C 2418 1.566    N 2420 0.190
  2420  N   3.490        C 2418 1.315    C 2422 0.995    H 2421 0.895    O 2419 0.190
  2421  H   0.951        N 2420 0.895
  2422  C   3.960        N 2420 0.995    C 2424 0.967    H 2423 0.942    C 2432 0.902
  2423  H   0.990        C 2422 0.942
  2424  C   3.964        O 2430 1.005    C 2426 0.989    C 2422 0.967    H 2425 0.963
  2425  H   0.999        C 2424 0.963
  2426  C   3.987        C 2424 0.989    H 2427 0.987    H 2429 0.985    H 2428 0.982
  2427  H   0.998        C 2426 0.987
  2428  H   0.996        C 2426 0.982
  2429  H   0.997        C 2426 0.985
  2430  O   1.945        C 2424 1.005    H 2431 0.847
  2431  H   0.884        O 2430 0.847
  2432  C   3.945        O 2433 1.642    N 2434 1.311    C 2422 0.902
  2433  O   1.986        C 2432 1.642    N 2434 0.190
  2434  N   3.462        C 2432 1.311    C 2436 0.969    H 2435 0.906    O 2433 0.190
  2435  H   0.951        N 2434 0.906
  2436  C   3.957        C 2438 0.973    N 2434 0.969    H 2437 0.946    C 2452 0.936
  2437  H   0.992        C 2436 0.946
  2438  C   3.980        C 2441 0.999    C 2436 0.973    H 2440 0.961    H 2439 0.959
  2439  H   0.994        C 2438 0.959
  2440  H   0.994        C 2438 0.961
  2441  C   3.984        C 2450 1.445    C 2442 1.407    C 2438 0.999
  2442  C   3.986        C 2444 1.420    C 2441 1.407    H 2443 0.969    C 2448 0.129
  2443  H   0.998        C 2442 0.969
  2444  C   3.987        C 2446 1.448    C 2442 1.420    H 2445 0.969    C 2450 0.118
  2445  H   0.998        C 2444 0.969
  2446  C   3.988        C 2448 1.460    C 2444 1.448    H 2447 0.966
  2447  H   0.997        C 2446 0.966
  2448  C   3.988        C 2446 1.460    C 2450 1.397    H 2449 0.971    C 2442 0.129
  2449  H   0.998        C 2448 0.971
  2450  C   3.985        C 2441 1.445    C 2448 1.397    H 2451 0.964    C 2444 0.118
  2451  H   0.999        C 2450 0.964
  2452  C   3.945        O 2453 1.619    N 2454 1.304    C 2436 0.936
  2453  O   1.969        C 2452 1.619    N 2454 0.191
  2454  N   3.466        C 2452 1.304    C 2456 0.981    H 2455 0.897    O 2453 0.191
  2455  H   0.949        N 2454 0.897
  2456  C   3.959        C 2458 0.982    N 2454 0.981    H 2457 0.955    C 2476 0.908
  2457  H   0.995        C 2456 0.955
  2458  C   3.985        C 2461 1.000    C 2456 0.982    H 2460 0.971    H 2459 0.971
  2459  H   0.994        C 2458 0.971
  2460  H   0.994        C 2458 0.971
  2461  C   3.985        C 2458 1.000    C 2464 0.998    H 2462 0.977    H 2463 0.966
  2462  H   0.998        C 2461 0.977
  2463  H   0.995        C 2461 0.966
  2464  C   3.961        C 2461 0.998    N 2467 0.982    H 2466 0.965    H 2465 0.964
  2465  H   0.994        C 2464 0.964
  2466  H   0.994        C 2464 0.965
  2467  N   3.458        C 2469 1.302    C 2464 0.982    H 2468 0.914    N 2473 0.104
  2468  H   0.948        N 2467 0.914
  2469  C   3.979        N 2473 1.334    N 2470 1.314    N 2467 1.302
  2470  N   3.382        C 2469 1.314    H 2472 0.921    H 2471 0.899    N 2473 0.103
  2471  H   0.921        N 2470 0.899
  2472  H   0.948        N 2470 0.921
  2473  N   3.388        C 2469 1.334    H 2475 0.914    H 2474 0.892    N 2467 0.104    N 2470 0.103
  2474  H   0.916        N 2473 0.892
  2475  H   0.937        N 2473 0.914
  2476  C   3.936        O 2477 1.634    N 2478 1.317    C 2456 0.908
  2477  O   1.958        C 2476 1.634    N 2478 0.201
  2478  N   3.458        C 2476 1.317    C 2480 0.964    H 2479 0.884    O 2477 0.201
  2479  H   0.941        N 2478 0.884
  2480  C   3.967        C 2482 0.970    N 2478 0.964    C 2490 0.952    H 2481 0.951
  2481  H   0.992        C 2480 0.951
  2482  C   3.952        O 2488 0.988    C 2484 0.977    C 2480 0.970    H 2483 0.961
  2483  H   0.998        C 2482 0.961
  2484  C   3.983        H 2487 0.986    H 2486 0.986    H 2485 0.979    C 2482 0.977
  2485  H   0.992        C 2484 0.979
  2486  H   0.998        C 2484 0.986
  2487  H   0.995        C 2484 0.986
  2488  O   1.949        C 2482 0.988    H 2489 0.873
  2489  H   0.889        O 2488 0.873
  2490  C   3.955        O 2491 1.589    N 2492 1.340    C 2480 0.952
  2491  O   1.907        C 2490 1.589    N 2492 0.199
  2492  N   3.494        C 2490 1.340    C 2494 0.986    H 2493 0.893    O 2491 0.199
  2493  H   0.943        N 2492 0.893
  2494  C   3.961        N 2492 0.986    C 2497 0.975    H 2495 0.948    H 2496 0.946
  2495  H   0.989        C 2494 0.948
  2496  H   0.988        C 2494 0.946
  2497  C   3.954        O 2498 1.591    N 2499 1.325    C 2494 0.975
  2498  O   1.899        C 2497 1.591    N 2499 0.194
  2499  N   3.482        C 2497 1.325    C 2501 0.972    H 2500 0.913    O 2498 0.194
  2500  H   0.952        N 2499 0.913
  2501  C   3.968        N 2499 0.972    H 2502 0.960    C 2503 0.949    C 2511 0.939
  2502  H   0.995        C 2501 0.960
  2503  C   3.961        O 2509 1.011    C 2505 0.984    H 2504 0.961    C 2501 0.949
  2504  H   0.999        C 2503 0.961
  2505  C   3.989        H 2506 0.985    C 2503 0.984    H 2507 0.984    H 2508 0.978
  2506  H   0.998        C 2505 0.985
  2507  H   0.996        C 2505 0.984
  2508  H   0.996        C 2505 0.978
  2509  O   1.951        C 2503 1.011    H 2510 0.843
  2510  H   0.890        O 2509 0.843
  2511  C   3.950        O 2512 1.692    N 2513 1.244    C 2501 0.939
  2512  O   2.008        C 2511 1.692    N 2513 0.201
  2513  N   3.424        C 2511 1.244    C 2515 0.961    H 2514 0.930    O 2512 0.201
  2514  H   0.960        N 2513 0.930
  2515  C   3.950        N 2513 0.961    C 2535 0.953    C 2517 0.952    H 2516 0.941
  2516  H   0.989        C 2515 0.941
  2517  C   3.982        C 2520 1.031    H 2519 0.971    H 2518 0.955    C 2515 0.952
  2518  H   0.992        C 2517 0.955
  2519  H   0.997        C 2517 0.971
  2520  C   3.966        C 2521 1.548    C 2534 1.198    C 2517 1.031
  2521  C   3.965        C 2520 1.548    N 2523 1.262    H 2522 0.965
  2522  H   0.997        C 2521 0.965
  2523  N   3.566        C 2521 1.262    C 2525 1.147    H 2524 0.930
  2524  H   0.961        N 2523 0.930
  2525  C   3.951        C 2526 1.346    C 2534 1.259    N 2523 1.147
  2526  C   3.985        C 2528 1.460    C 2525 1.346    H 2527 0.962    C 2532 0.127
  2527  H   0.996        C 2526 0.962
  2528  C   3.984        C 2526 1.460    C 2530 1.382    H 2529 0.967
  2529  H   0.995        C 2528 0.967
  2530  C   3.984        C 2532 1.485    C 2528 1.382    H 2531 0.968
  2531  H   0.996        C 2530 0.968
  2532  C   3.984        C 2530 1.485    C 2534 1.312    H 2533 0.968    C 2526 0.127
  2533  H   0.998        C 2532 0.968
  2534  C   3.978        C 2532 1.312    C 2525 1.259    C 2520 1.198
  2535  C   3.948        O 2536 1.614    N 2537 1.305    C 2515 0.953
  2536  O   1.947        C 2535 1.614    N 2537 0.192
  2537  N   3.471        C 2535 1.305    C 2539 0.975    H 2538 0.916    O 2536 0.192
  2538  H   0.959        N 2537 0.916
  2539  C   3.957        N 2537 0.975    C 2541 0.966    H 2540 0.952    C 2547 0.932
  2540  H   0.994        C 2539 0.952
  2541  C   3.977        H 2543 0.979    C 2539 0.966    H 2542 0.959    C 2544 0.931
  2542  H   0.996        C 2541 0.959
  2543  H   0.997        C 2541 0.979
  2544  C   3.937        O 2546 1.514    O 2545 1.463    C 2541 0.931
  2545  O   1.789        C 2544 1.463    O 2546 0.212
  2546  O   1.800        C 2544 1.514    O 2545 0.212
  2547  C   3.952        O 2548 1.620    N 2549 1.314    C 2539 0.932
  2548  O   1.936        C 2547 1.620    N 2549 0.194
  2549  N   3.479        C 2547 1.314    C 2551 0.976    H 2550 0.920    O 2548 0.194
  2550  H   0.953        N 2549 0.920
  2551  C   3.949        C 2553 0.977    N 2549 0.976    H 2552 0.940    C 2557 0.939
  2552  H   0.992        C 2551 0.940
  2553  C   3.968        H 2556 0.985    H 2554 0.980    C 2551 0.977    H 2555 0.975
  2554  H   0.991        C 2553 0.980
  2555  H   0.989        C 2553 0.975
  2556  H   0.995        C 2553 0.985
  2557  C   3.945        O 2558 1.644    N 2559 1.278    C 2551 0.939
  2558  O   1.957        C 2557 1.644    N 2559 0.193
  2559  N   3.462        C 2557 1.278    C 2561 0.981    H 2560 0.907    O 2558 0.193
  2560  H   0.958        N 2559 0.907
  2561  C   3.962        N 2559 0.981    C 2563 0.970    C 2578 0.960    H 2562 0.921
  2562  H   0.992        C 2561 0.921
  2563  C   3.982        C 2566 0.994    H 2565 0.972    C 2561 0.970    H 2564 0.954
  2564  H   0.995        C 2563 0.954
  2565  H   0.996        C 2563 0.972
  2566  C   3.982        C 2567 1.424    C 2576 1.407    C 2563 0.994
  2567  C   3.984        C 2569 1.444    C 2566 1.424    H 2568 0.960
  2568  H   0.996        C 2567 0.960
  2569  C   3.979        C 2567 1.444    C 2571 1.337    H 2570 0.970    C 2576 0.119
  2570  H   0.995        C 2569 0.970
  2571  C   3.937        C 2574 1.374    C 2569 1.337    O 2572 1.101
  2572  O   2.117        C 2571 1.101    H 2573 0.821
  2573  H   0.889        O 2572 0.821
  2574  C   3.985        C 2576 1.442    C 2571 1.374    H 2575 0.960
  2575  H   0.998        C 2574 0.960
  2576  C   3.989        C 2574 1.442    C 2566 1.407    H 2577 0.959    C 2569 0.119
  2577  H   0.999        C 2576 0.959
  2578  C   3.951        O 2579 1.592    N 2580 1.312    C 2561 0.960
  2579  O   1.902        C 2578 1.592    N 2580 0.192
  2580  N   3.481        C 2578 1.312    C 2582 0.981    H 2581 0.917    O 2579 0.192
  2581  H   0.962        N 2580 0.917
  2582  C   3.956        N 2580 0.981    C 2584 0.971    H 2583 0.967    C 2600 0.893
  2583  H   0.998        C 2582 0.967
  2584  C   3.989        C 2587 0.997    H 2585 0.977    H 2586 0.972    C 2582 0.971
  2585  H   0.998        C 2584 0.977
  2586  H   0.998        C 2584 0.972
  2587  C   3.993        C 2590 1.005    C 2584 0.997    H 2588 0.978    H 2589 0.977
  2588  H   0.997        C 2587 0.978
  2589  H   0.997        C 2587 0.977
  2590  C   3.983        C 2593 1.011    C 2587 1.005    H 2591 0.968    H 2592 0.968
  2591  H   0.993        C 2590 0.968
  2592  H   0.995        C 2590 0.968
  2593  C   3.912        C 2590 1.011    H 2595 0.965    N 2596 0.956    H 2594 0.955
  2594  H   0.986        C 2593 0.955
  2595  H   0.988        C 2593 0.965
  2596  N   3.655        C 2593 0.956    H 2598 0.894    H 2599 0.893    H 2597 0.890
  2597  H   0.910        N 2596 0.890
  2598  H   0.911        N 2596 0.894
  2599  H   0.911        N 2596 0.893
  2600  C   3.932        O 2601 1.513    O 2602 1.480    C 2582 0.893
  2601  O   1.809        C 2600 1.513    O 2602 0.218
  2602  O   1.773        C 2600 1.480    O 2601 0.218
  2603  O   2.096        C 2605 1.075    H 2604 0.819
  2604  H   0.886        O 2603 0.819
  2605  C   3.938        C 2606 1.364    C 2614 1.300    O 2603 1.075    C 2610 0.103
  2606  C   3.989        C 2608 1.498    C 2605 1.364    H 2607 0.963
  2607  H   0.999        C 2606 0.963
  2608  C   3.988        C 2606 1.498    C 2610 1.346    H 2609 0.968    C 2614 0.105
  2609  H   0.999        C 2608 0.968
  2610  C   3.989        C 2612 1.503    C 2608 1.346    H 2611 0.969    C 2605 0.103
  2611  H   0.998        C 2610 0.969
  2612  C   3.986        C 2610 1.503    C 2614 1.342    H 2613 0.957
  2613  H   0.998        C 2612 0.957
  2614  C   3.941        C 2612 1.342    C 2605 1.300    O 2615 1.099    C 2608 0.105
  2615  O   2.128        C 2614 1.099    H 2616 0.812
  2616  H   0.878        O 2615 0.812

molecular dipole:
                 x           y           z       tot (Debye)
 q only:      609.342     677.887     652.102
   full:      608.367     678.880     660.900    2861.895
molecular quadrupole (traceless):
                xx          xy          yy          xz          yz          zz
 q only:    -8696.108   73127.602    7692.447   70539.873   78688.989    1003.661
  q+dip:    -9760.363   72649.415    7216.382   71285.819   79699.291    2543.981
   full:    -9753.060   72643.873    7203.248   71290.720   79699.142    2549.811


           -------------------------------------------------
          | TOTAL ENERGY            -4109.201346181674 Eh   |
          | GRADIENT NORM               1.334254095130 Eh/α |
          | HOMO-LUMO GAP               1.549455454054 eV   |
           -------------------------------------------------

------------------------------------------------------------------------
 * finished run on 2020/06/09 at 03:27:48.242     
------------------------------------------------------------------------
 total:
 * wall-time:     0 d,  0 h,  7 min, 26.106 sec
 *  cpu-time:     0 d,  5 h, 35 min,  1.508 sec
 * ratio c/w:    45.060 speedup
 SCF:
 * wall-time:     0 d,  0 h,  6 min, 54.046 sec
 *  cpu-time:     0 d,  5 h, 22 min, 18.423 sec
 * ratio c/w:    46.706 speedup

