      -----------------------------------------------------------      
     |                   =====================                   |     
     |                           x T B                           |     
     |                   =====================                   |     
     |                         S. Grimme                         |     
     |          Mulliken Center for Theoretical Chemistry        |     
     |                    University of Bonn                     |     
      -----------------------------------------------------------      

   * xtb version 6.2.3 (d7bf61a) compiled by 'conda@06d140edd85e' on 2020-05-12

   xtb is free software: you can redistribute it and/or modify it under
   the terms of the GNU Lesser General Public License as published by
   the Free Software Foundation, either version 3 of the License, or
   (at your option) any later version.
   
   xtb is distributed in the hope that it will be useful,
   but WITHOUT ANY WARRANTY; without even the implied warranty of
   MERCHANTABILITY or FITNESS FOR A PARTICULAR PURPOSE.  See the
   GNU Lesser General Public License for more details.
   
   Cite this work as:
   * S. Grimme, C. Bannwarth, P. Shushkov, J. Chem. Theory Comput., 2017,
     13, 1989-2009. DOI: 10.1021/acs.jctc.7b00118
   * C. Bannwarth, S. Ehlert and S. Grimme., J. Chem. Theory Comput., 2019,
     15, 1652-1671. DOI: 10.1021/acs.jctc.8b01176
   * P. Pracht, E. Caldeweyher, S. Ehlert, S. Grimme, ChemRxiv, 2019, preprint.
     DOI: 10.26434/chemrxiv.8326202.v1
   
   for DFT-D4:
   * E. Caldeweyher, C. Bannwarth and S. Grimme, J. Chem. Phys., 2017,
     147, 034112. DOI: 10.1063/1.4993215
   * E. Caldeweyher, S. Ehlert, A. Hansen, H. Neugebauer, S. Spicher,
     C. Bannwarth and S. Grimme, J. Chem. Phys., 2019, 150, 154122.
     DOI: 10.1063/1.5090222
   
   for sTDA-xTB:
   * S. Grimme and C. Bannwarth, J. Chem. Phys., 2016, 145, 054103.
     DOI: 10.1063/1.4959605
   
   in the mass-spec context:
   * V. Asgeirsson, C. Bauer and S. Grimme, Chem. Sci., 2017, 8, 4879.
     DOI: 10.1039/c7sc00601b
   
   for metadynamics refer to:
   * S. Grimme, J. Chem. Theory Comput., 2019, 155, 2847-2862
     DOI: 10.1021/acs.jctc.9b00143
   
   with help from (in alphabetical order)
   C. Bannwarth, F. Bohle, G. Brandenburg, E. Caldeweyher, M. Checinski,
   S. Dohm, S. Ehlert, S. Ehrlich, F. März, H. Neugebauer, J. Pisarek,
   P. Pracht, P. Shushkov, and S. Spicher.
   
 * started run on 2020/05/27 at 22:43:10.908     

           -------------------------------------------------
          |                Calculation Setup                |
           -------------------------------------------------

          program call               : xtb host_27081.xyz --chrg +9 --uhf 0 --gbsa water
          hostname                   : gold58.cluster.local
          coordinate file            : host_27081.xyz
          omp threads                :                    64
          number of atoms            :                  2602
          number of electrons        :                  7192
          charge                     :                     9
          spin                       :                   0.0
          first test random number   :      0.92847752277676

########################################################################
[WARNING] Please study the warnings concerning your input carefully
-2- prog_main: XTBPATH is not set, using XTBHOME instead
-1- prog_main: XTBHOME is not set, using HOME instead
########################################################################
           ------------------------------------------------- 
          |                 G F N 2 - x T B                 |
          | Geometry, Frequencies, Noncovalent interactions |
          |            JCTC 2019 parametrisation            |
           ------------------------------------------------- 
             k(s)              :                1.8500
             k(p)              :                2.2300
             k(d)              :                2.2300
             k(f)              :                2.0000
             kEN (H0ij)        :               -2.0000
             D4 a1             :                0.5200
             D4 a2             :                5.0000
             D4 s6             :                1.0000
             D4 s8             :                2.7000
             D4 s9             :                5.0000
             alphaj            :                2.0000

  Z AO/shell   Hii/eV     exponent
  1     Wed Apr 25 08:07:45 CEST 2018   EN: 2.200 GM2: 0.406  GM3: 0.0800  RAES: 1.40
     1s    -10.707211    1.230000
  6     Wed Apr 25 08:07:45 CEST 2018   EN: 2.550 GM2: 0.538  GM3: 0.1500  RAES: 3.00
     2s    -13.970922    2.096432
     2p    -10.063292    1.800000
  7     Wed Apr 25 08:07:45 CEST 2018   EN: 3.040 GM2: 0.461  GM3:-0.0640  RAES: 1.90
     2s    -16.686243    2.339881
     2p    -12.523956    2.014332
  8     Wed Apr 25 08:07:45 CEST 2018   EN: 3.440 GM2: 0.452  GM3:-0.0517  RAES: 1.80
     2s    -20.229985    2.439742
     2p    -15.503117    2.137023
 16     Tue Apr 24 11:44:34 CEST 2018   EN: 2.580 GM2: 0.340  GM3:-0.0502  RAES: 3.10
     3s    -20.029654    1.981333
     3p    -11.377694    2.025643
     3d     -0.420282    1.702555

 Solvent             : water
 Using internal parameter file: .param_gbsa2_water
 Gsolv ref. state (COSMO-RS): gsolv [1 M gas/solution]
 temperature (mdtemp)       :    298.14999999999998     
 dielectric constant        :    80.200000000000003     
 rho                        :    1.0000000000000000     
 mass                       :    18.000000000000000     
 surface tension            :    15.568945408385856     
 probe radius               :   0.97531378999999996     
 Gshift (Eh)                :    1.8574431267947933E-003
 c1                         :    1.5524381700000001     
 soset                      :   0.13032636000000000     
 HB correction              :  T
           ------------------------------------------------- 
          |        Self-Consistent Charge Iterations        |
           ------------------------------------------------- 

          ...................................................
          :                      SETUP                      :
          :.................................................:
          :  # basis functions                6511          :
          :  # atomic orbitals                6505          :
          :  # shells                         3899          :
          :  # electrons                      7192          :
          :  max. iterations                   250          :
          :  Hamiltonian                  GFN2-xTB          :
          :  restarted?                      false          :
          :  GBSA solvation                   true          :
          :  PC potential                    false          :
          :  electronic temp.          300.0000000     K    :
          :  accuracy                    1.0000000          :
          :  -> integral cutoff          0.2500000E+02      :
          :  -> integral neglect         0.1000000E-07      :
          :  -> SCF convergence          0.1000000E-05 Eh   :
          :  -> wf. convergence          0.1000000E-03 e    :
          :  Broyden damping             0.4000000          :
          ...................................................

 iter      E             dE          RMSdq      gap      omega  full diag
   1  -4120.3399884 -0.412034E+04  0.427E+00    2.51       0.0  T
   2  -4132.5629203 -0.122229E+02  0.226E+00    2.47       1.0  T
   3  -4133.0376429 -0.474723E+00  0.119E+00    2.39       1.0  T
   4  -4133.0957596 -0.581167E-01  0.294E-01    2.01       1.0  T
   5  -4133.2056980 -0.109938E+00  0.145E-01    2.02       1.0  T
   6  -4133.2223915 -0.166935E-01  0.750E-02    2.06       1.0  T
   7  -4133.2251961 -0.280460E-02  0.389E-02    2.06       1.0  T
   8  -4133.2263286 -0.113251E-02  0.169E-02    2.04       1.0  T
   9  -4133.2265270 -0.198336E-03  0.103E-02    2.03       1.0  T
  10  -4133.2266165 -0.895195E-04  0.550E-03    2.02       1.0  T
  11  -4133.2266403 -0.237972E-04  0.284E-03    2.01       1.0  T
  12  -4133.2266479 -0.765424E-05  0.157E-03    2.01       1.2  T
  13  -4133.2266501 -0.220418E-05  0.866E-04    2.01       2.3  T
  14  -4133.2266508 -0.679399E-06  0.453E-04    2.01       4.3  T
  15  -4133.2266510 -0.186236E-06  0.243E-04    2.01       8.1  T

   *** convergence criteria satisfied after 15 iterations ***

         #    Occupation            Energy/Eh            Energy/eV
      -------------------------------------------------------------
         1        2.0000           -0.7602531             -20.6875
       ...           ...                  ...                  ...
      3590        2.0000           -0.3592809              -9.7765
      3591        2.0000           -0.3588231              -9.7641
      3592        2.0000           -0.3584810              -9.7548
      3593        2.0000           -0.3576029              -9.7309
      3594        2.0000           -0.3555198              -9.6742
      3595        2.0000           -0.3538929              -9.6299
      3596        2.0000           -0.3522843              -9.5861 (HOMO)
      3597                         -0.2784638              -7.5774 (LUMO)
      3598                         -0.2686303              -7.3098
      3599                         -0.2677417              -7.2856
      3600                         -0.2649674              -7.2101
      3601                         -0.2640937              -7.1864
       ...                                ...                  ...
      6505                          0.8428930              22.9363
      -------------------------------------------------------------
                  HL-Gap            0.0738205 Eh            2.0088 eV
             Fermi-level           -0.3153741 Eh           -8.5818 eV

 SCC (total)                   0 d,  0 h,  6 min, 46.808 sec
 SCC setup                      ...        0 min,  3.109 sec (  0.764%)
 Dispersion                     ...        0 min,  1.993 sec (  0.490%)
 integral evaluation            ...        0 min, 11.499 sec (  2.827%)
 zeroth order Hamiltonian       ...        0 min,  0.341 sec (  0.084%)
 iterations                     ...        6 min, 12.504 sec ( 91.568%)
 molecular gradient             ...        0 min, 16.791 sec (  4.128%)
 printout                       ...        0 min,  0.569 sec (  0.140%)

         :::::::::::::::::::::::::::::::::::::::::::::::::::::
         ::                     SUMMARY                     ::
         :::::::::::::::::::::::::::::::::::::::::::::::::::::
         :: total energy           -4085.262069817854 Eh    ::
         :: total w/o Gsasa/hb     -4084.856047156903 Eh    ::
         :: gradient norm              1.330525763313 Eh/a0 ::
         :: HOMO-LUMO gap              2.008759335400 eV    ::
         ::.................................................::
         :: SCC energy             -4133.296313436796 Eh    ::
         :: -> isotropic ES           14.026120863319 Eh    ::
         :: -> anisotropic ES         -0.733804757026 Eh    ::
         :: -> anisotropic XC          1.155319845672 Eh    ::
         :: -> dispersion             -3.869197140604 Eh    ::
         :: -> Gsolv                  -3.949207817477 Eh    ::
         ::    -> Gborn               -3.543185156526 Eh    ::
         ::    -> Gsasa               -0.071519868534 Eh    ::
         ::    -> Ghb                 -0.336360235545 Eh    ::
         ::    -> Gshift               0.001857443127 Eh    ::
         :: repulsion energy          47.507391214137 Eh    ::
         :: add. restraining           0.000000000000 Eh    ::
         :::::::::::::::::::::::::::::::::::::::::::::::::::::

           -------------------------------------------------
          |                Property Printout                |
           -------------------------------------------------

    * Orbital Energies and Occupations

         #    Occupation            Energy/Eh            Energy/eV
      -------------------------------------------------------------
         1        2.0000           -0.7602531             -20.6875
       ...           ...                  ...                  ...
      3584        2.0000           -0.3663535              -9.9690
      3585        2.0000           -0.3658604              -9.9556
      3586        2.0000           -0.3651570              -9.9364
      3587        2.0000           -0.3635669              -9.8932
      3588        2.0000           -0.3627643              -9.8713
      3589        2.0000           -0.3608386              -9.8189
      3590        2.0000           -0.3592809              -9.7765
      3591        2.0000           -0.3588231              -9.7641
      3592        2.0000           -0.3584810              -9.7548
      3593        2.0000           -0.3576029              -9.7309
      3594        2.0000           -0.3555198              -9.6742
      3595        2.0000           -0.3538929              -9.6299
      3596        2.0000           -0.3522843              -9.5861 (HOMO)
      3597                         -0.2784638              -7.5774 (LUMO)
      3598                         -0.2686303              -7.3098
      3599                         -0.2677417              -7.2856
      3600                         -0.2649674              -7.2101
      3601                         -0.2640937              -7.1864
      3602                         -0.2615653              -7.1176
      3603                         -0.2614872              -7.1154
      3604                         -0.2610063              -7.1023
      3605                         -0.2598561              -7.0710
      3606                         -0.2593064              -7.0561
      3607                         -0.2581492              -7.0246
       ...                                ...                  ...
      6505                          0.8428930              22.9363
      -------------------------------------------------------------
                  HL-Gap            0.0738205 Eh            2.0088 eV
             Fermi-level           -0.3153741 Eh           -8.5818 eV

     #   Z        covCN         q      C6AA      α(0)
     1   7 N      3.495    -0.132    23.860     7.255
     2   1 H      0.860     0.306     0.695     1.306
     3   1 H      0.860     0.299     0.716     1.325
     4   1 H      0.860     0.312     0.679     1.291
     5   6 C      3.796    -0.029    21.100     6.541
     6   1 H      0.925     0.110     1.694     2.035
     7   6 C      3.823    -0.097    22.328     6.724
     8   1 H      0.924     0.106     1.733     2.059
     9   1 H      0.925     0.095     1.836     2.119
    10   6 C      3.805    -0.019    20.917     6.511
    11   1 H      0.925     0.052     2.298     2.371
    12   1 H      0.925     0.072     2.060     2.245
    13  16 S      1.964    -0.193   149.238    20.561
    14   6 C      3.741    -0.053    21.596     6.630
    15   1 H      0.925     0.040     2.455     2.450
    16   1 H      0.924     0.055     2.263     2.353
    17   1 H      0.924     0.038     2.472     2.459
    18   6 C      2.754     0.263    22.562     7.778
    19   8 O      0.860    -0.437    22.423     6.349
    20   7 N      2.691    -0.138    23.985     7.274
    21   1 H      0.860     0.203     1.092     1.637
    22   6 C      3.795     0.017    20.299     6.416
    23   1 H      0.925     0.104     1.745     2.066
    24   6 C      3.826    -0.107    22.529     6.754
    25   1 H      0.924     0.073     2.055     2.242
    26   1 H      0.924     0.088     1.897     2.154
    27   6 C      2.751     0.273    22.384     7.747
    28   8 O      0.858    -0.528    24.417     6.625
    29   7 N      2.644    -0.266    26.902     7.703
    30   1 H      0.860     0.259     0.850     1.444
    31   1 H      0.860     0.250     0.884     1.473
    32   6 C      2.744     0.257    22.679     7.798
    33   8 O      0.861    -0.512    24.041     6.574
    34   7 N      2.688    -0.153    24.307     7.322
    35   1 H      0.860     0.216     1.029     1.589
    36   6 C      3.790     0.004    20.526     6.452
    37   1 H      0.925     0.099     1.792     2.093
    38   6 C      3.853    -0.036    21.183     6.546
    39   1 H      0.925     0.075     2.028     2.227
    40   6 C      3.755    -0.133    23.109     6.854
    41   1 H      0.924     0.068     2.104     2.268
    42   1 H      0.925     0.046     2.375     2.410
    43   1 H      0.924     0.049     2.331     2.388
    44   6 C      3.803    -0.076    21.958     6.671
    45   1 H      0.925     0.048     2.340     2.392
    46   1 H      0.924     0.066     2.135     2.285
    47   6 C      3.748    -0.113    22.733     6.800
    48   1 H      0.925     0.036     2.497     2.471
    49   1 H      0.925     0.037     2.494     2.470
    50   1 H      0.925     0.045     2.389     2.417
    51   6 C      2.745     0.278    22.292     7.731
    52   8 O      0.860    -0.498    23.739     6.532
    53   7 N      2.688    -0.162    24.499     7.351
    54   1 H      0.860     0.226     0.985     1.554
    55   6 C      3.790     0.025    20.169     6.396
    56   1 H      0.924     0.092     1.858     2.131
    57   6 C      3.815    -0.082    22.059     6.685
    58   1 H      0.925     0.063     2.165     2.301
    59   1 H      0.925     0.074     2.039     2.233
    60   6 C      2.948     0.010    27.800     8.648
    61   6 C      2.915    -0.044    29.090     8.844
    62   1 H      0.926     0.066     2.132     2.283
    63   6 C      2.898    -0.039    28.976     8.826
    64   1 H      0.926     0.058     2.218     2.329
    65   6 C      2.909    -0.035    28.875     8.811
    66   1 H      0.926     0.024     2.673     2.557
    67   6 C      2.898    -0.039    28.965     8.824
    68   1 H      0.926     0.025     2.656     2.549
    69   6 C      2.922    -0.041    29.016     8.833
    70   1 H      0.926     0.039     2.458     2.452
    71   6 C      2.758     0.249    22.817     7.822
    72   8 O      0.860    -0.457    22.845     6.408
    73   7 N      2.698    -0.185    25.002     7.426
    74   1 H      0.860     0.199     1.109     1.650
    75   6 C      3.792     0.030    20.071     6.380
    76   1 H      0.925     0.065     2.139     2.287
    77   6 C      3.816    -0.052    21.495     6.599
    78   1 H      0.925     0.049     2.338     2.391
    79   1 H      0.925     0.054     2.270     2.356
    80   6 C      3.803    -0.083    22.084     6.691
    81   1 H      0.925     0.031     2.579     2.511
    82   1 H      0.925     0.016     2.793     2.613
    83   6 C      2.691     0.365    20.805     7.465
    84   8 O      0.856    -0.642    27.172     6.989
    85   8 O      0.857    -0.682    28.215     7.122
    86   6 C      2.755     0.274    22.367     7.744
    87   8 O      0.858    -0.487    23.496     6.499
    88   7 N      2.685    -0.178    24.851     7.404
    89   1 H      0.860     0.229     0.967     1.541
    90   6 C      3.795     0.022    20.218     6.403
    91   1 H      0.924     0.081     1.972     2.196
    92   6 C      3.813    -0.082    22.046     6.683
    93   1 H      0.924     0.072     2.059     2.244
    94   1 H      0.924     0.085     1.932     2.174
    95   6 C      3.801    -0.019    20.915     6.511
    96   1 H      0.925     0.066     2.127     2.281
    97   1 H      0.926     0.036     2.498     2.472
    98  16 S      1.950    -0.182   148.775    20.529
    99   6 C      3.745    -0.064    21.805     6.661
   100   1 H      0.925     0.059     2.213     2.326
   101   1 H      0.925     0.068     2.106     2.269
   102   1 H      0.925     0.037     2.486     2.466
   103   6 C      2.742     0.264    22.545     7.774
   104   8 O      0.860    -0.520    24.228     6.599
   105   7 N      2.683    -0.171    24.710     7.383
   106   1 H      0.860     0.235     0.944     1.522
   107   6 C      3.782     0.025    20.181     6.399
   108   1 H      0.925     0.075     2.031     2.229
   109   6 C      3.799    -0.081    22.045     6.685
   110   1 H      0.924     0.065     2.140     2.288
   111   1 H      0.924     0.063     2.162     2.300
   112   6 C      3.846    -0.023    20.945     6.510
   113   1 H      0.925     0.051     2.312     2.378
   114   6 C      3.755    -0.126    22.973     6.834
   115   1 H      0.924     0.065     2.146     2.291
   116   1 H      0.925     0.046     2.365     2.405
   117   1 H      0.925     0.055     2.259     2.351
   118   6 C      3.762    -0.120    22.844     6.813
   119   1 H      0.924     0.033     2.541     2.493
   120   1 H      0.925     0.043     2.408     2.427
   121   1 H      0.925     0.041     2.430     2.438
   122   6 C      2.747     0.265    22.531     7.772
   123   8 O      0.860    -0.490    23.561     6.508
   124   7 N      2.688    -0.175    24.792     7.395
   125   1 H      0.860     0.198     1.116     1.655
   126   6 C      3.782     0.019    20.275     6.414
   127   1 H      0.925     0.097     1.814     2.106
   128   6 C      3.794    -0.077    21.981     6.676
   129   1 H      0.924     0.074     2.047     2.238
   130   1 H      0.925     0.059     2.213     2.326
   131   6 C      3.792    -0.084    22.111     6.696
   132   1 H      0.925     0.081     1.966     2.192
   133   1 H      0.925     0.074     2.045     2.236
   134   6 C      3.729    -0.017    20.971     6.538
   135   1 H      0.924     0.075     2.027     2.226
   136   1 H      0.925     0.064     2.152     2.294
   137   7 N      2.736    -0.174    24.758     7.390
   138   1 H      0.860     0.205     1.083     1.630
   139   6 C      2.732     0.257    22.679     7.797
   140   7 N      2.687    -0.257    26.679     7.671
   141   1 H      0.860     0.251     0.880     1.470
   142   1 H      0.860     0.235     0.942     1.520
   143   7 N      2.718    -0.239    26.240     7.608
   144   1 H      0.860     0.259     0.851     1.445
   145   1 H      0.860     0.230     0.964     1.538
   146   6 C      2.746     0.278    22.302     7.733
   147   8 O      0.864    -0.471    23.139     6.450
   148   7 N      2.681    -0.199    25.325     7.474
   149   1 H      0.860     0.194     1.140     1.672
   150   6 C      3.787     0.012    20.383     6.430
   151   1 H      0.925     0.097     1.814     2.106
   152   6 C      3.845    -0.016    20.834     6.493
   153   1 H      0.924     0.062     2.179     2.308
   154   6 C      3.751    -0.115    22.757     6.803
   155   1 H      0.924     0.042     2.427     2.436
   156   1 H      0.925     0.040     2.444     2.445
   157   1 H      0.925     0.054     2.267     2.355
   158   6 C      3.792    -0.062    21.707     6.635
   159   1 H      0.925     0.045     2.380     2.412
   160   1 H      0.925     0.045     2.383     2.414
   161   6 C      3.743    -0.093    22.347     6.744
   162   1 H      0.925     0.023     2.685     2.562
   163   1 H      0.924     0.020     2.728     2.583
   164   1 H      0.925     0.038     2.473     2.459
   165   6 C      2.745     0.262    22.580     7.781
   166   8 O      0.860    -0.501    23.813     6.543
   167   7 N      2.690    -0.174    24.764     7.391
   168   1 H      0.860     0.212     1.047     1.603
   169   6 C      3.784     0.016    20.329     6.422
   170   1 H      0.924     0.093     1.850     2.127
   171   6 C      3.797    -0.098    22.369     6.734
   172   1 H      0.925     0.036     2.499     2.472
   173   1 H      0.925     0.061     2.187     2.313
   174   6 C      2.686     0.355    20.968     7.494
   175   8 O      0.857    -0.584    25.726     6.800
   176   8 O      0.857    -0.550    24.924     6.694
   177   6 C      2.745     0.283    22.203     7.715
   178   8 O      0.863    -0.436    22.417     6.348
   179   7 N      2.686    -0.210    25.579     7.511
   180   1 H      0.860     0.194     1.136     1.670
   181   6 C      3.781     0.016    20.335     6.424
   182   1 H      0.925     0.110     1.696     2.037
   183   6 C      3.797    -0.060    21.664     6.628
   184   1 H      0.925     0.036     2.503     2.474
   185   1 H      0.924     0.046     2.374     2.409
   186   6 C      3.787    -0.094    22.311     6.728
   187   1 H      0.924     0.037     2.491     2.468
   188   1 H      0.924     0.022     2.700     2.570
   189   6 C      2.680     0.349    21.068     7.511
   190   8 O      0.856    -0.654    27.479     7.028
   191   8 O      0.855    -0.625    26.737     6.933
   192   6 C      2.752     0.275    22.349     7.741
   193   8 O      0.860    -0.483    23.415     6.488
   194   7 N      2.683    -0.166    24.593     7.365
   195   1 H      0.860     0.207     1.069     1.620
   196   6 C      3.743    -0.029    21.158     6.562
   197   1 H      0.925     0.096     1.819     2.109
   198   1 H      0.924     0.092     1.864     2.135
   199   6 C      2.745     0.276    22.338     7.739
   200   8 O      0.860    -0.468    23.077     6.441
   201   7 N      2.692    -0.196    25.249     7.463
   202   1 H      0.860     0.210     1.058     1.612
   203   6 C      3.788     0.024    20.183     6.399
   204   1 H      0.925     0.052     2.292     2.367
   205   6 C      3.789    -0.090    22.229     6.715
   206   1 H      0.925     0.071     2.077     2.254
   207   1 H      0.924     0.068     2.103     2.268
   208   6 C      3.830    -0.017    20.854     6.498
   209   1 H      0.925     0.046     2.369     2.407
   210   6 C      3.760    -0.123    22.909     6.823
   211   1 H      0.925     0.013     2.841     2.636
   212   1 H      0.925     0.052     2.293     2.368
   213   1 H      0.925     0.040     2.447     2.446
   214   6 C      3.761    -0.129    23.030     6.841
   215   1 H      0.925     0.057     2.234     2.337
   216   1 H      0.925     0.048     2.350     2.397
   217   1 H      0.924     0.054     2.267     2.355
   218   6 C      2.750     0.268    22.470     7.762
   219   8 O      0.858    -0.467    23.065     6.439
   220   7 N      2.685    -0.180    24.906     7.412
   221   1 H      0.860     0.203     1.092     1.637
   222   6 C      3.786     0.010    20.419     6.436
   223   1 H      0.924     0.084     1.935     2.175
   224   6 C      3.794    -0.088    22.192     6.708
   225   1 H      0.925     0.083     1.946     2.181
   226   1 H      0.924     0.059     2.214     2.327
   227   6 C      3.804    -0.084    22.107     6.694
   228   1 H      0.924     0.064     2.157     2.297
   229   1 H      0.924     0.100     1.789     2.092
   230   6 C      3.731    -0.023    21.086     6.555
   231   1 H      0.925     0.114     1.665     2.018
   232   1 H      0.924     0.104     1.752     2.070
   233   7 N      2.695    -0.150    24.249     7.314
   234   1 H      0.860     0.205     1.082     1.630
   235   6 C      2.731     0.234    23.087     7.867
   236   7 N      2.682    -0.289    27.459     7.783
   237   1 H      0.860     0.235     0.945     1.522
   238   1 H      0.860     0.256     0.862     1.454
   239   7 N      2.675    -0.233    26.114     7.590
   240   1 H      0.860     0.255     0.865     1.457
   241   1 H      0.860     0.222     1.001     1.567
   242   6 C      2.748     0.262    22.577     7.780
   243   8 O      0.860    -0.482    23.391     6.484
   244   7 N      2.685    -0.175    24.782     7.394
   245   1 H      0.860     0.216     1.026     1.587
   246   6 C      3.769     0.012    20.408     6.438
   247   1 H      0.924     0.076     2.022     2.223
   248   6 C      3.806    -0.081    22.034     6.682
   249   1 H      0.925     0.081     1.970     2.195
   250   1 H      0.925     0.067     2.123     2.278
   251   6 C      3.841    -0.027    21.033     6.524
   252   1 H      0.924     0.044     2.392     2.418
   253   6 C      3.747    -0.131    23.086     6.853
   254   1 H      0.925     0.048     2.348     2.396
   255   1 H      0.924     0.052     2.301     2.372
   256   1 H      0.925     0.047     2.353     2.399
   257   6 C      3.748    -0.117    22.810     6.812
   258   1 H      0.924     0.047     2.364     2.404
   259   1 H      0.925     0.032     2.556     2.500
   260   1 H      0.925     0.034     2.529     2.487
   261   6 C      2.728     0.256    22.698     7.800
   262   8 O      0.858    -0.500    23.784     6.539
   263   7 N      2.681    -0.146    24.171     7.302
   264   1 H      0.860     0.205     1.080     1.628
   265   6 C      3.777     0.006    20.510     6.452
   266   1 H      0.925     0.086     1.921     2.167
   267   6 C      3.803    -0.091    22.238     6.714
   268   1 H      0.925     0.075     2.036     2.231
   269   1 H      0.925     0.074     2.040     2.234
   270   6 C      3.792    -0.081    22.065     6.689
   271   1 H      0.924     0.070     2.082     2.256
   272   1 H      0.924     0.055     2.256     2.349
   273   6 C      3.797    -0.101    22.424     6.743
   274   1 H      0.925     0.072     2.063     2.246
   275   1 H      0.924     0.080     1.983     2.202
   276   6 C      3.734    -0.064    21.812     6.666
   277   1 H      0.925     0.125     1.576     1.963
   278   1 H      0.925     0.121     1.606     1.982
   279   7 N      3.488    -0.143    24.095     7.291
   280   1 H      0.860     0.305     0.698     1.309
   281   1 H      0.860     0.310     0.685     1.296
   282   1 H      0.860     0.290     0.745     1.352
   283   6 C      2.748     0.262    22.584     7.781
   284   8 O      0.859    -0.508    23.963     6.563
   285   7 N      2.691    -0.145    24.140     7.297
   286   1 H      0.860     0.226     0.984     1.554
   287   6 C      3.800     0.016    20.308     6.416
   288   1 H      0.925     0.059     2.207     2.323
   289   6 C      3.856    -0.033    21.117     6.536
   290   1 H      0.924     0.077     2.008     2.216
   291   6 C      3.757    -0.130    23.043     6.844
   292   1 H      0.925     0.030     2.585     2.514
   293   1 H      0.924     0.049     2.338     2.391
   294   1 H      0.924     0.084     1.934     2.175
   295   6 C      3.811    -0.075    21.917     6.664
   296   1 H      0.924     0.045     2.380     2.412
   297   1 H      0.925     0.038     2.480     2.463
   298   6 C      3.750    -0.127    22.991     6.838
   299   1 H      0.925     0.050     2.326     2.385
   300   1 H      0.925     0.066     2.134     2.285
   301   1 H      0.925     0.025     2.654     2.547
   302   6 C      2.749     0.277    22.317     7.735
   303   8 O      0.858    -0.473    23.196     6.457
   304   7 N      2.687    -0.164    24.554     7.359
   305   1 H      0.860     0.216     1.028     1.588
   306   6 C      3.782     0.017    20.314     6.420
   307   1 H      0.925     0.109     1.708     2.044
   308   6 C      3.814    -0.092    22.241     6.712
   309   1 H      0.924     0.102     1.770     2.080
   310   1 H      0.924     0.079     1.986     2.204
   311   6 C      2.954     0.001    28.003     8.680
   312   6 C      2.918    -0.051    29.275     8.873
   313   1 H      0.926     0.058     2.218     2.329
   314   6 C      2.896    -0.079    29.982     8.978
   315   1 H      0.926     0.019     2.750     2.593
   316   6 C      2.842     0.125    25.258     8.236
   317   8 O      1.658    -0.457    21.996     6.331
   318   1 H      0.808     0.307     0.699     1.313
   319   6 C      2.906    -0.058    29.443     8.897
   320   1 H      0.926     0.044     2.401     2.423
   321   6 C      2.907    -0.038    28.933     8.820
   322   1 H      0.926     0.097     1.813     2.105
   323   6 C      2.752     0.263    22.565     7.779
   324   8 O      0.862    -0.495    23.671     6.523
   325   7 N      2.679    -0.168    24.626     7.370
   326   1 H      0.860     0.223     0.998     1.565
   327   6 C      3.789     0.009    20.431     6.438
   328   1 H      0.925     0.080     1.983     2.202
   329   6 C      3.804    -0.079    22.010     6.679
   330   1 H      0.924     0.042     2.429     2.437
   331   1 H      0.925     0.086     1.921     2.168
   332   6 C      3.804    -0.086    22.138     6.698
   333   1 H      0.925     0.086     1.922     2.168
   334   1 H      0.924     0.050     2.325     2.384
   335   6 C      3.802    -0.098    22.376     6.735
   336   1 H      0.924     0.064     2.150     2.293
   337   1 H      0.924     0.092     1.863     2.135
   338   6 C      3.735    -0.057    21.682     6.645
   339   1 H      0.924     0.127     1.557     1.951
   340   1 H      0.925     0.123     1.586     1.969
   341   7 N      3.483    -0.151    24.256     7.315
   342   1 H      0.860     0.308     0.691     1.302
   343   1 H      0.860     0.295     0.728     1.336
   344   1 H      0.860     0.292     0.737     1.345
   345   6 C      2.756     0.286    22.157     7.708
   346   8 O      0.862    -0.469    23.104     6.445
   347   7 N      2.704    -0.210    25.582     7.512
   348   1 H      0.860     0.229     0.970     1.543
   349   6 C      3.787     0.048    19.784     6.335
   350   1 H      0.925     0.039     2.459     2.452
   351   6 C      3.817    -0.083    22.077     6.687
   352   1 H      0.924     0.011     2.872     2.650
   353   1 H      0.925     0.061     2.191     2.315
   354   6 C      2.691     0.374    20.659     7.439
   355   8 O      0.861    -0.629    26.849     6.947
   356   8 O      0.859    -0.657    27.563     7.039
   357   6 C      2.745     0.268    22.482     7.764
   358   8 O      0.859    -0.478    23.305     6.473
   359   7 N      2.682    -0.169    24.649     7.374
   360   1 H      0.860     0.188     1.169     1.694
   361   6 C      3.784     0.018    20.287     6.416
   362   1 H      0.924     0.098     1.800     2.098
   363   6 C      3.721     0.118    18.763     6.187
   364   1 H      0.925     0.051     2.309     2.376
   365   6 C      3.750    -0.138    23.225     6.873
   366   1 H      0.924     0.077     2.012     2.218
   367   1 H      0.925     0.051     2.305     2.374
   368   1 H      0.925     0.068     2.104     2.268
   369   8 O      1.651    -0.512    23.146     6.494
   370   1 H      0.806     0.334     0.626     1.243
   371   6 C      2.742     0.279    22.282     7.729
   372   8 O      0.858    -0.478    23.300     6.472
   373   7 N      2.680    -0.218    25.750     7.537
   374   1 H      0.860     0.204     1.083     1.630
   375   6 C      3.778     0.027    20.141     6.394
   376   1 H      0.924     0.084     1.940     2.178
   377   6 C      3.801    -0.055    21.562     6.611
   378   1 H      0.924     0.056     2.250     2.346
   379   1 H      0.925     0.041     2.435     2.440
   380   6 C      3.798    -0.083    22.095     6.693
   381   1 H      0.924     0.020     2.731     2.584
   382   1 H      0.924     0.031     2.579     2.511
   383   6 C      2.684     0.355    20.975     7.495
   384   8 O      0.856    -0.623    26.683     6.926
   385   8 O      0.856    -0.609    26.344     6.881
   386   6 C      2.738     0.259    22.643     7.791
   387   8 O      0.862    -0.492    23.615     6.515
   388   7 N      2.676    -0.190    25.115     7.443
   389   1 H      0.860     0.183     1.196     1.713
   390   6 C      3.732    -0.038    21.341     6.594
   391   1 H      0.925     0.126     1.566     1.957
   392   1 H      0.924     0.116     1.644     2.005
   393   6 C      2.749     0.274    22.374     7.745
   394   8 O      0.858    -0.449    22.674     6.384
   395   7 N      2.687    -0.161    24.489     7.350
   396   1 H      0.860     0.173     1.252     1.753
   397   6 C      3.799     0.022    20.202     6.400
   398   1 H      0.925     0.084     1.936     2.176
   399   6 C      3.825    -0.072    21.854     6.652
   400   1 H      0.925     0.076     2.025     2.225
   401   1 H      0.925     0.040     2.446     2.446
   402   6 C      2.964    -0.010    28.265     8.720
   403   6 C      2.910    -0.050    29.237     8.866
   404   1 H      0.926     0.029     2.593     2.518
   405   6 C      2.907    -0.054    29.344     8.882
   406   1 H      0.926     0.050     2.319     2.381
   407   6 C      2.835     0.143    24.882     8.174
   408   8 O      1.659    -0.436    21.556     6.268
   409   1 H      0.806     0.351     0.586     1.203
   410   6 C      2.909    -0.070    29.750     8.944
   411   1 H      0.926     0.057     2.239     2.340
   412   6 C      2.899    -0.043    29.055     8.838
   413   1 H      0.926     0.057     2.231     2.336
   414   6 C      2.761     0.268    22.482     7.765
   415   8 O      0.860    -0.491    23.589     6.512
   416   7 N      2.684    -0.155    24.363     7.331
   417   1 H      0.860     0.227     0.980     1.551
   418   6 C      3.774     0.003    20.561     6.461
   419   1 H      0.924     0.096     1.825     2.113
   420   6 C      3.803    -0.082    22.066     6.688
   421   1 H      0.925     0.071     2.072     2.251
   422   1 H      0.924     0.066     2.130     2.282
   423   6 C      2.956    -0.006    28.160     8.704
   424   6 C      2.923    -0.046    29.131     8.851
   425   1 H      0.926     0.036     2.499     2.472
   426   6 C      2.897    -0.074    29.850     8.958
   427   1 H      0.926     0.045     2.379     2.412
   428   6 C      2.841     0.137    24.993     8.193
   429   8 O      1.661    -0.401    20.867     6.167
   430   1 H      0.806     0.342     0.608     1.225
   431   6 C      2.907    -0.075    29.882     8.963
   432   1 H      0.926     0.086     1.922     2.168
   433   6 C      2.905    -0.049    29.221     8.864
   434   1 H      0.926     0.060     2.200     2.319
   435   6 C      2.738     0.263    22.569     7.778
   436   8 O      0.856    -0.490    23.576     6.510
   437   7 N      2.682    -0.185    25.010     7.427
   438   1 H      0.860     0.251     0.878     1.467
   439   6 C      3.781     0.002    20.573     6.461
   440   1 H      0.925     0.081     1.971     2.195
   441   6 C      3.723     0.126    18.626     6.163
   442   1 H      0.925     0.016     2.797     2.615
   443   6 C      3.755    -0.104    22.536     6.769
   444   1 H      0.925     0.046     2.372     2.409
   445   1 H      0.925     0.036     2.506     2.476
   446   1 H      0.924     0.039     2.467     2.456
   447   8 O      1.659    -0.477    22.397     6.389
   448   1 H      0.806     0.323     0.656     1.273
   449   6 C      2.751     0.263    22.558     7.777
   450   8 O      0.863    -0.457    22.841     6.408
   451   7 N      2.689    -0.154    24.332     7.326
   452   1 H      0.860     0.204     1.086     1.632
   453   6 C      3.792     0.022    20.207     6.402
   454   1 H      0.924     0.105     1.736     2.061
   455   6 C      3.851    -0.039    21.228     6.553
   456   1 H      0.925     0.069     2.094     2.263
   457   6 C      3.750    -0.130    23.069     6.850
   458   1 H      0.924     0.035     2.513     2.479
   459   1 H      0.925     0.045     2.381     2.413
   460   1 H      0.925     0.080     1.977     2.199
   461   6 C      3.801    -0.076    21.954     6.671
   462   1 H      0.924     0.048     2.348     2.396
   463   1 H      0.925     0.037     2.495     2.470
   464   6 C      3.751    -0.119    22.845     6.816
   465   1 H      0.925     0.048     2.340     2.392
   466   1 H      0.925     0.056     2.241     2.341
   467   1 H      0.925     0.053     2.283     2.363
   468   6 C      2.749     0.261    22.600     7.784
   469   8 O      0.861    -0.539    24.661     6.658
   470   7 N      2.685    -0.158    24.409     7.338
   471   1 H      0.860     0.243     0.913     1.496
   472   6 C      3.740    -0.027    21.136     6.560
   473   1 H      0.925     0.071     2.079     2.255
   474   1 H      0.925     0.103     1.758     2.073
   475   6 C      2.750     0.267    22.484     7.764
   476   8 O      0.856    -0.476    23.267     6.467
   477   7 N      2.685    -0.160    24.454     7.344
   478   1 H      0.860     0.209     1.061     1.613
   479   6 C      3.799     0.017    20.290     6.413
   480   1 H      0.925     0.090     1.874     2.141
   481   6 C      3.844    -0.026    21.009     6.520
   482   1 H      0.925     0.050     2.315     2.379
   483   6 C      3.745    -0.111    22.698     6.796
   484   1 H      0.925     0.046     2.377     2.411
   485   1 H      0.924     0.021     2.714     2.576
   486   1 H      0.925     0.062     2.174     2.306
   487   6 C      3.799    -0.067    21.794     6.647
   488   1 H      0.925     0.044     2.401     2.423
   489   1 H      0.924     0.047     2.353     2.399
   490   6 C      3.750    -0.121    22.878     6.822
   491   1 H      0.924     0.042     2.426     2.436
   492   1 H      0.924     0.061     2.189     2.314
   493   1 H      0.924     0.046     2.368     2.407
   494   6 C      2.755     0.258    22.654     7.794
   495   8 O      0.861    -0.507    23.939     6.560
   496   7 N      2.688    -0.150    24.237     7.312
   497   1 H      0.860     0.210     1.058     1.611
   498   6 C      3.741    -0.014    20.909     6.524
   499   1 H      0.925     0.071     2.079     2.255
   500   1 H      0.924     0.089     1.893     2.152
   501   6 C      2.745     0.280    22.263     7.726
   502   8 O      0.859    -0.512    24.047     6.575
   503   7 N      2.686    -0.160    24.471     7.347
   504   1 H      0.860     0.232     0.957     1.533
   505   6 C      3.795     0.036    19.975     6.364
   506   1 H      0.925     0.055     2.264     2.353
   507   6 C      3.809    -0.081    22.042     6.683
   508   1 H      0.925     0.111     1.688     2.032
   509   1 H      0.925     0.099     1.797     2.096
   510   6 C      3.017     0.052    26.808     8.493
   511   7 N      2.803    -0.058    22.350     7.021
   512   1 H      0.860     0.254     0.869     1.461
   513   6 C      2.960     0.078    26.262     8.406
   514   1 H      0.926     0.151     1.385     1.840
   515   7 N      2.811    -0.004    21.329     6.859
   516   1 H      0.860     0.268     0.816     1.415
   517   6 C      3.004    -0.016    28.387     8.740
   518   1 H      0.926     0.140     1.463     1.892
   519   6 C      2.752     0.259    22.631     7.790
   520   8 O      0.862    -0.495    23.672     6.523
   521   7 N      2.692    -0.149    24.226     7.310
   522   1 H      0.860     0.200     1.105     1.647
   523   6 C      3.790     0.023    20.191     6.399
   524   1 H      0.924     0.076     2.022     2.224
   525   6 C      3.801    -0.081    22.052     6.686
   526   1 H      0.925     0.059     2.208     2.324
   527   1 H      0.925     0.057     2.232     2.336
   528   6 C      3.846    -0.021    20.922     6.506
   529   1 H      0.925     0.034     2.533     2.489
   530   6 C      3.757    -0.115    22.763     6.802
   531   1 H      0.924     0.028     2.621     2.532
   532   1 H      0.925     0.035     2.514     2.480
   533   1 H      0.925     0.052     2.293     2.368
   534   6 C      3.751    -0.140    23.269     6.879
   535   1 H      0.925     0.062     2.175     2.306
   536   1 H      0.925     0.060     2.196     2.317
   537   1 H      0.925     0.071     2.072     2.251
   538   6 C      2.751     0.277    22.311     7.735
   539   8 O      0.858    -0.496    23.686     6.525
   540   7 N      2.686    -0.188    25.071     7.437
   541   1 H      0.860     0.223     0.995     1.563
   542   6 C      3.791     0.019    20.258     6.410
   543   1 H      0.925     0.088     1.894     2.152
   544   6 C      3.812    -0.078    21.983     6.674
   545   1 H      0.924     0.060     2.204     2.322
   546   1 H      0.924     0.062     2.175     2.306
   547   6 C      3.846    -0.025    20.991     6.517
   548   1 H      0.925     0.037     2.483     2.464
   549   6 C      3.758    -0.130    23.056     6.846
   550   1 H      0.925     0.063     2.165     2.301
   551   1 H      0.925     0.038     2.471     2.458
   552   1 H      0.925     0.067     2.115     2.274
   553   6 C      3.766    -0.130    23.034     6.840
   554   1 H      0.925     0.063     2.160     2.298
   555   1 H      0.925     0.049     2.337     2.391
   556   1 H      0.925     0.024     2.680     2.560
   557   6 C      2.749     0.260    22.612     7.786
   558   8 O      0.857    -0.502    23.827     6.545
   559   7 N      2.684    -0.175    24.783     7.394
   560   1 H      0.860     0.223     0.995     1.562
   561   6 C      3.794     0.007    20.461     6.441
   562   1 H      0.924     0.066     2.130     2.282
   563   6 C      3.735     0.126    18.613     6.157
   564   1 H      0.925     0.033     2.551     2.498
   565   6 C      3.765    -0.124    22.917     6.823
   566   1 H      0.925     0.078     1.999     2.211
   567   1 H      0.924     0.052     2.297     2.370
   568   1 H      0.925     0.063     2.160     2.298
   569   8 O      1.663    -0.481    22.490     6.402
   570   1 H      0.805     0.323     0.655     1.271
   571   6 C      2.751     0.277    22.310     7.734
   572   8 O      0.866    -0.442    22.531     6.364
   573   7 N      2.692    -0.189    25.094     7.440
   574   1 H      0.860     0.200     1.105     1.646
   575   6 C      3.782     0.003    20.547     6.457
   576   1 H      0.924     0.100     1.782     2.088
   577   6 C      3.792    -0.084    22.119     6.698
   578   1 H      0.925     0.078     1.999     2.211
   579   1 H      0.924     0.071     2.075     2.252
   580   6 C      3.790    -0.080    22.036     6.686
   581   1 H      0.925     0.064     2.150     2.293
   582   1 H      0.925     0.053     2.283     2.363
   583   6 C      3.798    -0.088    22.179     6.706
   584   1 H      0.925     0.076     2.024     2.225
   585   1 H      0.925     0.092     1.859     2.132
   586   6 C      3.728    -0.057    21.694     6.649
   587   1 H      0.925     0.113     1.670     2.021
   588   1 H      0.925     0.095     1.835     2.118
   589   7 N      3.486    -0.152    24.279     7.318
   590   1 H      0.860     0.297     0.723     1.332
   591   1 H      0.860     0.294     0.731     1.339
   592   1 H      0.860     0.311     0.681     1.293
   593   6 C      2.737     0.273    22.386     7.746
   594   8 O      0.858    -0.456    22.832     6.406
   595   7 N      2.680    -0.184    24.978     7.423
   596   1 H      0.860     0.204     1.085     1.632
   597   6 C      3.778     0.017    20.310     6.421
   598   1 H      0.925     0.079     1.992     2.207
   599   6 C      3.677     0.064    19.714     6.361
   600   1 H      0.925     0.056     2.246     2.344
   601   1 H      0.924     0.053     2.282     2.362
   602   8 O      1.655    -0.480    22.466     6.398
   603   1 H      0.805     0.349     0.590     1.206
   604   6 C      2.745     0.261    22.604     7.785
   605   8 O      0.858    -0.461    22.944     6.422
   606   7 N      2.749    -0.104    23.280     7.166
   607   6 C      3.794    -0.020    20.940     6.516
   608   1 H      0.924     0.069     2.098     2.265
   609   1 H      0.925     0.067     2.123     2.279
   610   6 C      3.822    -0.079    21.987     6.673
   611   1 H      0.924     0.074     2.046     2.237
   612   1 H      0.925     0.059     2.214     2.327
   613   6 C      3.863    -0.077    21.931     6.660
   614   1 H      0.925     0.075     2.028     2.227
   615   1 H      0.925     0.079     1.992     2.207
   616   6 C      3.816     0.018    20.258     6.406
   617   1 H      0.925     0.101     1.775     2.083
   618   6 C      2.731     0.258    22.661     7.794
   619   8 O      0.858    -0.471    23.148     6.451
   620   7 N      2.684    -0.178    24.862     7.405
   621   1 H      0.860     0.195     1.130     1.666
   622   6 C      3.786     0.017    20.297     6.417
   623   1 H      0.925     0.088     1.902     2.157
   624   6 C      3.685     0.069    19.611     6.340
   625   1 H      0.925     0.043     2.411     2.428
   626   1 H      0.925     0.053     2.277     2.360
   627   8 O      1.656    -0.478    22.419     6.392
   628   1 H      0.806     0.346     0.598     1.214
   629   6 C      2.746     0.269    22.457     7.759
   630   8 O      0.861    -0.468    23.089     6.442
   631   7 N      2.691    -0.190    25.115     7.443
   632   1 H      0.860     0.211     1.051     1.606
   633   6 C      3.792     0.012    20.380     6.429
   634   1 H      0.924     0.118     1.632     1.998
   635   6 C      3.800    -0.093    22.272     6.719
   636   1 H      0.925     0.074     2.046     2.237
   637   1 H      0.924     0.087     1.906     2.159
   638   6 C      3.846    -0.028    21.037     6.524
   639   1 H      0.925     0.044     2.395     2.420
   640   6 C      3.762    -0.142    23.274     6.877
   641   1 H      0.925     0.061     2.182     2.310
   642   1 H      0.925     0.058     2.221     2.331
   643   1 H      0.925     0.047     2.358     2.401
   644   6 C      3.761    -0.138    23.212     6.868
   645   1 H      0.925     0.059     2.214     2.327
   646   1 H      0.925     0.043     2.405     2.425
   647   1 H      0.925     0.061     2.191     2.315
   648   6 C      2.756     0.268    22.475     7.763
   649   8 O      0.859    -0.460    22.914     6.418
   650   7 N      2.689    -0.188    25.069     7.436
   651   1 H      0.860     0.216     1.026     1.587
   652   6 C      3.795     0.020    20.236     6.406
   653   1 H      0.924     0.091     1.872     2.140
   654   6 C      3.812    -0.124    22.865     6.806
   655   1 H      0.924     0.071     2.079     2.255
   656   1 H      0.925     0.107     1.725     2.054
   657   6 C      2.731     0.291    22.070     7.691
   658   8 O      0.864    -0.481    23.359     6.480
   659   7 N      2.641    -0.293    27.555     7.796
   660   1 H      0.860     0.237     0.936     1.515
   661   1 H      0.860     0.236     0.939     1.518
   662   6 C      2.762     0.276    22.329     7.738
   663   8 O      0.858    -0.471    23.151     6.451
   664   7 N      2.691    -0.192    25.154     7.449
   665   1 H      0.860     0.225     0.988     1.557
   666   6 C      3.783     0.023    20.202     6.403
   667   1 H      0.925     0.063     2.162     2.299
   668   6 C      3.750    -0.139    23.236     6.875
   669   1 H      0.925     0.068     2.106     2.270
   670   1 H      0.924     0.076     2.025     2.225
   671   1 H      0.924     0.077     2.007     2.215
   672   6 C      2.745     0.249    22.812     7.820
   673   8 O      0.857    -0.564    25.241     6.736
   674   7 N      2.680    -0.149    24.232     7.311
   675   1 H      0.860     0.244     0.905     1.490
   676   6 C      3.795     0.025    20.156     6.393
   677   1 H      0.925     0.065     2.141     2.288
   678   6 C      3.768    -0.145    23.331     6.884
   679   1 H      0.924     0.074     2.045     2.236
   680   1 H      0.924     0.093     1.848     2.126
   681   1 H      0.925     0.067     2.117     2.275
   682   6 C      2.761     0.284    22.185     7.713
   683   8 O      0.859    -0.484    23.430     6.490
   684   7 N      2.679    -0.208    25.533     7.505
   685   1 H      0.860     0.252     0.874     1.464
   686   6 C      3.775     0.012    20.398     6.435
   687   1 H      0.924     0.086     1.917     2.165
   688   6 C      3.794    -0.068    21.815     6.651
   689   1 H      0.924     0.049     2.331     2.388
   690   1 H      0.925     0.058     2.225     2.333
   691   6 C      3.798    -0.085    22.115     6.696
   692   1 H      0.925     0.092     1.862     2.134
   693   1 H      0.924     0.059     2.208     2.324
   694   6 C      3.797    -0.098    22.375     6.735
   695   1 H      0.924     0.059     2.214     2.327
   696   1 H      0.925     0.079     1.991     2.206
   697   6 C      3.719    -0.047    21.535     6.628
   698   1 H      0.925     0.139     1.472     1.897
   699   1 H      0.924     0.114     1.661     2.015
   700   7 N      3.478    -0.149    24.217     7.309
   701   1 H      0.860     0.297     0.723     1.332
   702   1 H      0.860     0.290     0.744     1.351
   703   1 H      0.860     0.297     0.722     1.331
   704   6 C      2.741     0.275    22.347     7.740
   705   8 O      0.857    -0.529    24.444     6.629
   706   7 N      2.683    -0.185    25.010     7.427
   707   1 H      0.860     0.233     0.951     1.528
   708   6 C      3.784     0.024    20.193     6.401
   709   1 H      0.925     0.074     2.046     2.237
   710   6 C      3.681     0.065    19.699     6.356
   711   1 H      0.925     0.062     2.173     2.305
   712   1 H      0.925     0.057     2.232     2.336
   713   8 O      1.655    -0.484    22.559     6.412
   714   1 H      0.806     0.374     0.536     1.150
   715   6 C      2.753     0.271    22.420     7.753
   716   8 O      0.860    -0.508    23.951     6.562
   717   7 N      2.682    -0.165    24.572     7.362
   718   1 H      0.860     0.212     1.045     1.601
   719   6 C      3.774     0.007    20.491     6.450
   720   1 H      0.925     0.087     1.911     2.162
   721   6 C      3.798    -0.049    21.462     6.596
   722   1 H      0.924     0.046     2.370     2.407
   723   1 H      0.925     0.050     2.316     2.380
   724   6 C      3.794    -0.099    22.404     6.740
   725   1 H      0.924     0.027     2.623     2.533
   726   1 H      0.925     0.036     2.500     2.473
   727   6 C      2.679     0.361    20.883     7.478
   728   8 O      0.857    -0.633    26.948     6.960
   729   8 O      0.857    -0.628    26.814     6.943
   730   6 C      2.732     0.275    22.352     7.740
   731   8 O      0.861    -0.479    23.320     6.475
   732   7 N      2.687    -0.159    24.444     7.343
   733   1 H      0.860     0.214     1.036     1.595
   734   6 C      3.785     0.015    20.346     6.425
   735   1 H      0.925     0.102     1.763     2.076
   736   6 C      3.809    -0.092    22.240     6.713
   737   1 H      0.925     0.069     2.099     2.266
   738   1 H      0.924     0.089     1.891     2.151
   739   6 C      3.851    -0.016    20.818     6.490
   740   1 H      0.924     0.020     2.740     2.589
   741   6 C      3.763    -0.129    23.027     6.840
   742   1 H      0.925     0.039     2.457     2.451
   743   1 H      0.925     0.059     2.209     2.324
   744   1 H      0.925     0.063     2.164     2.300
   745   6 C      3.768    -0.122    22.882     6.817
   746   1 H      0.924     0.022     2.702     2.571
   747   1 H      0.924     0.064     2.154     2.295
   748   1 H      0.924     0.047     2.362     2.403
   749   6 C      2.747     0.265    22.525     7.771
   750   8 O      0.859    -0.518    24.182     6.593
   751   7 N      2.687    -0.182    24.938     7.417
   752   1 H      0.860     0.227     0.979     1.550
   753   6 C      3.782     0.049    19.770     6.334
   754   1 H      0.924     0.062     2.175     2.306
   755   6 C      3.811    -0.076    21.941     6.668
   756   1 H      0.924     0.027     2.629     2.536
   757   1 H      0.924     0.038     2.477     2.461
   758   6 C      2.689     0.367    20.778     7.460
   759   8 O      0.857    -0.621    26.633     6.919
   760   8 O      0.857    -0.631    26.889     6.952
   761   6 C      2.745     0.271    22.411     7.751
   762   8 O      0.867    -0.501    23.803     6.541
   763   7 N      2.689    -0.191    25.146     7.448
   764   1 H      0.860     0.203     1.090     1.635
   765   6 C      3.782     0.020    20.251     6.410
   766   1 H      0.925     0.074     2.046     2.237
   767   6 C      3.798    -0.075    21.939     6.669
   768   1 H      0.924     0.069     2.093     2.262
   769   1 H      0.924     0.063     2.168     2.302
   770   6 C      3.790    -0.079    22.025     6.684
   771   1 H      0.924     0.059     2.214     2.327
   772   1 H      0.924     0.048     2.350     2.397
   773   6 C      3.795    -0.093    22.275     6.721
   774   1 H      0.924     0.092     1.863     2.134
   775   1 H      0.924     0.083     1.945     2.181
   776   6 C      3.728    -0.031    21.221     6.577
   777   1 H      0.925     0.108     1.711     2.045
   778   1 H      0.925     0.093     1.854     2.129
   779   7 N      3.483    -0.169    24.636     7.372
   780   1 H      0.860     0.290     0.744     1.351
   781   1 H      0.860     0.295     0.727     1.336
   782   1 H      0.860     0.280     0.776     1.380
   783   6 C      2.753     0.281    22.236     7.722
   784   8 O      0.858    -0.465    23.016     6.432
   785   7 N      2.703    -0.195    25.230     7.460
   786   1 H      0.860     0.212     1.048     1.604
   787   6 C      3.796     0.035    19.997     6.368
   788   1 H      0.925     0.080     1.979     2.200
   789   6 C      3.767    -0.138    23.204     6.865
   790   1 H      0.925     0.081     1.972     2.196
   791   1 H      0.925     0.067     2.116     2.275
   792   1 H      0.925     0.095     1.835     2.118
   793   6 C      2.742     0.261    22.594     7.783
   794   8 O      0.856    -0.505    23.893     6.553
   795   7 N      2.678    -0.187    25.064     7.436
   796   1 H      0.860     0.199     1.109     1.650
   797   6 C      3.786     0.012    20.386     6.431
   798   1 H      0.925     0.096     1.826     2.113
   799   6 C      3.844    -0.014    20.786     6.485
   800   1 H      0.925     0.044     2.399     2.422
   801   6 C      3.746    -0.107    22.612     6.783
   802   1 H      0.925     0.033     2.551     2.498
   803   1 H      0.925     0.058     2.218     2.329
   804   1 H      0.924     0.039     2.462     2.454
   805   6 C      3.796    -0.067    21.795     6.648
   806   1 H      0.925     0.057     2.230     2.335
   807   1 H      0.924     0.046     2.371     2.408
   808   6 C      3.746    -0.116    22.783     6.809
   809   1 H      0.925     0.041     2.442     2.444
   810   1 H      0.924     0.027     2.631     2.536
   811   1 H      0.924     0.051     2.303     2.373
   812   6 C      2.743     0.278    22.302     7.732
   813   8 O      0.863    -0.491    23.588     6.512
   814   7 N      2.680    -0.193    25.178     7.452
   815   1 H      0.860     0.214     1.035     1.594
   816   6 C      3.739    -0.038    21.330     6.590
   817   1 H      0.924     0.093     1.851     2.128
   818   1 H      0.925     0.095     1.835     2.118
   819   6 C      2.744     0.281    22.245     7.723
   820   8 O      0.858    -0.507    23.931     6.559
   821   7 N      2.696    -0.156    24.373     7.332
   822   1 H      0.860     0.212     1.047     1.603
   823   6 C      3.779     0.004    20.540     6.457
   824   1 H      0.924     0.086     1.921     2.167
   825   6 C      3.789    -0.087    22.165     6.705
   826   1 H      0.925     0.081     1.965     2.192
   827   1 H      0.924     0.080     1.982     2.201
   828   6 C      3.792    -0.075    21.949     6.672
   829   1 H      0.925     0.063     2.167     2.302
   830   1 H      0.925     0.051     2.303     2.373
   831   6 C      3.742    -0.027    21.138     6.559
   832   1 H      0.925     0.081     1.969     2.194
   833   1 H      0.925     0.083     1.953     2.185
   834   7 N      2.703    -0.153    24.312     7.323
   835   1 H      0.860     0.227     0.979     1.550
   836   6 C      2.739     0.248    22.845     7.826
   837   7 N      2.695    -0.255    26.620     7.663
   838   1 H      0.860     0.253     0.871     1.462
   839   1 H      0.860     0.235     0.944     1.522
   840   7 N      2.692    -0.258    26.686     7.672
   841   1 H      0.860     0.243     0.913     1.496
   842   1 H      0.860     0.243     0.911     1.495
   843   6 C      2.752     0.280    22.252     7.724
   844   8 O      0.863    -0.477    23.289     6.470
   845   7 N      2.687    -0.198    25.296     7.470
   846   1 H      0.860     0.218     1.020     1.582
   847   6 C      3.788     0.043    19.867     6.348
   848   1 H      0.924     0.050     2.318     2.381
   849   6 C      3.810    -0.107    22.538     6.758
   850   1 H      0.925     0.094     1.837     2.119
   851   1 H      0.925     0.092     1.859     2.132
   852   6 C      2.745     0.295    22.002     7.680
   853   8 O      0.872    -0.518    24.178     6.593
   854   7 N      2.649    -0.275    27.114     7.734
   855   1 H      0.860     0.256     0.859     1.452
   856   1 H      0.860     0.235     0.945     1.523
   857   6 C      2.747     0.271    22.421     7.753
   858   8 O      0.859    -0.520    24.232     6.600
   859   7 N      2.682    -0.177    24.843     7.403
   860   1 H      0.860     0.217     1.024     1.585
   861   6 C      3.827     0.026    20.112     6.381
   862   1 H      0.924     0.098     1.802     2.100
   863   6 C      3.805    -0.015    20.845     6.500
   864   1 H      0.925     0.098     1.799     2.098
   865   1 H      0.926     0.070     2.084     2.258
   866  16 S      1.938    -0.248   151.714    20.731
   867   1 H      0.922     0.129     1.543     1.943
   868   6 C      2.760     0.261    22.608     7.786
   869   8 O      0.857    -0.461    22.948     6.423
   870   7 N      2.683    -0.183    24.966     7.421
   871   1 H      0.860     0.214     1.038     1.596
   872   6 C      3.786     0.026    20.151     6.394
   873   1 H      0.925     0.105     1.739     2.062
   874   6 C      3.808    -0.091    22.235     6.713
   875   1 H      0.925     0.073     2.051     2.239
   876   1 H      0.924     0.075     2.027     2.226
   877   6 C      2.744     0.291    22.060     7.691
   878   8 O      0.861    -0.488    23.519     6.502
   879   7 N      2.636    -0.290    27.469     7.784
   880   1 H      0.860     0.250     0.884     1.473
   881   1 H      0.860     0.220     1.009     1.573
   882   6 C      2.746     0.267    22.488     7.765
   883   8 O      0.858    -0.443    22.567     6.369
   884   7 N      2.681    -0.166    24.583     7.364
   885   1 H      0.860     0.176     1.235     1.741
   886   6 C      3.743    -0.042    21.408     6.601
   887   1 H      0.925     0.144     1.436     1.874
   888   1 H      0.925     0.116     1.643     2.004
   889   6 C      2.746     0.261    22.593     7.783
   890   8 O      0.858    -0.468    23.087     6.442
   891   7 N      2.682    -0.170    24.685     7.379
   892   1 H      0.860     0.197     1.120     1.658
   893   6 C      3.787     0.022    20.225     6.405
   894   1 H      0.924     0.083     1.953     2.185
   895   6 C      3.840    -0.020    20.904     6.504
   896   1 H      0.925     0.077     2.008     2.216
   897   6 C      3.744    -0.117    22.818     6.814
   898   1 H      0.924     0.039     2.462     2.454
   899   1 H      0.925     0.051     2.302     2.373
   900   1 H      0.925     0.029     2.600     2.521
   901   6 C      3.752    -0.132    23.102     6.854
   902   1 H      0.925     0.036     2.508     2.477
   903   1 H      0.924     0.065     2.145     2.290
   904   1 H      0.924     0.062     2.174     2.306
   905   6 C      2.746     0.260    22.622     7.788
   906   8 O      0.857    -0.512    24.046     6.575
   907   7 N      2.686    -0.156    24.370     7.332
   908   1 H      0.860     0.226     0.985     1.554
   909   6 C      3.784     0.011    20.408     6.435
   910   1 H      0.924     0.089     1.893     2.151
   911   6 C      3.851    -0.029    21.055     6.527
   912   1 H      0.925     0.045     2.381     2.413
   913   6 C      3.757    -0.120    22.854     6.816
   914   1 H      0.925     0.055     2.257     2.350
   915   1 H      0.925     0.042     2.428     2.437
   916   1 H      0.925     0.046     2.372     2.408
   917   6 C      3.803    -0.070    21.844     6.654
   918   1 H      0.925     0.039     2.459     2.452
   919   1 H      0.925     0.060     2.201     2.320
   920   6 C      3.750    -0.115    22.766     6.805
   921   1 H      0.925     0.052     2.295     2.369
   922   1 H      0.924     0.026     2.638     2.540
   923   1 H      0.925     0.043     2.416     2.431
   924   6 C      2.741     0.262    22.574     7.779
   925   8 O      0.860    -0.507    23.936     6.560
   926   7 N      2.686    -0.177    24.830     7.401
   927   1 H      0.860     0.221     1.003     1.569
   928   6 C      3.783     0.007    20.486     6.447
   929   1 H      0.924     0.091     1.873     2.140
   930   6 C      3.724     0.108    18.901     6.208
   931   1 H      0.924     0.058     2.226     2.333
   932   6 C      3.750    -0.141    23.279     6.881
   933   1 H      0.924     0.067     2.115     2.274
   934   1 H      0.925     0.066     2.130     2.282
   935   1 H      0.925     0.061     2.190     2.314
   936   8 O      1.657    -0.531    23.578     6.555
   937   1 H      0.808     0.338     0.616     1.233
   938   6 C      2.749     0.269    22.462     7.760
   939   8 O      0.858    -0.485    23.450     6.492
   940   7 N      2.688    -0.174    24.761     7.390
   941   1 H      0.860     0.218     1.018     1.580
   942   6 C      3.788     0.009    20.442     6.440
   943   1 H      0.925     0.108     1.716     2.048
   944   6 C      3.809    -0.091    22.230     6.711
   945   1 H      0.924     0.059     2.213     2.327
   946   1 H      0.925     0.095     1.834     2.118
   947   6 C      3.798    -0.081    22.054     6.687
   948   1 H      0.925     0.071     2.075     2.252
   949   1 H      0.924     0.038     2.480     2.463
   950   6 C      3.796    -0.106    22.537     6.760
   951   1 H      0.925     0.077     2.014     2.219
   952   1 H      0.924     0.103     1.760     2.075
   953   6 C      3.731    -0.060    21.754     6.658
   954   1 H      0.925     0.106     1.732     2.058
   955   1 H      0.924     0.127     1.560     1.953
   956   7 N      3.490    -0.150    24.224     7.310
   957   1 H      0.860     0.298     0.719     1.328
   958   1 H      0.860     0.313     0.675     1.287
   959   1 H      0.860     0.295     0.729     1.337
   960   6 C      2.757     0.274    22.369     7.745
   961   8 O      0.859    -0.477    23.270     6.468
   962   7 N      2.695    -0.188    25.071     7.437
   963   1 H      0.860     0.209     1.060     1.613
   964   6 C      3.792     0.032    20.043     6.376
   965   1 H      0.925     0.069     2.095     2.263
   966   6 C      3.810    -0.092    22.249     6.714
   967   1 H      0.925     0.023     2.682     2.561
   968   1 H      0.924     0.049     2.337     2.390
   969   6 C      2.687     0.372    20.697     7.445
   970   8 O      0.856    -0.674    28.004     7.095
   971   8 O      0.858    -0.630    26.866     6.949
   972   6 C      2.745     0.285    22.175     7.711
   973   8 O      0.863    -0.490    23.565     6.509
   974   7 N      2.688    -0.187    25.054     7.434
   975   1 H      0.860     0.208     1.068     1.619
   976   6 C      3.783     0.025    20.176     6.398
   977   1 H      0.925     0.073     2.048     2.238
   978   6 C      3.795    -0.066    21.775     6.645
   979   1 H      0.924     0.065     2.147     2.291
   980   1 H      0.925     0.070     2.081     2.256
   981   6 C      3.806    -0.093    22.276     6.719
   982   1 H      0.925     0.028     2.611     2.527
   983   1 H      0.924     0.037     2.484     2.465
   984   6 C      2.692     0.383    20.518     7.413
   985   8 O      0.859    -0.599    26.099     6.849
   986   8 O      0.859    -0.612    26.403     6.889
   987   6 C      2.746     0.263    22.562     7.778
   988   8 O      0.859    -0.510    24.003     6.569
   989   7 N      2.688    -0.161    24.485     7.349
   990   1 H      0.860     0.229     0.970     1.543
   991   6 C      3.787     0.018    20.289     6.416
   992   1 H      0.925     0.086     1.920     2.167
   993   6 C      3.753    -0.141    23.279     6.880
   994   1 H      0.925     0.076     2.022     2.224
   995   1 H      0.924     0.092     1.856     2.130
   996   1 H      0.924     0.079     1.993     2.208
   997   6 C      2.751     0.275    22.352     7.742
   998   8 O      0.860    -0.501    23.811     6.542
   999   7 N      2.681    -0.201    25.367     7.480
  1000   1 H      0.860     0.230     0.963     1.538
  1001   6 C      3.782     0.041    19.900     6.355
  1002   1 H      0.925     0.077     2.006     2.215
  1003   6 C      3.817    -0.055    21.542     6.606
  1004   1 H      0.924     0.043     2.405     2.425
  1005   1 H      0.925     0.035     2.517     2.481
  1006   6 C      3.786    -0.107    22.564     6.766
  1007   1 H      0.925     0.022     2.705     2.572
  1008   1 H      0.925     0.039     2.466     2.456
  1009   6 C      2.678     0.366    20.786     7.461
  1010   8 O      0.857    -0.618    26.562     6.910
  1011   8 O      0.857    -0.582    25.684     6.795
  1012   6 C      2.768     0.270    22.436     7.757
  1013   8 O      0.858    -0.508    23.969     6.564
  1014   7 N      2.685    -0.182    24.954     7.419
  1015   1 H      0.860     0.208     1.066     1.617
  1016   6 C      3.793     0.025    20.166     6.395
  1017   1 H      0.924     0.094     1.840     2.122
  1018   6 C      3.813    -0.072    21.875     6.657
  1019   1 H      0.925     0.066     2.129     2.282
  1020   1 H      0.924     0.067     2.115     2.274
  1021   6 C      3.808    -0.070    21.842     6.653
  1022   1 H      0.925     0.054     2.271     2.357
  1023   1 H      0.925     0.067     2.121     2.278
  1024   6 C      3.807    -0.102    22.448     6.745
  1025   1 H      0.925     0.075     2.027     2.226
  1026   1 H      0.925     0.070     2.086     2.259
  1027   6 C      3.727    -0.065    21.846     6.673
  1028   1 H      0.925     0.112     1.678     2.026
  1029   1 H      0.925     0.119     1.622     1.992
  1030   7 N      3.490    -0.144    24.099     7.291
  1031   1 H      0.860     0.309     0.688     1.299
  1032   1 H      0.860     0.300     0.714     1.324
  1033   1 H      0.860     0.300     0.714     1.323
  1034   6 C      2.754     0.272    22.408     7.752
  1035   8 O      0.864    -0.514    24.103     6.583
  1036   7 N      2.692    -0.170    24.675     7.378
  1037   1 H      0.860     0.216     1.027     1.587
  1038   6 C      3.790     0.012    20.378     6.429
  1039   1 H      0.925     0.093     1.847     2.125
  1040   6 C      3.809    -0.076    21.939     6.667
  1041   1 H      0.924     0.067     2.119     2.276
  1042   1 H      0.925     0.054     2.272     2.357
  1043   6 C      3.841    -0.030    21.078     6.531
  1044   1 H      0.924     0.048     2.349     2.397
  1045   6 C      3.744    -0.136    23.197     6.871
  1046   1 H      0.924     0.056     2.251     2.346
  1047   1 H      0.925     0.041     2.440     2.443
  1048   1 H      0.925     0.062     2.176     2.307
  1049   6 C      3.752    -0.135    23.153     6.862
  1050   1 H      0.925     0.061     2.185     2.312
  1051   1 H      0.924     0.056     2.244     2.343
  1052   1 H      0.925     0.039     2.466     2.456
  1053   6 C      2.757     0.276    22.325     7.737
  1054   8 O      0.858    -0.483    23.406     6.486
  1055   7 N      2.685    -0.198    25.300     7.470
  1056   1 H      0.860     0.215     1.034     1.593
  1057   6 C      3.787     0.040    19.913     6.356
  1058   1 H      0.924     0.067     2.116     2.275
  1059   6 C      3.802    -0.074    21.915     6.665
  1060   1 H      0.925     0.062     2.177     2.308
  1061   1 H      0.924     0.066     2.125     2.280
  1062   6 C      2.959     0.007    27.853     8.656
  1063   6 C      2.916    -0.031    28.781     8.797
  1064   1 H      0.926     0.015     2.803     2.618
  1065   6 C      2.919    -0.036    28.899     8.816
  1066   1 H      0.926     0.038     2.475     2.460
  1067   6 C      2.902    -0.040    29.004     8.830
  1068   1 H      0.926     0.059     2.207     2.323
  1069   6 C      2.921    -0.033    28.824     8.804
  1070   1 H      0.926     0.055     2.264     2.353
  1071   6 C      2.907    -0.045    29.112     8.847
  1072   1 H      0.926     0.050     2.319     2.381
  1073   6 C      2.747     0.270    22.443     7.757
  1074   8 O      0.860    -0.529    24.443     6.629
  1075   7 N      2.690    -0.170    24.683     7.379
  1076   1 H      0.860     0.229     0.970     1.543
  1077   6 C      3.790     0.040    19.908     6.355
  1078   1 H      0.924     0.083     1.944     2.180
  1079   6 C      3.813    -0.103    22.449     6.744
  1080   1 H      0.924     0.090     1.882     2.145
  1081   1 H      0.924     0.076     2.020     2.222
  1082   6 C      2.742     0.285    22.163     7.708
  1083   8 O      0.861    -0.503    23.848     6.547
  1084   7 N      2.637    -0.286    27.391     7.773
  1085   1 H      0.860     0.260     0.846     1.441
  1086   1 H      0.860     0.238     0.933     1.513
  1087   6 C      2.751     0.277    22.310     7.734
  1088   8 O      0.862    -0.498    23.746     6.533
  1089   7 N      2.690    -0.183    24.970     7.421
  1090   1 H      0.860     0.197     1.123     1.660
  1091   6 C      3.796     0.030    20.071     6.379
  1092   1 H      0.925     0.091     1.867     2.137
  1093   6 C      3.798    -0.066    21.768     6.643
  1094   1 H      0.925     0.073     2.055     2.242
  1095   1 H      0.924     0.061     2.190     2.314
  1096   6 C      3.798    -0.103    22.468     6.749
  1097   1 H      0.925     0.072     2.062     2.245
  1098   1 H      0.925     0.083     1.947     2.182
  1099   6 C      2.743     0.276    22.325     7.736
  1100   8 O      0.871    -0.559    25.132     6.722
  1101   7 N      2.649    -0.253    26.590     7.658
  1102   1 H      0.860     0.244     0.908     1.492
  1103   1 H      0.860     0.233     0.953     1.529
  1104   6 C      2.753     0.275    22.351     7.742
  1105   8 O      0.860    -0.513    24.067     6.578
  1106   7 N      2.684    -0.187    25.059     7.435
  1107   1 H      0.860     0.223     0.997     1.564
  1108   6 C      3.780     0.036    19.995     6.370
  1109   1 H      0.925     0.073     2.056     2.242
  1110   6 C      3.807    -0.084    22.104     6.693
  1111   1 H      0.925     0.038     2.476     2.461
  1112   1 H      0.925     0.034     2.524     2.484
  1113   6 C      2.689     0.377    20.622     7.432
  1114   8 O      0.859    -0.596    26.028     6.840
  1115   8 O      0.858    -0.640    27.128     6.983
  1116   6 C      2.745     0.275    22.345     7.740
  1117   8 O      0.861    -0.483    23.411     6.487
  1118   7 N      2.683    -0.195    25.242     7.462
  1119   1 H      0.860     0.209     1.059     1.612
  1120   6 C      3.792     0.013    20.362     6.426
  1121   1 H      0.924     0.077     2.007     2.216
  1122   6 C      3.852    -0.019    20.880     6.499
  1123   1 H      0.924     0.028     2.616     2.529
  1124   6 C      3.759    -0.127    22.979     6.834
  1125   1 H      0.925     0.042     2.428     2.437
  1126   1 H      0.925     0.078     2.003     2.213
  1127   1 H      0.924     0.068     2.112     2.273
  1128   6 C      3.765    -0.124    22.914     6.823
  1129   1 H      0.925     0.059     2.207     2.323
  1130   1 H      0.924     0.036     2.505     2.475
  1131   1 H      0.925     0.062     2.171     2.304
  1132   6 C      2.751     0.293    22.026     7.685
  1133   8 O      0.877    -0.440    22.495     6.359
  1134   7 N      2.710    -0.194    25.200     7.456
  1135   1 H      0.860     0.173     1.254     1.754
  1136   6 C      3.782     0.038    19.962     6.365
  1137   1 H      0.924     0.075     2.036     2.232
  1138   6 C      3.792    -0.099    22.398     6.740
  1139   1 H      0.924     0.029     2.599     2.521
  1140   1 H      0.925     0.041     2.437     2.441
  1141   6 C      2.687     0.372    20.695     7.445
  1142   8 O      0.857    -0.624    26.708     6.929
  1143   8 O      0.858    -0.624    26.724     6.931
  1144   6 C      2.756     0.282    22.231     7.721
  1145   8 O      0.865    -0.475    23.224     6.461
  1146   7 N      2.692    -0.187    25.045     7.433
  1147   1 H      0.860     0.207     1.073     1.622
  1148   6 C      3.781     0.021    20.242     6.409
  1149   1 H      0.924     0.088     1.902     2.157
  1150   6 C      3.747    -0.142    23.311     6.887
  1151   1 H      0.924     0.085     1.930     2.173
  1152   1 H      0.925     0.096     1.817     2.108
  1153   1 H      0.925     0.057     2.239     2.340
  1154   6 C      2.747     0.271    22.417     7.753
  1155   8 O      0.860    -0.486    23.473     6.496
  1156   7 N      2.685    -0.175    24.786     7.394
  1157   1 H      0.860     0.196     1.128     1.664
  1158   6 C      3.786     0.029    20.106     6.387
  1159   1 H      0.925     0.089     1.892     2.151
  1160   6 C      3.755    -0.122    22.902     6.824
  1161   1 H      0.925     0.065     2.142     2.289
  1162   1 H      0.925     0.064     2.156     2.296
  1163   1 H      0.924     0.074     2.043     2.235
  1164   6 C      2.745     0.261    22.598     7.784
  1165   8 O      0.865    -0.474    23.224     6.461
  1166   7 N      2.688    -0.190    25.110     7.442
  1167   1 H      0.860     0.204     1.084     1.631
  1168   6 C      3.782     0.018    20.296     6.418
  1169   1 H      0.925     0.092     1.856     2.130
  1170   6 C      3.845    -0.018    20.867     6.498
  1171   1 H      0.924     0.076     2.026     2.226
  1172   6 C      3.752    -0.127    23.002     6.840
  1173   1 H      0.925     0.045     2.380     2.413
  1174   1 H      0.925     0.057     2.236     2.338
  1175   1 H      0.924     0.058     2.219     2.330
  1176   6 C      3.749    -0.111    22.696     6.795
  1177   1 H      0.925     0.033     2.544     2.494
  1178   1 H      0.925     0.046     2.372     2.409
  1179   1 H      0.925     0.026     2.644     2.543
  1180   6 C      2.741     0.277    22.315     7.735
  1181   8 O      0.860    -0.436    22.410     6.347
  1182   7 N      2.685    -0.232    26.070     7.583
  1183   1 H      0.860     0.209     1.060     1.613
  1184   6 C      3.783     0.025    20.168     6.397
  1185   1 H      0.925     0.082     1.963     2.191
  1186   6 C      3.797    -0.084    22.100     6.694
  1187   1 H      0.925     0.056     2.248     2.344
  1188   1 H      0.924     0.062     2.181     2.310
  1189   6 C      3.790    -0.081    22.058     6.689
  1190   1 H      0.924     0.088     1.903     2.158
  1191   1 H      0.925     0.078     2.001     2.212
  1192   6 C      3.719    -0.038    21.378     6.604
  1193   1 H      0.925     0.088     1.902     2.157
  1194   1 H      0.925     0.116     1.647     2.007
  1195   7 N      2.705    -0.180    24.897     7.411
  1196   1 H      0.860     0.238     0.931     1.511
  1197   6 C      2.732     0.243    22.925     7.839
  1198   7 N      2.685    -0.241    26.285     7.614
  1199   1 H      0.860     0.243     0.912     1.496
  1200   1 H      0.860     0.234     0.949     1.526
  1201   7 N      2.704    -0.280    27.217     7.748
  1202   1 H      0.860     0.244     0.906     1.491
  1203   1 H      0.860     0.258     0.853     1.447
  1204   6 C      2.746     0.261    22.603     7.785
  1205   8 O      0.859    -0.505    23.905     6.555
  1206   7 N      2.683    -0.161    24.485     7.349
  1207   1 H      0.860     0.226     0.983     1.553
  1208   6 C      3.731    -0.018    20.993     6.540
  1209   1 H      0.925     0.081     1.973     2.196
  1210   1 H      0.925     0.092     1.861     2.133
  1211   6 C      2.742     0.262    22.582     7.781
  1212   8 O      0.856    -0.488    23.516     6.502
  1213   7 N      2.677    -0.197    25.282     7.468
  1214   1 H      0.860     0.205     1.079     1.627
  1215   6 C      3.786     0.012    20.383     6.431
[...]
  2282  H   0.992        C 2281 0.953
  2283  H   0.991        C 2281 0.960
  2284  C   3.948        O 2285 1.664    N 2286 1.312    C 2281 0.946
  2285  O   1.975        C 2284 1.664    N 2286 0.202
  2286  N   3.393        C 2284 1.312    H 2288 0.933    H 2287 0.914    O 2285 0.202
  2287  H   0.938        N 2286 0.914
  2288  H   0.954        N 2286 0.933
  2289  C   3.946        O 2290 1.669    N 2291 1.279    C 2279 0.919
  2290  O   1.999        C 2289 1.669    N 2291 0.201
  2291  N   3.459        C 2289 1.279    C 2293 0.976    H 2292 0.927    O 2290 0.201
  2292  H   0.958        N 2291 0.927
  2293  C   3.964        C 2295 0.977    N 2291 0.976    C 2313 0.955    H 2294 0.947
  2294  H   0.990        C 2293 0.947
  2295  C   3.983        C 2298 0.999    C 2293 0.977    H 2297 0.964    H 2296 0.963
  2296  H   0.994        C 2295 0.963
  2297  H   0.992        C 2295 0.964
  2298  C   3.980        C 2301 1.009    C 2295 0.999    H 2300 0.970    H 2299 0.963
  2299  H   0.993        C 2298 0.963
  2300  H   0.993        C 2298 0.970
  2301  C   3.940        C 2298 1.009    H 2302 0.967    H 2303 0.963    N 2304 0.951
  2302  H   0.994        C 2301 0.967
  2303  H   0.993        C 2301 0.963
  2304  N   3.449        C 2306 1.349    C 2301 0.951    H 2305 0.853    N 2310 0.110
  2305  H   0.939        N 2304 0.853
  2306  C   3.977        N 2304 1.349    N 2310 1.334    N 2307 1.263
  2307  N   3.369        C 2306 1.263    H 2308 0.937    H 2309 0.928
  2308  H   0.958        N 2307 0.937
  2309  H   0.948        N 2307 0.928
  2310  N   3.400        C 2306 1.334    H 2311 0.927    H 2312 0.868    N 2304 0.110
  2311  H   0.953        N 2310 0.927
  2312  H   0.925        N 2310 0.868
  2313  C   3.950        O 2314 1.570    N 2315 1.338    C 2293 0.955
  2314  O   1.908        C 2313 1.570    N 2315 0.200
  2315  N   3.488        C 2313 1.338    C 2317 0.970    H 2316 0.880    O 2314 0.200
  2316  H   0.941        N 2315 0.880
  2317  C   3.961        C 2319 0.983    N 2315 0.970    C 2323 0.968    H 2318 0.944
  2318  H   0.991        C 2317 0.944
  2319  C   3.981        C 2317 0.983    H 2321 0.979    H 2320 0.976    H 2322 0.975
  2320  H   0.996        C 2319 0.976
  2321  H   0.994        C 2319 0.979
  2322  H   0.995        C 2319 0.975
  2323  C   3.951        O 2324 1.605    N 2325 1.288    C 2317 0.968
  2324  O   1.983        C 2323 1.605    N 2325 0.196
  2325  N   3.466        C 2323 1.288    C 2327 0.973    H 2326 0.921    O 2324 0.196
  2326  H   0.956        N 2325 0.921
  2327  C   3.952        C 2329 0.989    N 2325 0.973    H 2328 0.945    C 2345 0.916
  2328  H   0.993        C 2327 0.945
  2329  C   3.975        C 2332 1.001    C 2327 0.989    H 2330 0.969    H 2331 0.954
  2330  H   0.994        C 2329 0.969
  2331  H   0.989        C 2329 0.954
  2332  C   3.989        C 2335 1.011    C 2329 1.001    H 2334 0.975    H 2333 0.967
  2333  H   0.996        C 2332 0.967
  2334  H   0.997        C 2332 0.975
  2335  C   3.977        C 2332 1.011    C 2338 0.993    H 2337 0.973    H 2336 0.967
  2336  H   0.991        C 2335 0.967
  2337  H   0.993        C 2335 0.973
  2338  C   3.899        C 2335 0.993    H 2339 0.967    H 2340 0.965    N 2341 0.952
  2339  H   0.984        C 2338 0.967
  2340  H   0.983        C 2338 0.965
  2341  N   3.653        C 2338 0.952    H 2343 0.897    H 2342 0.896    H 2344 0.892
  2342  H   0.916        N 2341 0.896
  2343  H   0.911        N 2341 0.897
  2344  H   0.912        N 2341 0.892
  2345  C   3.940        O 2346 1.611    N 2347 1.323    C 2327 0.916
  2346  O   1.977        C 2345 1.611    N 2347 0.196
  2347  N   3.480        C 2345 1.323    C 2349 0.972    H 2348 0.909    O 2346 0.196
  2348  H   0.950        N 2347 0.909
  2349  C   3.961        C 2351 0.979    N 2347 0.972    H 2350 0.947    C 2369 0.946
  2350  H   0.990        C 2349 0.947
  2351  C   3.981        C 2354 1.014    C 2349 0.979    H 2352 0.967    H 2353 0.963
  2352  H   0.994        C 2351 0.967
  2353  H   0.989        C 2351 0.963
  2354  C   3.986        C 2351 1.014    C 2357 1.000    H 2356 0.970    H 2355 0.963
  2355  H   0.994        C 2354 0.963
  2356  H   0.998        C 2354 0.970
  2357  C   3.951        C 2354 1.000    N 2360 0.974    H 2359 0.964    H 2358 0.962
  2358  H   0.990        C 2357 0.962
  2359  H   0.997        C 2357 0.964
  2360  N   3.464        C 2362 1.314    C 2357 0.974    H 2361 0.908    N 2363 0.103
  2361  H   0.949        N 2360 0.908
  2362  C   3.980        N 2363 1.338    N 2360 1.314    N 2366 1.302
  2363  N   3.403        C 2362 1.338    H 2364 0.908    H 2365 0.908    N 2366 0.105    N 2360 0.103
  2364  H   0.935        N 2363 0.908
  2365  H   0.934        N 2363 0.908
  2366  N   3.370        C 2362 1.302    H 2367 0.914    H 2368 0.866    N 2363 0.105
  2367  H   0.942        N 2366 0.914
  2368  H   0.942        N 2366 0.866
  2369  C   3.945        O 2370 1.615    N 2371 1.305    C 2349 0.946
  2370  O   1.959        C 2369 1.615    N 2371 0.197
  2371  N   3.463        C 2369 1.305    C 2373 0.967    H 2372 0.897    O 2370 0.197
  2372  H   0.948        N 2371 0.897
  2373  C   3.960        C 2375 0.968    N 2371 0.967    H 2374 0.951    C 2385 0.936
  2374  H   0.995        C 2373 0.951
  2375  C   3.987        C 2381 1.013    C 2377 0.996    C 2373 0.968    H 2376 0.960
  2376  H   0.996        C 2375 0.960
  2377  C   3.989        C 2375 0.996    H 2380 0.986    H 2378 0.981    H 2379 0.980
  2378  H   0.996        C 2377 0.981
  2379  H   0.998        C 2377 0.980
  2380  H   0.998        C 2377 0.986
  2381  C   3.989        C 2375 1.013    H 2382 0.981    H 2383 0.979    H 2384 0.978
  2382  H   0.997        C 2381 0.981
  2383  H   0.996        C 2381 0.979
  2384  H   0.998        C 2381 0.978
  2385  C   3.948        O 2386 1.611    N 2387 1.323    C 2373 0.936
  2386  O   1.946        C 2385 1.611    N 2387 0.197
  2387  N   3.449        C 2385 1.323    C 2389 0.960    H 2388 0.860    O 2386 0.197
  2388  H   0.937        N 2387 0.860
  2389  C   3.958        N 2387 0.960    C 2404 0.959    H 2390 0.954    C 2391 0.949
  2390  H   0.994        C 2389 0.954
  2391  C   3.979        C 2397 1.002    C 2393 1.000    H 2392 0.956    C 2389 0.949
  2392  H   0.995        C 2391 0.956
  2393  C   3.983        C 2391 1.000    H 2394 0.985    H 2396 0.982    H 2395 0.974
  2394  H   0.997        C 2393 0.985
  2395  H   0.993        C 2393 0.974
  2396  H   0.998        C 2393 0.982
  2397  C   3.993        C 2400 1.010    C 2391 1.002    H 2399 0.976    H 2398 0.971
  2398  H   0.997        C 2397 0.971
  2399  H   0.999        C 2397 0.976
  2400  C   3.988        C 2397 1.010    H 2401 0.984    H 2402 0.983    H 2403 0.982
  2401  H   0.996        C 2400 0.984
  2402  H   0.998        C 2400 0.983
  2403  H   0.998        C 2400 0.982
  2404  C   3.946        O 2405 1.596    N 2406 1.306    C 2389 0.959
  2405  O   1.943        C 2404 1.596    N 2406 0.191
  2406  N   3.465        C 2404 1.306    C 2408 0.979    H 2407 0.889    O 2405 0.191
  2407  H   0.947        N 2406 0.889
  2408  C   3.959        N 2406 0.979    H 2409 0.954    C 2410 0.937    C 2418 0.926
  2409  H   0.992        C 2408 0.954
  2410  C   3.955        O 2416 1.023    C 2412 0.995    H 2411 0.960    C 2408 0.937
  2411  H   0.997        C 2410 0.960
  2412  C   3.985        C 2410 0.995    H 2413 0.984    H 2414 0.981    H 2415 0.977
  2413  H   0.997        C 2412 0.984
  2414  H   0.993        C 2412 0.981
  2415  H   0.995        C 2412 0.977
  2416  O   1.972        C 2410 1.023    H 2417 0.830
  2417  H   0.888        O 2416 0.830
  2418  C   3.944        O 2419 1.608    N 2420 1.322    C 2408 0.926
  2419  O   1.942        C 2418 1.608    N 2420 0.191
  2420  N   3.474        C 2418 1.322    C 2422 0.978    H 2421 0.903    O 2419 0.191
  2421  H   0.949        N 2420 0.903
  2422  C   3.958        N 2420 0.978    C 2424 0.960    H 2423 0.951    C 2432 0.919
  2423  H   0.993        C 2422 0.951
  2424  C   3.955        C 2426 0.997    O 2430 0.989    H 2425 0.962    C 2422 0.960
  2425  H   0.998        C 2424 0.962
  2426  C   3.987        C 2424 0.997    H 2429 0.983    H 2427 0.981    H 2428 0.980
  2427  H   0.996        C 2426 0.981
  2428  H   0.998        C 2426 0.980
  2429  H   0.996        C 2426 0.983
  2430  O   1.937        C 2424 0.989    H 2431 0.857
  2431  H   0.894        O 2430 0.857
  2432  C   3.950        O 2433 1.636    N 2434 1.306    C 2422 0.919
  2433  O   1.957        C 2432 1.636    N 2434 0.191
  2434  N   3.478        C 2432 1.306    C 2436 0.999    H 2435 0.894    O 2433 0.191
  2435  H   0.953        N 2434 0.894
  2436  C   3.956        N 2434 0.999    C 2438 0.954    H 2437 0.942    C 2452 0.925
  2437  H   0.994        C 2436 0.942
  2438  C   3.983        C 2441 1.017    H 2439 0.961    H 2440 0.958    C 2436 0.954
  2439  H   0.994        C 2438 0.961
  2440  H   0.994        C 2438 0.958
  2441  C   3.984        C 2450 1.419    C 2442 1.381    C 2438 1.017    C 2446 0.121
  2442  C   3.985        C 2444 1.465    C 2441 1.381    H 2443 0.965    C 2448 0.113
  2443  H   0.999        C 2442 0.965
  2444  C   3.992        C 2442 1.465    C 2446 1.434    H 2445 0.968
  2445  H   0.998        C 2444 0.968
  2446  C   3.987        C 2444 1.434    C 2448 1.421    H 2447 0.967    C 2441 0.121
  2447  H   0.997        C 2446 0.967
  2448  C   3.989        C 2450 1.450    C 2446 1.421    H 2449 0.961    C 2442 0.113
  2449  H   0.998        C 2448 0.961
  2450  C   3.989        C 2448 1.450    C 2441 1.419    H 2451 0.966
  2451  H   0.997        C 2450 0.966
  2452  C   3.947        O 2453 1.620    N 2454 1.320    C 2436 0.925
  2453  O   1.947        C 2452 1.620    N 2454 0.193
  2454  N   3.459        C 2452 1.320    C 2456 0.955    H 2455 0.892    O 2453 0.193
  2455  H   0.951        N 2454 0.892
  2456  C   3.963        C 2458 1.004    N 2454 0.955    C 2476 0.950    H 2457 0.945
  2457  H   0.993        C 2456 0.945
  2458  C   3.983        C 2456 1.004    C 2461 0.989    H 2459 0.968    H 2460 0.962
  2459  H   0.995        C 2458 0.968
  2460  H   0.992        C 2458 0.962
  2461  C   3.988        C 2464 1.008    C 2458 0.989    H 2463 0.977    H 2462 0.973
  2462  H   0.996        C 2461 0.973
  2463  H   0.996        C 2461 0.977
  2464  C   3.955        C 2461 1.008    N 2467 0.987    H 2465 0.961    H 2466 0.960
  2465  H   0.992        C 2464 0.961
  2466  H   0.993        C 2464 0.960
  2467  N   3.448        C 2469 1.293    C 2464 0.987    H 2468 0.908
  2468  H   0.954        N 2467 0.908
  2469  C   3.979        N 2470 1.336    N 2473 1.322    N 2467 1.293
  2470  N   3.399        C 2469 1.336    H 2472 0.911    H 2471 0.908    N 2473 0.107
  2471  H   0.933        N 2470 0.908
  2472  H   0.938        N 2470 0.911
  2473  N   3.380        C 2469 1.322    H 2474 0.917    H 2475 0.855    N 2470 0.107
  2474  H   0.941        N 2473 0.917
  2475  H   0.936        N 2473 0.855
  2476  C   3.948        O 2477 1.587    N 2478 1.330    C 2456 0.950
  2477  O   1.901        C 2476 1.587    N 2478 0.194
  2478  N   3.491        C 2476 1.330    C 2480 0.975    H 2479 0.909    O 2477 0.194
  2479  H   0.951        N 2478 0.909
  2480  C   3.962        N 2478 0.975    C 2482 0.952    C 2490 0.949    H 2481 0.946
  2481  H   0.989        C 2480 0.946
  2482  C   3.954        C 2484 1.002    O 2488 0.981    H 2483 0.967    C 2480 0.952
  2483  H   0.999        C 2482 0.967
  2484  C   3.982        C 2482 1.002    H 2486 0.981    H 2485 0.980    H 2487 0.977
  2485  H   0.996        C 2484 0.980
  2486  H   0.997        C 2484 0.981
  2487  H   0.992        C 2484 0.977
  2488  O   1.943        C 2482 0.981    H 2489 0.864
  2489  H   0.897        O 2488 0.864
  2490  C   3.951        O 2491 1.645    N 2492 1.279    C 2480 0.949
  2491  O   1.958        C 2490 1.645    N 2492 0.197
  2492  N   3.461        C 2490 1.279    C 2494 0.998    H 2493 0.918    O 2491 0.197
  2493  H   0.952        N 2492 0.918
  2494  C   3.959        N 2492 0.998    H 2495 0.956    H 2496 0.954    C 2497 0.925
  2495  H   0.990        C 2494 0.956
  2496  H   0.991        C 2494 0.954
  2497  C   3.946        O 2498 1.672    N 2499 1.288    C 2494 0.925
  2498  O   1.987        C 2497 1.672    N 2499 0.197
  2499  N   3.461        C 2497 1.288    C 2501 0.987    H 2500 0.906    O 2498 0.197
  2500  H   0.953        N 2499 0.906
  2501  C   3.977        N 2499 0.987    C 2503 0.968    H 2502 0.946    C 2511 0.942
  2502  H   0.994        C 2501 0.946
  2503  C   3.950        C 2505 0.989    C 2501 0.968    O 2509 0.967    H 2504 0.965
  2504  H   0.998        C 2503 0.965
  2505  C   3.988        C 2503 0.989    H 2508 0.986    H 2506 0.984    H 2507 0.983
  2506  H   0.996        C 2505 0.984
  2507  H   0.996        C 2505 0.983
  2508  H   0.996        C 2505 0.986
  2509  O   1.932        C 2503 0.967    H 2510 0.846
  2510  H   0.898        O 2509 0.846
  2511  C   3.949        O 2512 1.666    N 2513 1.253    C 2501 0.942
  2512  O   1.971        C 2511 1.666    N 2513 0.194
  2513  N   3.434        C 2511 1.253    C 2515 0.969    H 2514 0.929    O 2512 0.194
  2514  H   0.963        N 2513 0.929
  2515  C   3.953        C 2517 0.972    N 2513 0.969    C 2535 0.946    H 2516 0.925
  2516  H   0.988        C 2515 0.925
  2517  C   3.978        C 2520 1.013    C 2515 0.972    H 2519 0.966    H 2518 0.954
  2518  H   0.995        C 2517 0.954
  2519  H   0.998        C 2517 0.966
  2520  C   3.962        C 2521 1.584    C 2534 1.178    C 2517 1.013
  2521  C   3.954        C 2520 1.584    N 2523 1.206    H 2522 0.966
  2522  H   0.995        C 2521 0.966
  2523  N   3.550        C 2521 1.206    C 2525 1.183    H 2524 0.924
  2524  H   0.958        N 2523 0.924
  2525  C   3.965        C 2526 1.398    C 2534 1.207    N 2523 1.183
  2526  C   3.984        C 2525 1.398    C 2528 1.380    H 2527 0.966    C 2532 0.141
  2527  H   0.996        C 2526 0.966
  2528  C   3.991        C 2530 1.508    C 2526 1.380    H 2529 0.965
  2529  H   0.997        C 2528 0.965
  2530  C   3.991        C 2528 1.508    C 2532 1.378    H 2531 0.967
  2531  H   0.999        C 2530 0.967
  2532  C   3.990        C 2534 1.412    C 2530 1.378    H 2533 0.970    C 2526 0.141
  2533  H   1.000        C 2532 0.970
  2534  C   3.986        C 2532 1.412    C 2525 1.207    C 2520 1.178
  2535  C   3.943        O 2536 1.594    N 2537 1.317    C 2515 0.946
  2536  O   1.915        C 2535 1.594    N 2537 0.192
  2537  N   3.466        C 2535 1.317    C 2539 0.954    H 2538 0.916    O 2536 0.192
  2538  H   0.960        N 2537 0.916
  2539  C   3.959        C 2541 1.006    N 2537 0.954    H 2540 0.950    C 2547 0.911
  2540  H   0.997        C 2539 0.950
  2541  C   3.987        C 2539 1.006    H 2543 0.963    H 2542 0.958    C 2544 0.922
  2542  H   0.996        C 2541 0.958
  2543  H   0.996        C 2541 0.963
  2544  C   3.937        O 2546 1.527    O 2545 1.458    C 2541 0.922
  2545  O   1.796        C 2544 1.458    O 2546 0.218
  2546  O   1.820        C 2544 1.527    O 2545 0.218
  2547  C   3.945        O 2548 1.666    N 2549 1.270    C 2539 0.911
  2548  O   1.976        C 2547 1.666    N 2549 0.196
  2549  N   3.451        C 2547 1.270    C 2551 0.984    H 2550 0.924    O 2548 0.196
  2550  H   0.956        N 2549 0.924
  2551  C   3.952        C 2553 0.991    N 2549 0.984    C 2557 0.946    H 2552 0.932
  2552  H   0.992        C 2551 0.932
  2553  C   3.974        C 2551 0.991    H 2556 0.981    H 2555 0.978    H 2554 0.975
  2554  H   0.994        C 2553 0.975
  2555  H   0.990        C 2553 0.978
  2556  H   0.993        C 2553 0.981
  2557  C   3.944        O 2558 1.635    N 2559 1.262    C 2551 0.946
  2558  O   1.942        C 2557 1.635    N 2559 0.191
  2559  N   3.482        C 2557 1.262    C 2561 1.025    H 2560 0.924    O 2558 0.191
  2560  H   0.965        N 2559 0.924
  2561  C   3.971        N 2559 1.025    C 2563 0.943    H 2562 0.942    C 2578 0.924
  2562  H   0.995        C 2561 0.942
  2563  C   3.986        C 2566 1.004    H 2564 0.972    H 2565 0.970    C 2561 0.943
  2564  H   0.999        C 2563 0.972
  2565  H   0.997        C 2563 0.970
  2566  C   3.981        C 2576 1.414    C 2567 1.397    C 2563 1.004
  2567  C   3.987        C 2569 1.453    C 2566 1.397    H 2568 0.968    C 2574 0.113
  2568  H   0.998        C 2567 0.968
  2569  C   3.987        C 2567 1.453    C 2571 1.373    H 2570 0.963    C 2576 0.101
  2570  H   0.996        C 2569 0.963
  2571  C   3.950        C 2569 1.373    C 2574 1.349    O 2572 1.103
  2572  O   2.109        C 2571 1.103    H 2573 0.803
  2573  H   0.880        O 2572 0.803
  2574  C   3.983        C 2576 1.446    C 2571 1.349    H 2575 0.956    C 2567 0.113
  2575  H   0.997        C 2574 0.956
  2576  C   3.986        C 2574 1.446    C 2566 1.414    H 2577 0.967    C 2569 0.101
  2577  H   0.999        C 2576 0.967
  2578  C   3.942        O 2579 1.604    N 2580 1.312    C 2561 0.924
  2579  O   1.912        C 2578 1.604    N 2580 0.193
  2580  N   3.468        C 2578 1.312    C 2582 0.959    H 2581 0.920    O 2579 0.193
  2581  H   0.956        N 2580 0.920
  2582  C   3.942        C 2584 0.984    H 2583 0.962    N 2580 0.959    C 2600 0.907
  2583  H   0.999        C 2582 0.962
  2584  C   3.982        C 2587 0.995    C 2582 0.984    H 2585 0.974    H 2586 0.974
  2585  H   0.997        C 2584 0.974
  2586  H   0.996        C 2584 0.974
  2587  C   3.987        C 2590 1.005    C 2584 0.995    H 2588 0.976    H 2589 0.975
  2588  H   0.997        C 2587 0.976
  2589  H   0.998        C 2587 0.975
  2590  C   3.976        C 2593 1.005    C 2587 1.005    H 2591 0.973    H 2592 0.963
  2591  H   0.994        C 2590 0.973
  2592  H   0.988        C 2590 0.963
  2593  C   3.918        C 2590 1.005    H 2595 0.966    H 2594 0.965    N 2596 0.961
  2594  H   0.988        C 2593 0.965
  2595  H   0.985        C 2593 0.966
  2596  N   3.658        C 2593 0.961    H 2597 0.895    H 2599 0.892    H 2598 0.890
  2597  H   0.912        N 2596 0.895
  2598  H   0.904        N 2596 0.890
  2599  H   0.906        N 2596 0.892
  2600  C   3.935        O 2601 1.496    O 2602 1.489    C 2582 0.907
  2601  O   1.796        C 2600 1.496    O 2602 0.224
  2602  O   1.785        C 2600 1.489    O 2601 0.224

molecular dipole:
                 x           y           z       tot (Debye)
 q only:      622.695     707.144     636.761
   full:      624.884     706.404     644.481    2903.431
molecular quadrupole (traceless):
                xx          xy          yy          xz          yz          zz
 q only:    -7246.725   78755.912   12405.672   69554.223   79845.240   -5158.948
  q+dip:    -7573.027   78446.383   11469.441   70530.991   80578.966   -3896.414
   full:    -7564.903   78443.275   11454.469   70529.473   80571.350   -3889.566


           -------------------------------------------------
          | TOTAL ENERGY            -4085.262069817854 Eh   |
          | GRADIENT NORM               1.330525763313 Eh/α |
          | HOMO-LUMO GAP               2.008759335400 eV   |
           -------------------------------------------------
########################################################################
[WARNING] Runtime exception occurred
-2- restart_readRestart: Dimension missmatch in restart file.
-1- restart_readRestart: Number of electron missmatch in restart file.
########################################################################

------------------------------------------------------------------------
 * finished run on 2020/05/27 at 22:50:28.612     
------------------------------------------------------------------------
 total:
 * wall-time:     0 d,  0 h,  7 min, 17.704 sec
 *  cpu-time:     0 d,  5 h, 30 min, 16.810 sec
 * ratio c/w:    45.274 speedup
 SCF:
 * wall-time:     0 d,  0 h,  6 min, 46.869 sec
 *  cpu-time:     0 d,  5 h, 18 min, 38.503 sec
 * ratio c/w:    46.989 speedup

