      -----------------------------------------------------------      
     |                   =====================                   |     
     |                           x T B                           |     
     |                   =====================                   |     
     |                         S. Grimme                         |     
     |          Mulliken Center for Theoretical Chemistry        |     
     |                    University of Bonn                     |     
      -----------------------------------------------------------      

   * xtb version 6.2.3 (d7bf61a) compiled by 'conda@06d140edd85e' on 2020-05-12

   xtb is free software: you can redistribute it and/or modify it under
   the terms of the GNU Lesser General Public License as published by
   the Free Software Foundation, either version 3 of the License, or
   (at your option) any later version.
   
   xtb is distributed in the hope that it will be useful,
   but WITHOUT ANY WARRANTY; without even the implied warranty of
   MERCHANTABILITY or FITNESS FOR A PARTICULAR PURPOSE.  See the
   GNU Lesser General Public License for more details.
   
   Cite this work as:
   * S. Grimme, C. Bannwarth, P. Shushkov, J. Chem. Theory Comput., 2017,
     13, 1989-2009. DOI: 10.1021/acs.jctc.7b00118
   * C. Bannwarth, S. Ehlert and S. Grimme., J. Chem. Theory Comput., 2019,
     15, 1652-1671. DOI: 10.1021/acs.jctc.8b01176
   * P. Pracht, E. Caldeweyher, S. Ehlert, S. Grimme, ChemRxiv, 2019, preprint.
     DOI: 10.26434/chemrxiv.8326202.v1
   
   for DFT-D4:
   * E. Caldeweyher, C. Bannwarth and S. Grimme, J. Chem. Phys., 2017,
     147, 034112. DOI: 10.1063/1.4993215
   * E. Caldeweyher, S. Ehlert, A. Hansen, H. Neugebauer, S. Spicher,
     C. Bannwarth and S. Grimme, J. Chem. Phys., 2019, 150, 154122.
     DOI: 10.1063/1.5090222
   
   for sTDA-xTB:
   * S. Grimme and C. Bannwarth, J. Chem. Phys., 2016, 145, 054103.
     DOI: 10.1063/1.4959605
   
   in the mass-spec context:
   * V. Asgeirsson, C. Bauer and S. Grimme, Chem. Sci., 2017, 8, 4879.
     DOI: 10.1039/c7sc00601b
   
   for metadynamics refer to:
   * S. Grimme, J. Chem. Theory Comput., 2019, 155, 2847-2862
     DOI: 10.1021/acs.jctc.9b00143
   
   with help from (in alphabetical order)
   C. Bannwarth, F. Bohle, G. Brandenburg, E. Caldeweyher, M. Checinski,
   S. Dohm, S. Ehlert, S. Ehrlich, F. März, H. Neugebauer, J. Pisarek,
   P. Pracht, P. Shushkov, and S. Spicher.
   
 * started run on 2020/06/08 at 11:29:44.598     

           -------------------------------------------------
          |                Calculation Setup                |
           -------------------------------------------------

          program call               : xtb host_11501.xyz --chrg +9 --uhf 0 --gbsa water
          hostname                   : gold59.cluster.local
          coordinate file            : host_11501.xyz
          omp threads                :                    64
          number of atoms            :                  2602
          number of electrons        :                  7192
          charge                     :                     9
          spin                       :                   0.0
          first test random number   :      0.28061650514538

########################################################################
[WARNING] Please study the warnings concerning your input carefully
-2- prog_main: XTBPATH is not set, using XTBHOME instead
-1- prog_main: XTBHOME is not set, using HOME instead
########################################################################
           ------------------------------------------------- 
          |                 G F N 2 - x T B                 |
          | Geometry, Frequencies, Noncovalent interactions |
          |            JCTC 2019 parametrisation            |
           ------------------------------------------------- 
             k(s)              :                1.8500
             k(p)              :                2.2300
             k(d)              :                2.2300
             k(f)              :                2.0000
             kEN (H0ij)        :               -2.0000
             D4 a1             :                0.5200
             D4 a2             :                5.0000
             D4 s6             :                1.0000
             D4 s8             :                2.7000
             D4 s9             :                5.0000
             alphaj            :                2.0000

  Z AO/shell   Hii/eV     exponent
  1     Wed Apr 25 08:07:45 CEST 2018   EN: 2.200 GM2: 0.406  GM3: 0.0800  RAES: 1.40
     1s    -10.707211    1.230000
  6     Wed Apr 25 08:07:45 CEST 2018   EN: 2.550 GM2: 0.538  GM3: 0.1500  RAES: 3.00
     2s    -13.970922    2.096432
     2p    -10.063292    1.800000
  7     Wed Apr 25 08:07:45 CEST 2018   EN: 3.040 GM2: 0.461  GM3:-0.0640  RAES: 1.90
     2s    -16.686243    2.339881
     2p    -12.523956    2.014332
  8     Wed Apr 25 08:07:45 CEST 2018   EN: 3.440 GM2: 0.452  GM3:-0.0517  RAES: 1.80
     2s    -20.229985    2.439742
     2p    -15.503117    2.137023
 16     Tue Apr 24 11:44:34 CEST 2018   EN: 2.580 GM2: 0.340  GM3:-0.0502  RAES: 3.10
     3s    -20.029654    1.981333
     3p    -11.377694    2.025643
     3d     -0.420282    1.702555

 Solvent             : water
 Using internal parameter file: .param_gbsa2_water
 Gsolv ref. state (COSMO-RS): gsolv [1 M gas/solution]
 temperature (mdtemp)       :    298.14999999999998     
 dielectric constant        :    80.200000000000003     
 rho                        :    1.0000000000000000     
 mass                       :    18.000000000000000     
 surface tension            :    15.568945408385856     
 probe radius               :   0.97531378999999996     
 Gshift (Eh)                :    1.8574431267947933E-003
 c1                         :    1.5524381700000001     
 soset                      :   0.13032636000000000     
 HB correction              :  T
           ------------------------------------------------- 
          |        Self-Consistent Charge Iterations        |
           ------------------------------------------------- 

          ...................................................
          :                      SETUP                      :
          :.................................................:
          :  # basis functions                6511          :
          :  # atomic orbitals                6505          :
          :  # shells                         3899          :
          :  # electrons                      7192          :
          :  max. iterations                   250          :
          :  Hamiltonian                  GFN2-xTB          :
          :  restarted?                      false          :
          :  GBSA solvation                   true          :
          :  PC potential                    false          :
          :  electronic temp.          300.0000000     K    :
          :  accuracy                    1.0000000          :
          :  -> integral cutoff          0.2500000E+02      :
          :  -> integral neglect         0.1000000E-07      :
          :  -> SCF convergence          0.1000000E-05 Eh   :
          :  -> wf. convergence          0.1000000E-03 e    :
          :  Broyden damping             0.4000000          :
          ...................................................

 iter      E             dE          RMSdq      gap      omega  full diag
   1  -4120.5904444 -0.412059E+04  0.427E+00    2.33       0.0  T
   2  -4132.8578025 -0.122674E+02  0.226E+00    2.34       1.0  T
   3  -4133.3358225 -0.478020E+00  0.119E+00    2.24       1.0  T
   4  -4133.4023344 -0.665118E-01  0.295E-01    1.84       1.0  T
   5  -4133.5108072 -0.108473E+00  0.149E-01    1.77       1.0  T
   6  -4133.5272530 -0.164458E-01  0.791E-02    1.86       1.0  T
   7  -4133.5303016 -0.304862E-02  0.428E-02    1.85       1.0  T
   8  -4133.5317607 -0.145913E-02  0.203E-02    1.82       1.0  T
   9  -4133.5320609 -0.300160E-03  0.128E-02    1.80       1.0  T
  10  -4133.5322163 -0.155456E-03  0.672E-03    1.77       1.0  T
  11  -4133.5322549 -0.385350E-04  0.345E-03    1.75       1.0  T
  12  -4133.5322667 -0.118024E-04  0.193E-03    1.75       1.0  T
  13  -4133.5322702 -0.350345E-05  0.109E-03    1.75       1.8  T
  14  -4133.5322713 -0.112488E-05  0.594E-04    1.74       3.3  T
  15  -4133.5322716 -0.334009E-06  0.329E-04    1.74       6.0  T
  16  -4133.5322717 -0.100302E-06  0.196E-04    1.74      10.0  T

   *** convergence criteria satisfied after 16 iterations ***

         #    Occupation            Energy/Eh            Energy/eV
      -------------------------------------------------------------
         1        2.0000           -0.7596321             -20.6706
       ...           ...                  ...                  ...
      3590        2.0000           -0.3611712              -9.8280
      3591        2.0000           -0.3607081              -9.8154
      3592        2.0000           -0.3606444              -9.8136
      3593        2.0000           -0.3569947              -9.7143
      3594        2.0000           -0.3559039              -9.6846
      3595        2.0000           -0.3528229              -9.6008
      3596        2.0000           -0.3508276              -9.5465 (HOMO)
      3597                         -0.2867978              -7.8042 (LUMO)
      3598                         -0.2776973              -7.5565
      3599                         -0.2741156              -7.4591
      3600                         -0.2729508              -7.4274
      3601                         -0.2722888              -7.4094
       ...                                ...                  ...
      6505                          0.7192813              19.5726
      -------------------------------------------------------------
                  HL-Gap            0.0640298 Eh            1.7423 eV
             Fermi-level           -0.3188127 Eh           -8.6753 eV

 SCC (total)                   0 d,  0 h,  7 min, 14.744 sec
 SCC setup                      ...        0 min,  3.317 sec (  0.763%)
 Dispersion                     ...        0 min,  2.014 sec (  0.463%)
 integral evaluation            ...        0 min,  8.707 sec (  2.003%)
 zeroth order Hamiltonian       ...        0 min,  0.341 sec (  0.078%)
 iterations                     ...        6 min, 42.424 sec ( 92.566%)
 molecular gradient             ...        0 min, 17.301 sec (  3.980%)
 printout                       ...        0 min,  0.640 sec (  0.147%)

         :::::::::::::::::::::::::::::::::::::::::::::::::::::
         ::                     SUMMARY                     ::
         :::::::::::::::::::::::::::::::::::::::::::::::::::::
         :: total energy           -4085.310624820394 Eh    ::
         :: total w/o Gsasa/hb     -4084.902902476923 Eh    ::
         :: gradient norm              1.319562019805 Eh/a0 ::
         :: HOMO-LUMO gap              1.742340348647 eV    ::
         ::.................................................::
         :: SCC energy             -4133.599703418889 Eh    ::
         :: -> isotropic ES           14.380357563239 Eh    ::
         :: -> anisotropic ES         -0.828044069205 Eh    ::
         :: -> anisotropic XC          1.166857336055 Eh    ::
         :: -> dispersion             -3.905931967251 Eh    ::
         :: -> Gsolv                  -4.250122630272 Eh    ::
         ::    -> Gborn               -3.842400286801 Eh    ::
         ::    -> Gsasa               -0.069289128150 Eh    ::
         ::    -> Ghb                 -0.340290658448 Eh    ::
         ::    -> Gshift               0.001857443127 Eh    ::
         :: repulsion energy          47.746365450615 Eh    ::
         :: add. restraining           0.000000000000 Eh    ::
         :::::::::::::::::::::::::::::::::::::::::::::::::::::

           -------------------------------------------------
          |                Property Printout                |
           -------------------------------------------------

    * Orbital Energies and Occupations

         #    Occupation            Energy/Eh            Energy/eV
      -------------------------------------------------------------
         1        2.0000           -0.7596321             -20.6706
       ...           ...                  ...                  ...
      3584        2.0000           -0.3653146              -9.9407
      3585        2.0000           -0.3642809              -9.9126
      3586        2.0000           -0.3642633              -9.9121
      3587        2.0000           -0.3637774              -9.8989
      3588        2.0000           -0.3625325              -9.8650
      3589        2.0000           -0.3624890              -9.8638
      3590        2.0000           -0.3611712              -9.8280
      3591        2.0000           -0.3607081              -9.8154
      3592        2.0000           -0.3606444              -9.8136
      3593        2.0000           -0.3569947              -9.7143
      3594        2.0000           -0.3559039              -9.6846
      3595        2.0000           -0.3528229              -9.6008
      3596        2.0000           -0.3508276              -9.5465 (HOMO)
      3597                         -0.2867978              -7.8042 (LUMO)
      3598                         -0.2776973              -7.5565
      3599                         -0.2741156              -7.4591
      3600                         -0.2729508              -7.4274
      3601                         -0.2722888              -7.4094
      3602                         -0.2700254              -7.3478
      3603                         -0.2676869              -7.2841
      3604                         -0.2666167              -7.2550
      3605                         -0.2657319              -7.2309
      3606                         -0.2653519              -7.2206
      3607                         -0.2647175              -7.2033
       ...                                ...                  ...
      6505                          0.7192813              19.5726
      -------------------------------------------------------------
                  HL-Gap            0.0640298 Eh            1.7423 eV
             Fermi-level           -0.3188127 Eh           -8.6753 eV

     #   Z        covCN         q      C6AA      α(0)
     1   7 N      3.492    -0.144    24.096     7.291
     2   1 H      0.860     0.317     0.665     1.277
     3   1 H      0.860     0.317     0.665     1.277
     4   1 H      0.860     0.298     0.721     1.330
     5   6 C      3.790    -0.025    21.036     6.532
     6   1 H      0.925     0.113     1.673     2.022
     7   6 C      3.824    -0.095    22.298     6.720
     8   1 H      0.925     0.107     1.721     2.052
     9   1 H      0.925     0.101     1.778     2.085
    10   6 C      3.802    -0.017    20.879     6.505
    11   1 H      0.925     0.064     2.157     2.297
    12   1 H      0.926     0.075     2.032     2.229
    13  16 S      1.966    -0.209   149.968    20.611
    14   6 C      3.746    -0.043    21.405     6.599
    15   1 H      0.925     0.033     2.550     2.497
    16   1 H      0.925     0.029     2.602     2.522
    17   1 H      0.925     0.047     2.362     2.403
    18   6 C      2.761     0.252    22.772     7.815
    19   8 O      0.859    -0.467    23.057     6.438
    20   7 N      2.701    -0.172    24.721     7.384
    21   1 H      0.860     0.243     0.912     1.496
    22   6 C      3.796     0.030    20.076     6.380
    23   1 H      0.925     0.104     1.752     2.070
    24   6 C      3.820    -0.106    22.513     6.752
    25   1 H      0.924     0.063     2.169     2.303
    26   1 H      0.924     0.095     1.834     2.118
    27   6 C      2.742     0.282    22.226     7.719
    28   8 O      0.863    -0.480    23.351     6.479
    29   7 N      2.643    -0.278    27.184     7.743
    30   1 H      0.860     0.243     0.909     1.494
    31   1 H      0.860     0.224     0.990     1.559
    32   6 C      2.738     0.258    22.653     7.793
    33   8 O      0.857    -0.500    23.793     6.540
    34   7 N      2.674    -0.176    24.818     7.399
    35   1 H      0.860     0.227     0.977     1.548
    36   6 C      3.766     0.009    20.464     6.447
    37   1 H      0.925     0.084     1.936     2.176
    38   6 C      3.844    -0.031    21.102     6.534
    39   1 H      0.925     0.077     2.010     2.217
    40   6 C      3.750    -0.134    23.142     6.861
    41   1 H      0.924     0.063     2.170     2.303
    42   1 H      0.925     0.064     2.154     2.295
    43   1 H      0.924     0.027     2.631     2.537
    44   6 C      3.806    -0.070    21.827     6.651
    45   1 H      0.925     0.041     2.432     2.439
    46   1 H      0.925     0.071     2.077     2.254
    47   6 C      3.749    -0.110    22.670     6.791
    48   1 H      0.925     0.049     2.336     2.390
    49   1 H      0.924     0.037     2.490     2.468
    50   1 H      0.925     0.032     2.557     2.500
    51   6 C      2.738     0.263    22.558     7.776
    52   8 O      0.858    -0.504    23.863     6.549
    53   7 N      2.689    -0.165    24.576     7.363
    54   1 H      0.860     0.214     1.039     1.597
    55   6 C      3.797     0.018    20.282     6.413
    56   1 H      0.925     0.087     1.910     2.161
    57   6 C      3.813    -0.080    22.014     6.678
    58   1 H      0.924     0.069     2.100     2.266
    59   1 H      0.925     0.049     2.330     2.387
    60   6 C      2.962    -0.000    28.029     8.684
    61   6 C      2.931    -0.036    28.884     8.814
    62   1 H      0.925     0.037     2.487     2.466
    63   6 C      2.910    -0.029    28.735     8.790
    64   1 H      0.926     0.021     2.717     2.578
    65   6 C      2.923    -0.032    28.801     8.801
    66   1 H      0.925     0.038     2.479     2.462
    67   6 C      2.902    -0.037    28.915     8.817
    68   1 H      0.926     0.069     2.091     2.261
    69   6 C      2.915    -0.047    29.168     8.856
    70   1 H      0.926     0.058     2.224     2.332
    71   6 C      2.753     0.270    22.436     7.756
    72   8 O      0.860    -0.459    22.890     6.415
    73   7 N      2.689    -0.183    24.962     7.420
    74   1 H      0.860     0.193     1.141     1.673
    75   6 C      3.794     0.021    20.222     6.404
    76   1 H      0.925     0.080     1.981     2.201
    77   6 C      3.805    -0.052    21.501     6.601
    78   1 H      0.925     0.041     2.438     2.442
    79   1 H      0.925     0.069     2.091     2.261
    80   6 C      3.807    -0.097    22.339     6.728
    81   1 H      0.925     0.022     2.707     2.573
    82   1 H      0.924     0.018     2.764     2.600
    83   6 C      2.685     0.375    20.643     7.435
    84   8 O      0.858    -0.569    25.379     6.754
    85   8 O      0.856    -0.675    28.024     7.097
    86   6 C      2.749     0.278    22.298     7.732
    87   8 O      0.863    -0.490    23.569     6.509
    88   7 N      2.686    -0.199    25.332     7.475
    89   1 H      0.860     0.201     1.099     1.642
    90   6 C      3.787     0.027    20.133     6.391
    91   1 H      0.925     0.070     2.082     2.257
    92   6 C      3.827    -0.066    21.737     6.634
    93   1 H      0.925     0.059     2.210     2.325
    94   1 H      0.925     0.070     2.087     2.259
    95   6 C      3.799    -0.005    20.662     6.472
    96   1 H      0.925     0.042     2.416     2.431
    97   1 H      0.925     0.036     2.497     2.471
    98  16 S      1.965    -0.168   148.152    20.486
    99   6 C      3.743    -0.061    21.741     6.652
   100   1 H      0.924     0.055     2.254     2.348
   101   1 H      0.925     0.061     2.193     2.316
   102   1 H      0.925     0.046     2.366     2.405
   103   6 C      2.741     0.277    22.316     7.735
   104   8 O      0.859    -0.491    23.595     6.513
   105   7 N      2.665    -0.197    25.277     7.467
   106   1 H      0.860     0.230     0.963     1.537
   107   6 C      3.765     0.010    20.454     6.446
   108   1 H      0.924     0.088     1.897     2.154
   109   6 C      3.809    -0.076    21.950     6.669
   110   1 H      0.924     0.060     2.195     2.317
   111   1 H      0.924     0.072     2.062     2.246
   112   6 C      3.841    -0.017    20.844     6.495
   113   1 H      0.925     0.052     2.299     2.371
   114   6 C      3.769    -0.115    22.734     6.795
   115   1 H      0.925     0.046     2.371     2.408
   116   1 H      0.924     0.047     2.363     2.404
   117   1 H      0.925     0.044     2.395     2.420
   118   6 C      3.746    -0.123    22.930     6.830
   119   1 H      0.925     0.041     2.439     2.442
   120   1 H      0.925     0.036     2.501     2.473
   121   1 H      0.924     0.038     2.474     2.460
   122   6 C      2.742     0.275    22.340     7.739
   123   8 O      0.858    -0.468    23.077     6.441
   124   7 N      2.682    -0.187    25.058     7.435
   125   1 H      0.860     0.213     1.040     1.598
   126   6 C      3.771     0.011    20.422     6.440
   127   1 H      0.925     0.080     1.977     2.199
   128   6 C      3.810    -0.080    22.023     6.680
   129   1 H      0.925     0.092     1.863     2.135
   130   1 H      0.925     0.056     2.251     2.346
   131   6 C      3.802    -0.089    22.194     6.707
   132   1 H      0.925     0.074     2.039     2.233
   133   1 H      0.924     0.073     2.056     2.242
   134   6 C      3.754    -0.023    21.037     6.540
   135   1 H      0.925     0.083     1.951     2.184
   136   1 H      0.925     0.076     2.023     2.224
   137   7 N      2.708    -0.145    24.143     7.298
   138   1 H      0.860     0.212     1.045     1.601
   139   6 C      2.741     0.232    23.142     7.876
   140   7 N      2.704    -0.241    26.284     7.614
   141   1 H      0.860     0.271     0.807     1.407
   142   1 H      0.860     0.243     0.912     1.496
   143   7 N      2.699    -0.272    27.039     7.723
   144   1 H      0.860     0.253     0.871     1.462
   145   1 H      0.860     0.246     0.899     1.485
   146   6 C      2.735     0.264    22.551     7.775
   147   8 O      0.860    -0.461    22.945     6.422
   148   7 N      2.686    -0.193    25.187     7.454
   149   1 H      0.860     0.202     1.095     1.639
   150   6 C      3.785     0.025    20.172     6.397
   151   1 H      0.925     0.090     1.876     2.142
   152   6 C      3.836    -0.014    20.805     6.489
   153   1 H      0.925     0.028     2.618     2.530
   154   6 C      3.740    -0.116    22.797     6.813
   155   1 H      0.925     0.049     2.333     2.389
   156   1 H      0.924     0.049     2.336     2.390
   157   1 H      0.925     0.038     2.477     2.461
   158   6 C      3.798    -0.057    21.602     6.618
   159   1 H      0.925     0.041     2.440     2.443
   160   1 H      0.925     0.053     2.280     2.361
   161   6 C      3.748    -0.101    22.489     6.764
   162   1 H      0.924     0.038     2.470     2.458
   163   1 H      0.925     0.028     2.622     2.532
   164   1 H      0.925     0.037     2.487     2.466
   165   6 C      2.748     0.259    22.629     7.789
   166   8 O      0.858    -0.487    23.489     6.498
   167   7 N      2.693    -0.200    25.342     7.477
   168   1 H      0.860     0.218     1.021     1.583
   169   6 C      3.792     0.039    19.932     6.358
   170   1 H      0.925     0.075     2.034     2.230
   171   6 C      3.811    -0.109    22.566     6.762
   172   1 H      0.924     0.031     2.570     2.507
   173   1 H      0.925     0.047     2.363     2.404
   174   6 C      2.676     0.368    20.764     7.456
   175   8 O      0.856    -0.577    25.554     6.777
   176   8 O      0.856    -0.553    24.989     6.702
   177   6 C      2.760     0.268    22.467     7.762
   178   8 O      0.859    -0.462    22.948     6.423
   179   7 N      2.685    -0.195    25.231     7.460
   180   1 H      0.860     0.208     1.067     1.618
   181   6 C      3.785     0.015    20.333     6.423
   182   1 H      0.925     0.085     1.928     2.171
   183   6 C      3.801    -0.051    21.491     6.600
   184   1 H      0.925     0.041     2.434     2.440
   185   1 H      0.924     0.032     2.562     2.503
   186   6 C      3.795    -0.089    22.205     6.710
   187   1 H      0.924     0.030     2.585     2.514
   188   1 H      0.925     0.023     2.688     2.564
   189   6 C      2.683     0.354    20.992     7.498
   190   8 O      0.856    -0.659    27.608     7.045
   191   8 O      0.855    -0.640    27.115     6.981
   192   6 C      2.739     0.280    22.267     7.726
   193   8 O      0.859    -0.451    22.734     6.393
   194   7 N      2.674    -0.191    25.149     7.448
   195   1 H      0.860     0.203     1.090     1.635
   196   6 C      3.722    -0.033    21.281     6.588
   197   1 H      0.925     0.101     1.775     2.084
   198   1 H      0.925     0.073     2.056     2.242
   199   6 C      2.740     0.276    22.331     7.737
   200   8 O      0.863    -0.484    23.428     6.490
   201   7 N      2.691    -0.170    24.686     7.379
   202   1 H      0.860     0.219     1.014     1.577
   203   6 C      3.783     0.018    20.290     6.417
   204   1 H      0.925     0.075     2.034     2.230
   205   6 C      3.801    -0.093    22.274     6.719
   206   1 H      0.924     0.077     2.012     2.218
   207   1 H      0.924     0.060     2.205     2.322
   208   6 C      3.841    -0.019    20.879     6.500
   209   1 H      0.924     0.055     2.263     2.352
   210   6 C      3.754    -0.124    22.938     6.829
   211   1 H      0.924     0.030     2.591     2.517
   212   1 H      0.925     0.036     2.505     2.475
   213   1 H      0.924     0.049     2.333     2.389
   214   6 C      3.750    -0.133    23.116     6.857
   215   1 H      0.925     0.070     2.084     2.258
   216   1 H      0.925     0.040     2.447     2.446
   217   1 H      0.924     0.050     2.315     2.379
   218   6 C      2.746     0.263    22.564     7.778
   219   8 O      0.861    -0.481    23.370     6.482
   220   7 N      2.690    -0.163    24.515     7.354
   221   1 H      0.860     0.198     1.115     1.654
   222   6 C      3.792     0.015    20.329     6.421
   223   1 H      0.925     0.094     1.839     2.121
   224   6 C      3.808    -0.092    22.244     6.714
   225   1 H      0.924     0.081     1.965     2.192
   226   1 H      0.925     0.062     2.178     2.308
   227   6 C      3.804    -0.091    22.237     6.713
   228   1 H      0.925     0.064     2.154     2.295
   229   1 H      0.924     0.089     1.892     2.151
   230   6 C      3.736    -0.031    21.221     6.574
   231   1 H      0.925     0.104     1.748     2.067
   232   1 H      0.924     0.111     1.688     2.032
   233   7 N      2.707    -0.149    24.231     7.311
   234   1 H      0.860     0.203     1.091     1.636
   235   6 C      2.733     0.229    23.192     7.885
   236   7 N      2.695    -0.248    26.458     7.639
   237   1 H      0.860     0.261     0.842     1.437
   238   1 H      0.860     0.271     0.805     1.406
   239   7 N      2.693    -0.250    26.497     7.645
   240   1 H      0.860     0.251     0.880     1.469
   241   1 H      0.860     0.215     1.031     1.590
   242   6 C      2.751     0.256    22.684     7.799
   243   8 O      0.858    -0.508    23.967     6.564
   244   7 N      2.683    -0.171    24.691     7.380
   245   1 H      0.860     0.216     1.027     1.588
   246   6 C      3.776     0.010    20.431     6.440
   247   1 H      0.924     0.089     1.892     2.151
   248   6 C      3.808    -0.080    22.022     6.680
   249   1 H      0.924     0.078     1.999     2.211
   250   1 H      0.924     0.062     2.175     2.306
   251   6 C      3.844    -0.023    20.960     6.512
   252   1 H      0.924     0.057     2.240     2.340
   253   6 C      3.756    -0.124    22.939     6.829
   254   1 H      0.925     0.042     2.417     2.431
   255   1 H      0.925     0.039     2.459     2.452
   256   1 H      0.925     0.031     2.569     2.506
   257   6 C      3.750    -0.120    22.862     6.819
   258   1 H      0.925     0.054     2.269     2.356
   259   1 H      0.924     0.047     2.360     2.402
   260   1 H      0.925     0.028     2.609     2.526
   261   6 C      2.735     0.262    22.582     7.780
   262   8 O      0.861    -0.473    23.201     6.458
   263   7 N      2.683    -0.158    24.424     7.340
   264   1 H      0.860     0.195     1.131     1.666
   265   6 C      3.783     0.002    20.559     6.459
   266   1 H      0.925     0.096     1.825     2.113
   267   6 C      3.802    -0.086    22.136     6.698
   268   1 H      0.925     0.067     2.116     2.275
   269   1 H      0.925     0.069     2.100     2.266
   270   6 C      3.820    -0.092    22.233     6.710
   271   1 H      0.925     0.081     1.971     2.195
   272   1 H      0.925     0.076     2.026     2.226
   273   6 C      3.803    -0.091    22.237     6.714
   274   1 H      0.924     0.075     2.029     2.228
   275   1 H      0.924     0.072     2.064     2.247
   276   6 C      3.747    -0.072    21.946     6.682
   277   1 H      0.925     0.130     1.532     1.936
   278   1 H      0.924     0.135     1.497     1.913
   279   7 N      3.488    -0.147    24.170     7.302
   280   1 H      0.860     0.289     0.747     1.354
   281   1 H      0.860     0.289     0.747     1.354
   282   1 H      0.860     0.306     0.694     1.305
   283   6 C      2.743     0.263    22.556     7.776
   284   8 O      0.857    -0.516    24.141     6.587
   285   7 N      2.683    -0.166    24.587     7.364
   286   1 H      0.860     0.245     0.904     1.489
   287   6 C      3.793     0.008    20.453     6.440
   288   1 H      0.925     0.057     2.236     2.338
   289   6 C      3.857    -0.038    21.211     6.550
   290   1 H      0.925     0.090     1.877     2.142
   291   6 C      3.754    -0.134    23.142     6.860
   292   1 H      0.924     0.029     2.602     2.523
   293   1 H      0.924     0.056     2.245     2.343
   294   1 H      0.925     0.071     2.080     2.255
   295   6 C      3.807    -0.088    22.166     6.702
   296   1 H      0.924     0.052     2.296     2.369
   297   1 H      0.925     0.031     2.566     2.505
   298   6 C      3.749    -0.149    23.439     6.905
   299   1 H      0.925     0.089     1.886     2.148
   300   1 H      0.925     0.042     2.423     2.434
   301   1 H      0.925     0.047     2.363     2.404
   302   6 C      2.765     0.271    22.423     7.755
   303   8 O      0.857    -0.485    23.446     6.492
   304   7 N      2.691    -0.153    24.311     7.323
   305   1 H      0.860     0.223     0.995     1.563
   306   6 C      3.794     0.004    20.513     6.450
   307   1 H      0.925     0.119     1.623     1.992
   308   6 C      3.801    -0.099    22.391     6.737
   309   1 H      0.925     0.110     1.693     2.035
   310   1 H      0.925     0.084     1.938     2.177
   311   6 C      2.954     0.007    27.869     8.659
   312   6 C      2.931    -0.054    29.333     8.882
   313   1 H      0.926     0.051     2.313     2.378
   314   6 C      2.903    -0.078    29.936     8.971
   315   1 H      0.926    -0.003     3.116     2.761
   316   6 C      2.839     0.141    24.926     8.182
   317   8 O      1.661    -0.430    21.440     6.251
   318   1 H      0.806     0.299     0.724     1.337
   319   6 C      2.906    -0.071    29.772     8.947
   320   1 H      0.926     0.047     2.363     2.404
   321   6 C      2.937    -0.048    29.199     8.862
   322   1 H      0.926     0.087     1.912     2.162
   323   6 C      2.749     0.267    22.491     7.765
   324   8 O      0.859    -0.502    23.839     6.546
   325   7 N      2.683    -0.164    24.556     7.360
   326   1 H      0.860     0.224     0.989     1.558
   327   6 C      3.772     0.000    20.604     6.468
   328   1 H      0.925     0.074     2.039     2.233
   329   6 C      3.800    -0.077    21.970     6.674
   330   1 H      0.925     0.051     2.309     2.376
   331   1 H      0.924     0.078     1.998     2.211
   332   6 C      3.795    -0.087    22.174     6.705
   333   1 H      0.925     0.088     1.900     2.156
   334   1 H      0.924     0.068     2.111     2.272
   335   6 C      3.799    -0.107    22.552     6.762
   336   1 H      0.924     0.093     1.847     2.125
   337   1 H      0.925     0.107     1.724     2.053
   338   6 C      3.729    -0.048    21.529     6.624
   339   1 H      0.924     0.102     1.768     2.080
   340   1 H      0.925     0.123     1.589     1.971
   341   7 N      3.487    -0.135    23.924     7.265
   342   1 H      0.860     0.287     0.752     1.358
   343   1 H      0.860     0.306     0.696     1.307
   344   1 H      0.860     0.279     0.779     1.382
   345   6 C      2.738     0.272    22.396     7.748
   346   8 O      0.858    -0.486    23.487     6.498
   347   7 N      2.689    -0.200    25.340     7.476
   348   1 H      0.860     0.232     0.957     1.532
   349   6 C      3.796     0.057    19.624     6.308
   350   1 H      0.925     0.046     2.371     2.408
   351   6 C      3.807    -0.079    21.995     6.676
   352   1 H      0.925     0.029     2.608     2.525
   353   1 H      0.924     0.051     2.304     2.374
   354   6 C      2.694     0.368    20.755     7.456
   355   8 O      0.859    -0.682    28.211     7.121
   356   8 O      0.857    -0.628    26.817     6.943
   357   6 C      2.758     0.266    22.513     7.770
   358   8 O      0.862    -0.500    23.780     6.538
   359   7 N      2.694    -0.165    24.578     7.363
   360   1 H      0.860     0.180     1.212     1.725
   361   6 C      3.798     0.012    20.378     6.428
   362   1 H      0.924     0.106     1.731     2.057
   363   6 C      3.739     0.128    18.581     6.151
   364   1 H      0.925    -0.010     3.245     2.817
   365   6 C      3.759    -0.137    23.185     6.865
   366   1 H      0.925     0.092     1.860     2.133
   367   1 H      0.924     0.055     2.258     2.350
   368   1 H      0.925     0.085     1.933     2.174
   369   8 O      1.670    -0.448    21.803     6.304
   370   1 H      0.806     0.311     0.688     1.302
   371   6 C      2.747     0.276    22.327     7.737
   372   8 O      0.862    -0.459    22.888     6.414
   373   7 N      2.689    -0.196    25.255     7.464
   374   1 H      0.860     0.180     1.211     1.724
   375   6 C      3.783     0.024    20.191     6.401
   376   1 H      0.925     0.080     1.984     2.203
   377   6 C      3.801    -0.047    21.412     6.588
   378   1 H      0.925     0.063     2.164     2.301
   379   1 H      0.924     0.039     2.459     2.452
   380   6 C      3.799    -0.084    22.096     6.693
   381   1 H      0.925     0.010     2.895     2.661
   382   1 H      0.925     0.033     2.538     2.492
   383   6 C      2.688     0.367    20.777     7.460
   384   8 O      0.857    -0.631    26.899     6.954
   385   8 O      0.857    -0.670    27.912     7.083
   386   6 C      2.745     0.266    22.513     7.769
   387   8 O      0.859    -0.470    23.130     6.448
   388   7 N      2.684    -0.192    25.173     7.452
   389   1 H      0.860     0.199     1.109     1.650
   390   6 C      3.736    -0.035    21.292     6.585
   391   1 H      0.925     0.112     1.677     2.025
   392   1 H      0.925     0.107     1.722     2.052
   393   6 C      2.748     0.268    22.483     7.764
   394   8 O      0.859    -0.455    22.806     6.403
   395   7 N      2.686    -0.154    24.334     7.326
   396   1 H      0.860     0.173     1.254     1.754
   397   6 C      3.781     0.015    20.339     6.425
   398   1 H      0.925     0.087     1.907     2.160
   399   6 C      3.811    -0.070    21.839     6.652
   400   1 H      0.925     0.067     2.120     2.277
   401   1 H      0.925     0.022     2.700     2.570
   402   6 C      2.964    -0.010    28.274     8.722
   403   6 C      2.910    -0.042    29.048     8.838
   404   1 H      0.926     0.005     2.980     2.699
   405   6 C      2.914    -0.053    29.322     8.879
   406   1 H      0.926     0.024     2.674     2.557
   407   6 C      2.839     0.153    24.683     8.142
   408   8 O      1.663    -0.437    21.580     6.271
   409   1 H      0.806     0.365     0.555     1.170
   410   6 C      2.925    -0.076    29.888     8.965
   411   1 H      0.926     0.068     2.102     2.267
   412   6 C      2.899    -0.043    29.066     8.840
   413   1 H      0.926     0.078     1.995     2.209
   414   6 C      2.754     0.277    22.309     7.734
   415   8 O      0.860    -0.509    23.986     6.566
   416   7 N      2.687    -0.140    24.032     7.281
   417   1 H      0.860     0.244     0.905     1.490
   418   6 C      3.787     0.013    20.371     6.428
   419   1 H      0.925     0.089     1.886     2.147
   420   6 C      3.802    -0.086    22.135     6.698
   421   1 H      0.925     0.063     2.164     2.300
   422   1 H      0.925     0.070     2.083     2.257
   423   6 C      2.962    -0.004    28.122     8.698
   424   6 C      2.924    -0.038    28.948     8.823
   425   1 H      0.926     0.032     2.553     2.499
   426   6 C      2.912    -0.086    30.165     9.006
   427   1 H      0.926     0.057     2.229     2.334
   428   6 C      2.835     0.144    24.862     8.171
   429   8 O      1.659    -0.401    20.871     6.167
   430   1 H      0.805     0.346     0.596     1.213
   431   6 C      2.909    -0.061    29.505     8.907
   432   1 H      0.926     0.068     2.113     2.273
   433   6 C      2.933    -0.052    29.299     8.877
   434   1 H      0.926     0.046     2.367     2.406
   435   6 C      2.747     0.264    22.545     7.775
   436   8 O      0.859    -0.518    24.191     6.594
   437   7 N      2.690    -0.153    24.310     7.323
   438   1 H      0.860     0.260     0.845     1.440
   439   6 C      3.799     0.016    20.314     6.417
   440   1 H      0.925     0.085     1.924     2.169
   441   6 C      3.732     0.133    18.510     6.141
   442   1 H      0.925     0.020     2.741     2.589
   443   6 C      3.772    -0.103    22.500     6.759
   444   1 H      0.924     0.041     2.440     2.443
   445   1 H      0.924     0.055     2.258     2.350
   446   1 H      0.924     0.026     2.650     2.546
   447   8 O      1.679    -0.469    22.216     6.363
   448   1 H      0.806     0.307     0.701     1.315
   449   6 C      2.757     0.249    22.819     7.822
   450   8 O      0.858    -0.447    22.633     6.378
   451   7 N      2.681    -0.190    25.116     7.443
   452   1 H      0.860     0.211     1.053     1.608
   453   6 C      3.773    -0.002    20.637     6.473
   454   1 H      0.925     0.088     1.902     2.157
   455   6 C      3.840    -0.037    21.202     6.550
   456   1 H      0.924     0.083     1.947     2.182
   457   6 C      3.749    -0.127    23.002     6.840
   458   1 H      0.924     0.032     2.556     2.500
   459   1 H      0.924     0.066     2.136     2.285
   460   1 H      0.925     0.053     2.287     2.365
   461   6 C      3.801    -0.074    21.917     6.665
   462   1 H      0.925     0.044     2.393     2.419
   463   1 H      0.925     0.032     2.561     2.503
   464   6 C      3.752    -0.130    23.058     6.848
   465   1 H      0.925     0.060     2.197     2.318
   466   1 H      0.925     0.064     2.151     2.294
   467   1 H      0.924     0.057     2.235     2.338
   468   6 C      2.744     0.270    22.439     7.756
   469   8 O      0.865    -0.520    24.227     6.599
   470   7 N      2.695    -0.141    24.055     7.284
   471   1 H      0.860     0.226     0.982     1.552
   472   6 C      3.745    -0.034    21.253     6.576
   473   1 H      0.925     0.062     2.171     2.304
   474   1 H      0.925     0.115     1.654     2.011
   475   6 C      2.755     0.277    22.310     7.735
   476   8 O      0.858    -0.446    22.623     6.377
   477   7 N      2.683    -0.176    24.815     7.398
   478   1 H      0.860     0.202     1.094     1.638
   479   6 C      3.794     0.027    20.130     6.389
   480   1 H      0.925     0.068     2.112     2.273
   481   6 C      3.842    -0.019    20.886     6.501
   482   1 H      0.924     0.034     2.536     2.491
   483   6 C      3.749    -0.115    22.760     6.804
   484   1 H      0.925     0.052     2.289     2.366
   485   1 H      0.925     0.024     2.677     2.559
   486   1 H      0.924     0.052     2.296     2.370
   487   6 C      3.791    -0.069    21.823     6.653
   488   1 H      0.924     0.049     2.327     2.385
   489   1 H      0.924     0.056     2.247     2.344
   490   6 C      3.747    -0.123    22.927     6.830
   491   1 H      0.925     0.041     2.430     2.438
   492   1 H      0.925     0.060     2.202     2.321
   493   1 H      0.925     0.050     2.323     2.383
   494   6 C      2.747     0.256    22.688     7.799
   495   8 O      0.858    -0.507    23.937     6.560
   496   7 N      2.683    -0.150    24.257     7.315
   497   1 H      0.860     0.204     1.084     1.631
   498   6 C      3.719    -0.025    21.131     6.566
   499   1 H      0.925     0.077     2.015     2.220
   500   1 H      0.925     0.083     1.947     2.182
   501   6 C      2.727     0.268    22.474     7.761
   502   8 O      0.859    -0.499    23.759     6.535
   503   7 N      2.684    -0.151    24.277     7.318
   504   1 H      0.860     0.221     1.006     1.571
   505   6 C      3.799     0.028    20.099     6.383
   506   1 H      0.925     0.051     2.308     2.376
   507   6 C      3.802    -0.086    22.138     6.699
   508   1 H      0.925     0.119     1.621     1.991
   509   1 H      0.925     0.096     1.820     2.109
   510   6 C      3.112     0.051    26.716     8.467
   511   7 N      2.746    -0.037    21.952     6.959
   512   1 H      0.860     0.265     0.826     1.424
   513   6 C      2.991     0.070    26.422     8.432
   514   1 H      0.926     0.147     1.411     1.858
   515   7 N      2.797    -0.031    21.844     6.941
   516   1 H      0.860     0.273     0.799     1.401
   517   6 C      2.939    -0.012    28.306     8.726
   518   1 H      0.926     0.130     1.538     1.939
   519   6 C      2.755     0.281    22.237     7.722
   520   8 O      0.862    -0.461    22.938     6.421
   521   7 N      2.695    -0.162    24.508     7.352
   522   1 H      0.860     0.202     1.096     1.640
   523   6 C      3.788     0.018    20.289     6.415
   524   1 H      0.925     0.057     2.238     2.339
   525   6 C      3.808    -0.080    22.028     6.681
   526   1 H      0.924     0.055     2.264     2.353
   527   1 H      0.924     0.050     2.321     2.382
   528   6 C      3.844    -0.014    20.793     6.487
   529   1 H      0.925     0.036     2.498     2.471
   530   6 C      3.752    -0.120    22.865     6.819
   531   1 H      0.924     0.056     2.252     2.347
   532   1 H      0.925     0.039     2.461     2.453
   533   1 H      0.924     0.038     2.480     2.463
   534   6 C      3.764    -0.131    23.062     6.845
   535   1 H      0.925     0.070     2.090     2.261
   536   1 H      0.925     0.051     2.311     2.377
   537   1 H      0.925     0.052     2.289     2.366
   538   6 C      2.750     0.279    22.278     7.729
   539   8 O      0.861    -0.493    23.639     6.519
   540   7 N      2.690    -0.208    25.535     7.505
   541   1 H      0.860     0.236     0.938     1.517
   542   6 C      3.792     0.030    20.081     6.382
   543   1 H      0.925     0.076     2.019     2.222
   544   6 C      3.811    -0.068    21.801     6.646
   545   1 H      0.925     0.045     2.388     2.417
   546   1 H      0.925     0.045     2.380     2.412
   547   6 C      3.847    -0.013    20.778     6.484
   548   1 H      0.924     0.030     2.587     2.515
   549   6 C      3.752    -0.132    23.096     6.853
   550   1 H      0.925     0.064     2.156     2.296
   551   1 H      0.925     0.060     2.195     2.317
   552   1 H      0.925     0.058     2.228     2.334
   553   6 C      3.756    -0.116    22.782     6.805
   554   1 H      0.925     0.026     2.640     2.541
   555   1 H      0.924     0.058     2.221     2.330
   556   1 H      0.925     0.023     2.681     2.561
   557   6 C      2.750     0.272    22.395     7.749
   558   8 O      0.861    -0.489    23.534     6.504
   559   7 N      2.681    -0.183    24.976     7.422
   560   1 H      0.860     0.215     1.033     1.592
   561   6 C      3.784     0.018    20.285     6.415
   562   1 H      0.924     0.057     2.238     2.340
   563   6 C      3.727     0.115    18.793     6.189
   564   1 H      0.924     0.039     2.463     2.454
   565   6 C      3.752    -0.123    22.916     6.827
   566   1 H      0.925     0.079     1.991     2.207
   567   1 H      0.924     0.053     2.287     2.365
   568   1 H      0.925     0.075     2.027     2.227
   569   8 O      1.659    -0.479    22.439     6.395
   570   1 H      0.806     0.350     0.587     1.203
   571   6 C      2.751     0.254    22.728     7.806
   572   8 O      0.858    -0.504    23.869     6.550
   573   7 N      2.680    -0.157    24.390     7.335
   574   1 H      0.860     0.224     0.991     1.559
   575   6 C      3.795     0.007    20.465     6.442
   576   1 H      0.924     0.094     1.838     2.120
   577   6 C      3.808    -0.089    22.194     6.706
   578   1 H      0.924     0.091     1.868     2.137
   579   1 H      0.925     0.074     2.047     2.237
   580   6 C      3.794    -0.088    22.194     6.709
   581   1 H      0.925     0.066     2.130     2.282
   582   1 H      0.925     0.044     2.401     2.423
   583   6 C      3.800    -0.111    22.626     6.772
   584   1 H      0.925     0.081     1.972     2.196
   585   1 H      0.924     0.103     1.756     2.073
   586   6 C      3.730    -0.053    21.618     6.637
   587   1 H      0.924     0.117     1.639     2.002
   588   1 H      0.925     0.100     1.785     2.089
   589   7 N      3.495    -0.137    23.958     7.270
   590   1 H      0.860     0.297     0.723     1.332
   591   1 H      0.860     0.309     0.687     1.298
   592   1 H      0.860     0.293     0.733     1.341
   593   6 C      2.751     0.282    22.225     7.720
   594   8 O      0.862    -0.489    23.538     6.505
   595   7 N      2.689    -0.173    24.737     7.387
   596   1 H      0.860     0.209     1.062     1.614
   597   6 C      3.785     0.004    20.530     6.454
   598   1 H      0.924     0.083     1.953     2.185
   599   6 C      3.678     0.058    19.815     6.377
   600   1 H      0.924     0.061     2.191     2.315
   601   1 H      0.925     0.073     2.052     2.240
   602   8 O      1.656    -0.473    22.317     6.377
   603   1 H      0.805     0.333     0.628     1.245
   604   6 C      2.751     0.268    22.480     7.764
   605   8 O      0.859    -0.462    22.966     6.425
   606   7 N      2.757    -0.127    23.749     7.238
   607   6 C      3.793    -0.013    20.814     6.497
   608   1 H      0.924     0.068     2.102     2.267
   609   1 H      0.925     0.065     2.146     2.291
   610   6 C      3.822    -0.080    22.010     6.676
   611   1 H      0.925     0.069     2.098     2.265
   612   1 H      0.925     0.080     1.981     2.201
   613   6 C      3.856    -0.075    21.892     6.654
   614   1 H      0.925     0.084     1.936     2.176
   615   1 H      0.925     0.065     2.138     2.287
   616   6 C      3.828     0.021    20.207     6.396
   617   1 H      0.924     0.091     1.874     2.141
   618   6 C      2.757     0.280    22.253     7.725
   619   8 O      0.869    -0.490    23.552     6.507
   620   7 N      2.696    -0.173    24.738     7.387
   621   1 H      0.860     0.193     1.140     1.673
   622   6 C      3.785     0.008    20.460     6.443
   623   1 H      0.925     0.094     1.839     2.121
   624   6 C      3.690     0.063    19.694     6.351
   625   1 H      0.925     0.056     2.243     2.342
   626   1 H      0.925     0.047     2.356     2.401
   627   8 O      1.653    -0.471    22.280     6.372
   628   1 H      0.805     0.332     0.632     1.248
   629   6 C      2.757     0.271    22.421     7.754
   630   8 O      0.859    -0.474    23.219     6.461
   631   7 N      2.687    -0.176    24.813     7.398
   632   1 H      0.860     0.215     1.031     1.590
   633   6 C      3.785    -0.013    20.828     6.501
   634   1 H      0.925     0.098     1.800     2.098
   635   6 C      3.806    -0.083    22.080     6.689
   636   1 H      0.925     0.050     2.315     2.379
   637   1 H      0.925     0.068     2.108     2.271
   638   6 C      3.850    -0.022    20.938     6.508
   639   1 H      0.925     0.044     2.397     2.421
   640   6 C      3.752    -0.142    23.306     6.885
   641   1 H      0.925     0.077     2.012     2.218
   642   1 H      0.925     0.049     2.331     2.388
   643   1 H      0.924     0.035     2.512     2.479
   644   6 C      3.762    -0.137    23.184     6.864
   645   1 H      0.924     0.067     2.118     2.276
   646   1 H      0.925     0.066     2.133     2.284
   647   1 H      0.924     0.045     2.386     2.416
   648   6 C      2.747     0.281    22.240     7.722
   649   8 O      0.863    -0.441    22.509     6.361
   650   7 N      2.697    -0.169    24.665     7.376
   651   1 H      0.860     0.221     1.004     1.569
   652   6 C      3.788     0.016    20.319     6.420
   653   1 H      0.925     0.114     1.664     2.017
   654   6 C      3.801    -0.128    22.961     6.822
   655   1 H      0.924     0.085     1.928     2.171
   656   1 H      0.925     0.102     1.768     2.079
   657   6 C      2.739     0.302    21.880     7.659
   658   8 O      0.875    -0.504    23.872     6.551
   659   7 N      2.652    -0.281    27.249     7.753
   660   1 H      0.860     0.229     0.970     1.543
   661   1 H      0.860     0.245     0.904     1.489
   662   6 C      2.751     0.268    22.468     7.762
   663   8 O      0.861    -0.502    23.838     6.546
   664   7 N      2.692    -0.178    24.844     7.403
   665   1 H      0.860     0.228     0.972     1.544
   666   6 C      3.792     0.023    20.190     6.399
   667   1 H      0.925     0.063     2.166     2.301
   668   6 C      3.759    -0.135    23.142     6.858
   669   1 H      0.924     0.079     1.988     2.205
   670   1 H      0.925     0.068     2.105     2.269
   671   1 H      0.924     0.083     1.953     2.185
   672   6 C      2.743     0.280    22.255     7.724
   673   8 O      0.860    -0.477    23.286     6.470
   674   7 N      2.689    -0.210    25.567     7.510
   675   1 H      0.860     0.231     0.959     1.534
   676   6 C      3.787     0.028    20.111     6.387
   677   1 H      0.925     0.057     2.230     2.335
   678   6 C      3.755    -0.141    23.264     6.877
   679   1 H      0.925     0.099     1.792     2.094
   680   1 H      0.924     0.060     2.197     2.318
   681   1 H      0.924     0.086     1.917     2.165
   682   6 C      2.750     0.258    22.649     7.793
   683   8 O      0.860    -0.498    23.747     6.534
   684   7 N      2.682    -0.186    25.040     7.432
   685   1 H      0.860     0.248     0.893     1.480
   686   6 C      3.795     0.010    20.410     6.433
   687   1 H      0.925     0.107     1.719     2.050
   688   6 C      3.833    -0.078    21.964     6.668
   689   1 H      0.925     0.058     2.228     2.334
   690   1 H      0.925     0.064     2.153     2.294
   691   6 C      3.806    -0.100    22.401     6.738
   692   1 H      0.925     0.101     1.777     2.084
   693   1 H      0.925     0.075     2.033     2.230
   694   6 C      3.812    -0.105    22.488     6.750
   695   1 H      0.925     0.068     2.103     2.268
   696   1 H      0.925     0.080     1.979     2.200
   697   6 C      3.734    -0.067    21.880     6.676
   698   1 H      0.924     0.128     1.549     1.947
   699   1 H      0.925     0.124     1.578     1.965
   700   7 N      3.489    -0.131    23.824     7.249
   701   1 H      0.860     0.302     0.708     1.318
   702   1 H      0.860     0.318     0.662     1.275
   703   1 H      0.860     0.270     0.809     1.409
   704   6 C      2.780     0.272    22.407     7.753
   705   8 O      0.860    -0.554    25.009     6.705
   706   7 N      2.690    -0.184    24.988     7.424
   707   1 H      0.860     0.245     0.905     1.490
   708   6 C      3.793     0.023    20.189     6.399
   709   1 H      0.925     0.076     2.025     2.226
   710   6 C      3.689     0.078    19.456     6.313
   711   1 H      0.925     0.056     2.241     2.341
   712   1 H      0.925     0.039     2.459     2.452
   713   8 O      1.655    -0.488    22.630     6.422
   714   1 H      0.805     0.340     0.612     1.229
   715   6 C      2.757     0.262    22.585     7.782
   716   8 O      0.856    -0.518    24.178     6.592
   717   7 N      2.680    -0.189    25.091     7.439
   718   1 H      0.860     0.231     0.959     1.534
   719   6 C      3.780     0.022    20.224     6.407
   720   1 H      0.925     0.077     2.007     2.215
   721   6 C      3.796    -0.047    21.428     6.591
   722   1 H      0.925     0.041     2.438     2.442
   723   1 H      0.925     0.045     2.383     2.414
   724   6 C      3.802    -0.079    22.010     6.679
   725   1 H      0.925     0.028     2.621     2.532
   726   1 H      0.925     0.036     2.498     2.472
   727   6 C      2.688     0.354    20.993     7.498
   728   8 O      0.856    -0.652    27.425     7.021
   729   8 O      0.856    -0.664    27.738     7.061
   730   6 C      2.746     0.280    22.253     7.724
   731   8 O      0.861    -0.491    23.582     6.511
   732   7 N      2.686    -0.199    25.321     7.474
   733   1 H      0.860     0.225     0.987     1.556
   734   6 C      3.791     0.025    20.166     6.395
   735   1 H      0.925     0.079     1.986     2.204
   736   6 C      3.808    -0.086    22.128     6.696
   737   1 H      0.925     0.065     2.145     2.290
   738   1 H      0.925     0.096     1.826     2.113
   739   6 C      3.847    -0.023    20.956     6.512
   740   1 H      0.924     0.042     2.426     2.436
   741   6 C      3.751    -0.120    22.859     6.818
   742   1 H      0.925     0.056     2.251     2.346
   743   1 H      0.924     0.020     2.733     2.585
   744   1 H      0.925     0.050     2.326     2.385
   745   6 C      3.754    -0.127    22.998     6.838
   746   1 H      0.924     0.041     2.436     2.441
   747   1 H      0.925     0.069     2.095     2.264
   748   1 H      0.925     0.058     2.217     2.328
   749   6 C      2.763     0.273    22.393     7.750
   750   8 O      0.860    -0.517    24.160     6.590
   751   7 N      2.689    -0.177    24.822     7.400
   752   1 H      0.860     0.215     1.034     1.593
   753   6 C      3.788     0.041    19.891     6.352
   754   1 H      0.925     0.067     2.116     2.275
   755   6 C      3.798    -0.096    22.341     6.730
   756   1 H      0.924     0.015     2.812     2.623
   757   1 H      0.925     0.072     2.062     2.245
   758   6 C      2.688     0.366    20.788     7.462
   759   8 O      0.859    -0.633    26.948     6.960
   760   8 O      0.859    -0.670    27.893     7.081
   761   6 C      2.735     0.273    22.375     7.745
   762   8 O      0.860    -0.515    24.108     6.583
   763   7 N      2.689    -0.175    24.787     7.394
   764   1 H      0.860     0.196     1.128     1.664
   765   6 C      3.788     0.026    20.142     6.392
   766   1 H      0.925     0.075     2.035     2.231
   767   6 C      3.805    -0.077    21.960     6.671
   768   1 H      0.925     0.059     2.214     2.327
   769   1 H      0.925     0.069     2.098     2.265
   770   6 C      3.797    -0.075    21.931     6.668
   771   1 H      0.925     0.054     2.266     2.354
   772   1 H      0.924     0.043     2.404     2.424
   773   6 C      3.793    -0.094    22.310     6.726
   774   1 H      0.925     0.081     1.970     2.195
   775   1 H      0.925     0.090     1.881     2.145
   776   6 C      3.729    -0.057    21.692     6.649
   777   1 H      0.924     0.122     1.600     1.978
   778   1 H      0.925     0.111     1.684     2.029
   779   7 N      3.490    -0.137    23.951     7.269
   780   1 H      0.860     0.297     0.722     1.331
   781   1 H      0.860     0.301     0.711     1.321
   782   1 H      0.860     0.312     0.678     1.290
   783   6 C      2.744     0.278    22.299     7.732
   784   8 O      0.862    -0.490    23.557     6.507
   785   7 N      2.684    -0.196    25.263     7.465
   786   1 H      0.860     0.211     1.049     1.605
   787   6 C      3.785     0.025    20.164     6.396
   788   1 H      0.925     0.077     2.007     2.216
   789   6 C      3.757    -0.137    23.180     6.864
   790   1 H      0.925     0.093     1.852     2.128
   791   1 H      0.924     0.071     2.076     2.253
   792   1 H      0.925     0.073     2.049     2.239
   793   6 C      2.746     0.279    22.280     7.729
   794   8 O      0.859    -0.497    23.712     6.529
   795   7 N      2.675    -0.193    25.180     7.453
   796   1 H      0.860     0.203     1.093     1.638
   797   6 C      3.780     0.013    20.370     6.430
   798   1 H      0.925     0.099     1.797     2.096
   799   6 C      3.852    -0.017    20.834     6.492
   800   1 H      0.924     0.033     2.538     2.492
   801   6 C      3.757    -0.110    22.656     6.786
   802   1 H      0.925     0.057     2.234     2.337
   803   1 H      0.925     0.027     2.624     2.533
   804   1 H      0.924     0.055     2.256     2.349
   805   6 C      3.795    -0.073    21.906     6.665
   806   1 H      0.925     0.070     2.083     2.257
   807   1 H      0.925     0.055     2.261     2.352
   808   6 C      3.744    -0.113    22.743     6.803
   809   1 H      0.924     0.036     2.506     2.476
   810   1 H      0.925     0.036     2.500     2.472
   811   1 H      0.925     0.055     2.260     2.351
   812   6 C      2.745     0.277    22.304     7.733
   813   8 O      0.858    -0.475    23.233     6.462
   814   7 N      2.681    -0.176    24.822     7.399
   815   1 H      0.860     0.199     1.111     1.651
   816   6 C      3.744    -0.020    20.998     6.537
   817   1 H      0.925     0.092     1.864     2.135
   818   1 H      0.924     0.084     1.936     2.176
   819   6 C      2.747     0.281    22.237     7.721
   820   8 O      0.858    -0.524    24.328     6.613
   821   7 N      2.684    -0.158    24.429     7.341
   822   1 H      0.860     0.203     1.089     1.635
   823   6 C      3.791     0.017    20.295     6.416
   824   1 H      0.924     0.071     2.069     2.250
   825   6 C      3.793    -0.086    22.148     6.702
   826   1 H      0.925     0.074     2.042     2.235
   827   1 H      0.924     0.069     2.095     2.264
   828   6 C      3.798    -0.082    22.068     6.689
   829   1 H      0.925     0.057     2.233     2.337
   830   1 H      0.924     0.072     2.062     2.246
   831   6 C      3.742    -0.011    20.840     6.513
   832   1 H      0.924     0.087     1.905     2.158
   833   1 H      0.925     0.060     2.194     2.317
   834   7 N      2.720    -0.163    24.530     7.356
   835   1 H      0.860     0.240     0.925     1.506
   836   6 C      2.739     0.253    22.748     7.809
   837   7 N      2.707    -0.280    27.215     7.748
   838   1 H      0.860     0.252     0.876     1.466
   839   1 H      0.860     0.237     0.935     1.515
   840   7 N      2.700    -0.285    27.360     7.769
   841   1 H      0.860     0.239     0.926     1.508
   842   1 H      0.860     0.243     0.912     1.496
   843   6 C      2.755     0.288    22.127     7.703
   844   8 O      0.869    -0.506    23.915     6.557
   845   7 N      2.706    -0.169    24.659     7.375
   846   1 H      0.860     0.216     1.030     1.590
   847   6 C      3.799     0.024    20.164     6.394
   848   1 H      0.925     0.069     2.101     2.267
   849   6 C      3.819    -0.114    22.667     6.776
   850   1 H      0.925     0.111     1.690     2.033
   851   1 H      0.924     0.079     1.985     2.203
   852   6 C      2.747     0.293    22.022     7.684
   853   8 O      0.865    -0.494    23.656     6.521
   854   7 N      2.647    -0.274    27.095     7.731
   855   1 H      0.860     0.250     0.885     1.474
   856   1 H      0.860     0.216     1.030     1.589
   857   6 C      2.767     0.277    22.314     7.736
   858   8 O      0.860    -0.460    22.905     6.417
   859   7 N      2.695    -0.161    24.475     7.348
   860   1 H      0.860     0.190     1.157     1.685
   861   6 C      3.810     0.008    20.439     6.435
   862   1 H      0.924     0.120     1.610     1.984
   863   6 C      3.790    -0.036    21.230     6.562
   864   1 H      0.924     0.066     2.132     2.283
   865   1 H      0.925     0.115     1.651     2.009
   866  16 S      1.893    -0.278   153.043    20.822
   867   1 H      0.923     0.154     1.365     1.827
   868   6 C      2.757     0.272    22.411     7.752
   869   8 O      0.862    -0.430    22.280     6.329
   870   7 N      2.684    -0.185    25.020     7.429
   871   1 H      0.860     0.191     1.152     1.681
   872   6 C      3.792     0.015    20.335     6.422
   873   1 H      0.924     0.097     1.817     2.108
   874   6 C      3.800    -0.105    22.511     6.755
   875   1 H      0.925     0.103     1.758     2.073
   876   1 H      0.925     0.076     2.024     2.225
   877   6 C      2.741     0.282    22.225     7.719
   878   8 O      0.868    -0.499    23.758     6.535
   879   7 N      2.644    -0.279    27.214     7.748
   880   1 H      0.860     0.255     0.863     1.455
   881   1 H      0.860     0.235     0.945     1.522
   882   6 C      2.756     0.254    22.725     7.806
   883   8 O      0.863    -0.467    23.064     6.439
   884   7 N      2.690    -0.130    23.826     7.250
   885   1 H      0.860     0.178     1.225     1.734
   886   6 C      3.744    -0.064    21.797     6.660
   887   1 H      0.925     0.150     1.394     1.846
   888   1 H      0.925     0.110     1.698     2.038
   889   6 C      2.741     0.266    22.513     7.769
   890   8 O      0.859    -0.458    22.866     6.411
   891   7 N      2.680    -0.155    24.365     7.331
   892   1 H      0.860     0.203     1.092     1.637
   893   6 C      3.783     0.005    20.510     6.451
   894   1 H      0.924     0.096     1.826     2.113
   895   6 C      3.861    -0.019    20.872     6.497
   896   1 H      0.925     0.074     2.044     2.236
   897   6 C      3.759    -0.127    22.991     6.836
   898   1 H      0.925     0.035     2.515     2.480
   899   1 H      0.925     0.069     2.100     2.266
   900   1 H      0.924     0.062     2.173     2.305
   901   6 C      3.757    -0.125    22.943     6.829
   902   1 H      0.925     0.049     2.336     2.390
   903   1 H      0.925     0.028     2.611     2.527
   904   1 H      0.925     0.063     2.159     2.298
   905   6 C      2.755     0.269    22.451     7.759
   906   8 O      0.860    -0.496    23.689     6.526
   907   7 N      2.683    -0.171    24.696     7.381
   908   1 H      0.860     0.216     1.026     1.586
   909   6 C      3.787     0.013    20.366     6.428
   910   1 H      0.925     0.075     2.035     2.231
   911   6 C      3.851    -0.027    21.024     6.522
   912   1 H      0.925     0.034     2.535     2.490
   913   6 C      3.755    -0.117    22.794     6.807
   914   1 H      0.924     0.033     2.547     2.496
   915   1 H      0.925     0.046     2.375     2.410
   916   1 H      0.925     0.053     2.278     2.360
   917   6 C      3.794    -0.083    22.097     6.694
   918   1 H      0.924     0.047     2.363     2.404
   919   1 H      0.925     0.066     2.132     2.283
   920   6 C      3.741    -0.114    22.763     6.807
   921   1 H      0.924     0.045     2.386     2.416
   922   1 H      0.925     0.022     2.708     2.573
   923   1 H      0.925     0.051     2.310     2.377
   924   6 C      2.757     0.259    22.645     7.793
   925   8 O      0.859    -0.500    23.785     6.539
   926   7 N      2.695    -0.176    24.800     7.396
   927   1 H      0.860     0.228     0.973     1.545
   928   6 C      3.799     0.006    20.476     6.443
   929   1 H      0.925     0.099     1.794     2.094
   930   6 C      3.735     0.105    18.943     6.212
   931   1 H      0.925     0.043     2.416     2.431
   932   6 C      3.750    -0.148    23.414     6.901
   933   1 H      0.925     0.064     2.155     2.296
   934   1 H      0.925     0.073     2.050     2.239
   935   1 H      0.924     0.074     2.042     2.235
   936   8 O      1.654    -0.529    23.524     6.547
   937   1 H      0.807     0.334     0.626     1.242
   938   6 C      2.747     0.259    22.633     7.790
   939   8 O      0.857    -0.510    24.018     6.571
   940   7 N      2.678    -0.188    25.073     7.437
   941   1 H      0.860     0.235     0.946     1.523
   942   6 C      3.789     0.001    20.577     6.460
   943   1 H      0.924     0.109     1.706     2.043
   944   6 C      3.799    -0.093    22.272     6.719
   945   1 H      0.924     0.069     2.094     2.263
   946   1 H      0.925     0.090     1.882     2.145
   947   6 C      3.795    -0.080    22.036     6.685
   948   1 H      0.925     0.075     2.033     2.230
   949   1 H      0.925     0.068     2.110     2.272
   950   6 C      3.796    -0.105    22.514     6.756
   951   1 H      0.925     0.100     1.783     2.088
   952   1 H      0.925     0.080     1.978     2.200
   953   6 C      3.724    -0.057    21.711     6.654
   954   1 H      0.924     0.113     1.674     2.023
   955   1 H      0.925     0.135     1.499     1.914
   956   7 N      3.483    -0.153    24.301     7.322
   957   1 H      0.860     0.293     0.735     1.343
   958   1 H      0.860     0.299     0.716     1.326
   959   1 H      0.860     0.301     0.710     1.320
   960   6 C      2.769     0.286    22.149     7.708
   961   8 O      0.861    -0.479    23.323     6.475
   962   7 N      2.692    -0.196    25.263     7.465
   963   1 H      0.860     0.223     0.995     1.562
   964   6 C      3.801     0.043    19.857     6.344
   965   1 H      0.924     0.060     2.204     2.322
   966   6 C      3.801    -0.095    22.314     6.725
   967   1 H      0.925     0.037     2.487     2.466
   968   1 H      0.924     0.046     2.365     2.405
   969   6 C      2.686     0.375    20.651     7.437
   970   8 O      0.856    -0.633    26.949     6.960
   971   8 O      0.857    -0.663    27.715     7.058
   972   6 C      2.748     0.270    22.444     7.757
   973   8 O      0.858    -0.528    24.405     6.623
   974   7 N      2.678    -0.180    24.911     7.413
   975   1 H      0.860     0.216     1.026     1.587
   976   6 C      3.778     0.018    20.301     6.419
   977   1 H      0.925     0.066     2.134     2.285
   978   6 C      3.797    -0.066    21.772     6.644
   979   1 H      0.925     0.062     2.173     2.305
   980   1 H      0.924     0.082     1.960     2.189
   981   6 C      3.803    -0.092    22.258     6.717
   982   1 H      0.925     0.047     2.353     2.399
   983   1 H      0.924     0.039     2.459     2.452
   984   6 C      2.691     0.372    20.698     7.446
   985   8 O      0.859    -0.578    25.571     6.780
   986   8 O      0.858    -0.600    26.110     6.851
   987   6 C      2.745     0.265    22.521     7.770
   988   8 O      0.862    -0.508    23.950     6.561
   989   7 N      2.690    -0.180    24.891     7.410
   990   1 H      0.860     0.234     0.949     1.526
   991   6 C      3.786     0.011    20.400     6.433
   992   1 H      0.925     0.097     1.816     2.108
   993   6 C      3.756    -0.135    23.146     6.860
   994   1 H      0.924     0.094     1.843     2.123
   995   1 H      0.925     0.085     1.927     2.171
   996   1 H      0.925     0.066     2.125     2.280
   997   6 C      2.755     0.270    22.442     7.757
   998   8 O      0.859    -0.481    23.375     6.482
   999   7 N      2.684    -0.185    25.018     7.429
  1000   1 H      0.860     0.227     0.977     1.549
  1001   6 C      3.790     0.018    20.290     6.415
  1002   1 H      0.925     0.093     1.848     2.126
  1003   6 C      3.809    -0.048    21.432     6.590
  1004   1 H      0.925     0.020     2.736     2.587
  1005   1 H      0.925     0.071     2.077     2.254
  1006   6 C      3.805    -0.095    22.312     6.725
  1007   1 H      0.924     0.052     2.295     2.369
  1008   1 H      0.925     0.025     2.654     2.548
  1009   6 C      2.695     0.371    20.704     7.447
  1010   8 O      0.857    -0.679    28.135     7.112
  1011   8 O      0.858    -0.596    26.022     6.839
  1012   6 C      2.743     0.258    22.655     7.793
  1013   8 O      0.858    -0.523    24.298     6.609
  1014   7 N      2.682    -0.175    24.798     7.396
  1015   1 H      0.860     0.195     1.133     1.667
  1016   6 C      3.784     0.028    20.128     6.391
  1017   1 H      0.925     0.081     1.964     2.192
  1018   6 C      3.800    -0.071    21.868     6.658
  1019   1 H      0.925     0.066     2.126     2.280
  1020   1 H      0.925     0.069     2.096     2.264
  1021   6 C      3.800    -0.075    21.943     6.669
  1022   1 H      0.925     0.054     2.275     2.359
  1023   1 H      0.924     0.054     2.268     2.355
  1024   6 C      3.794    -0.090    22.225     6.713
  1025   1 H      0.924     0.077     2.008     2.216
  1026   1 H      0.925     0.090     1.882     2.145
  1027   6 C      3.726    -0.061    21.777     6.663
  1028   1 H      0.925     0.134     1.501     1.916
  1029   1 H      0.925     0.118     1.633     1.998
  1030   7 N      3.487    -0.146    24.146     7.298
  1031   1 H      0.860     0.303     0.704     1.314
  1032   1 H      0.860     0.287     0.754     1.361
  1033   1 H      0.860     0.299     0.717     1.326
  1034   6 C      2.743     0.256    22.687     7.799
  1035   8 O      0.857    -0.518    24.186     6.594
  1036   7 N      2.676    -0.190    25.128     7.445
  1037   1 H      0.860     0.233     0.951     1.528
  1038   6 C      3.778     0.015    20.346     6.426
  1039   1 H      0.925     0.081     1.972     2.196
  1040   6 C      3.801    -0.085    22.112     6.695
  1041   1 H      0.925     0.058     2.228     2.334
  1042   1 H      0.925     0.086     1.922     2.168
  1043   6 C      3.844    -0.015    20.812     6.489
  1044   1 H      0.924     0.026     2.648     2.545
  1045   6 C      3.766    -0.132    23.079     6.847
  1046   1 H      0.924     0.046     2.366     2.405
  1047   1 H      0.925     0.063     2.163     2.300
  1048   1 H      0.925     0.042     2.419     2.432
  1049   6 C      3.756    -0.126    22.973     6.834
  1050   1 H      0.925     0.054     2.274     2.358
  1051   1 H      0.925     0.027     2.631     2.536
  1052   1 H      0.924     0.071     2.080     2.255
  1053   6 C      2.744     0.289    22.104     7.698
  1054   8 O      0.858    -0.492    23.606     6.514
  1055   7 N      2.686    -0.197    25.272     7.466
  1056   1 H      0.860     0.217     1.025     1.586
  1057   6 C      3.777     0.031    20.081     6.384
  1058   1 H      0.925     0.070     2.084     2.258
  1059   6 C      3.796    -0.081    22.047     6.686
  1060   1 H      0.925     0.057     2.230     2.335
  1061   1 H      0.925     0.082     1.963     2.191
  1062   6 C      2.960     0.002    27.978     8.676
  1063   6 C      2.905    -0.031    28.763     8.794
  1064   1 H      0.926     0.027     2.630     2.536
  1065   6 C      2.923    -0.027    28.673     8.781
  1066   1 H      0.926     0.034     2.529     2.487
  1067   6 C      2.908    -0.040    29.002     8.830
  1068   1 H      0.926     0.048     2.350     2.397
  1069   6 C      2.904    -0.036    28.904     8.815
  1070   1 H      0.926     0.054     2.267     2.354
  1071   6 C      2.910    -0.049    29.219     8.864
  1072   1 H      0.926     0.045     2.382     2.413
  1073   6 C      2.748     0.274    22.365     7.744
  1074   8 O      0.861    -0.492    23.614     6.515
  1075   7 N      2.692    -0.185    25.003     7.426
  1076   1 H      0.860     0.220     1.008     1.573
  1077   6 C      3.792     0.041    19.899     6.353
  1078   1 H      0.925     0.085     1.924     2.169
  1079   6 C      3.819    -0.104    22.461     6.745
  1080   1 H      0.925     0.073     2.058     2.243
  1081   1 H      0.925     0.090     1.877     2.143
  1082   6 C      2.746     0.284    22.191     7.713
  1083   8 O      0.860    -0.502    23.824     6.544
  1084   7 N      2.642    -0.287    27.401     7.774
  1085   1 H      0.860     0.258     0.854     1.448
  1086   1 H      0.860     0.228     0.973     1.545
  1087   6 C      2.745     0.279    22.277     7.728
  1088   8 O      0.863    -0.501    23.795     6.540
  1089   7 N      2.697    -0.179    24.876     7.407
  1090   1 H      0.860     0.220     1.010     1.574
  1091   6 C      3.784     0.027    20.134     6.391
  1092   1 H      0.925     0.080     1.982     2.202
  1093   6 C      3.806    -0.064    21.717     6.634
  1094   1 H      0.924     0.068     2.111     2.272
  1095   1 H      0.925     0.061     2.186     2.312
  1096   6 C      3.802    -0.107    22.541     6.759
  1097   1 H      0.924     0.081     1.972     2.196
  1098   1 H      0.924     0.066     2.128     2.281
  1099   6 C      2.742     0.287    22.144     7.705
  1100   8 O      0.883    -0.518    24.166     6.592
  1101   7 N      2.662    -0.263    26.828     7.693
  1102   1 H      0.860     0.255     0.863     1.455
  1103   1 H      0.860     0.229     0.968     1.541
  1104   6 C      2.745     0.282    22.224     7.719
  1105   8 O      0.863    -0.493    23.631     6.518
  1106   7 N      2.683    -0.182    24.938     7.417
  1107   1 H      0.860     0.192     1.146     1.677
  1108   6 C      3.790     0.042    19.878     6.350
  1109   1 H      0.925     0.090     1.880     2.144
  1110   6 C      3.816    -0.074    21.903     6.661
  1111   1 H      0.924     0.042     2.426     2.436
  1112   1 H      0.924     0.026     2.640     2.541
  1113   6 C      2.688     0.361    20.871     7.477
  1114   8 O      0.856    -0.587    25.802     6.810
  1115   8 O      0.856    -0.637    27.046     6.973
  1116   6 C      2.763     0.268    22.474     7.764
  1117   8 O      0.861    -0.499    23.750     6.534
  1118   7 N      2.684    -0.200    25.335     7.476
  1119   1 H      0.860     0.220     1.008     1.573
  1120   6 C      3.798     0.033    20.022     6.371
  1121   1 H      0.925     0.091     1.871     2.139
  1122   6 C      3.849    -0.025    20.987     6.516
  1123   1 H      0.925     0.037     2.483     2.464
  1124   6 C      3.761    -0.125    22.950     6.829
  1125   1 H      0.924     0.073     2.058     2.243
  1126   1 H      0.925     0.060     2.205     2.322
  1127   1 H      0.925     0.047     2.358     2.401
  1128   6 C      3.753    -0.122    22.890     6.823
  1129   1 H      0.924     0.055     2.261     2.351
  1130   1 H      0.924     0.060     2.201     2.320
  1131   1 H      0.924     0.032     2.565     2.505
  1132   6 C      2.756     0.268    22.474     7.763
  1133   8 O      0.857    -0.491    23.578     6.510
  1134   7 N      2.681    -0.207    25.497     7.499
  1135   1 H      0.860     0.226     0.981     1.552
  1136   6 C      3.782     0.039    19.938     6.361
  1137   1 H      0.925     0.086     1.919     2.167
  1138   6 C      3.792    -0.095    22.329     6.729
  1139   1 H      0.925     0.030     2.585     2.515
  1140   1 H      0.925     0.045     2.379     2.412
  1141   6 C      2.681     0.357    20.949     7.490
  1142   8 O      0.855    -0.606    26.266     6.871
  1143   8 O      0.856    -0.601    26.154     6.857
  1144   6 C      2.745     0.266    22.516     7.769
  1145   8 O      0.862    -0.480    23.354     6.479
  1146   7 N      2.691    -0.168    24.645     7.373
  1147   1 H      0.860     0.185     1.188     1.708
  1148   6 C      3.778     0.039    19.935     6.361
  1149   1 H      0.924     0.081     1.966     2.193
  1150   6 C      3.752    -0.129    23.033     6.844
  1151   1 H      0.924     0.074     2.042     2.234
  1152   1 H      0.925     0.053     2.277     2.360
  1153   1 H      0.925     0.068     2.113     2.273
  1154   6 C      2.737     0.257    22.665     7.795
  1155   8 O      0.856    -0.500    23.784     6.539
  1156   7 N      2.683    -0.165    24.561     7.360
  1157   1 H      0.860     0.209     1.061     1.614
  1158   6 C      3.784     0.022    20.219     6.405
  1159   1 H      0.925     0.082     1.955     2.186
  1160   6 C      3.759    -0.126    22.963     6.832
  1161   1 H      0.925     0.066     2.134     2.284
  1162   1 H      0.925     0.054     2.270     2.356
  1163   1 H      0.925     0.078     1.998     2.211
  1164   6 C      2.749     0.256    22.696     7.801
  1165   8 O      0.856    -0.495    23.675     6.524
  1166   7 N      2.680    -0.175    24.785     7.394
  1167   1 H      0.860     0.232     0.955     1.531
  1168   6 C      3.773     0.005    20.523     6.455
  1169   1 H      0.925     0.087     1.912     2.162
  1170   6 C      3.839    -0.016    20.830     6.493
  1171   1 H      0.924     0.030     2.591     2.517
  1172   6 C      3.760    -0.124    22.932     6.827
  1173   1 H      0.925     0.077     2.005     2.215
  1174   1 H      0.924     0.039     2.460     2.453
  1175   1 H      0.925     0.058     2.218     2.329
  1176   6 C      3.753    -0.132    23.098     6.853
  1177   1 H      0.924     0.077     2.012     2.218
  1178   1 H      0.925     0.042     2.425     2.435
  1179   1 H      0.925     0.053     2.282     2.363
  1180   6 C      2.729     0.264    22.543     7.773
  1181   8 O      0.859    -0.462    22.969     6.426
  1182   7 N      2.675    -0.204    25.447     7.492
  1183   1 H      0.860     0.217     1.025     1.586
  1184   6 C      3.774     0.008    20.476     6.447
  1185   1 H      0.924     0.097     1.812     2.105
  1186   6 C      3.793    -0.069    21.835     6.654
  1187   1 H      0.924     0.075     2.026     2.226
  1188   1 H      0.925     0.047     2.362     2.404
  1189   6 C      3.803    -0.085    22.116     6.695
  1190   1 H      0.924     0.069     2.101     2.267
  1191   1 H      0.924     0.088     1.900     2.156
  1192   6 C      3.731    -0.020    21.017     6.544
  1193   1 H      0.925     0.094     1.841     2.122
  1194   1 H      0.925     0.066     2.125     2.279
  1195   7 N      2.700    -0.163    24.515     7.354
  1196   1 H      0.860     0.221     1.007     1.572
  1197   6 C      2.732     0.251    22.777     7.813
  1198   7 N      2.680    -0.288    27.417     7.777
  1199   1 H      0.860     0.256     0.861     1.453
  1200   1 H      0.860     0.239     0.925     1.507
  1201   7 N      2.688    -0.239    26.232     7.607
  1202   1 H      0.860     0.265     0.828     1.425
  1203   1 H      0.860     0.223     0.996     1.563
  1204   6 C      2.746     0.278    22.288     7.730
  1205   8 O      0.860    -0.468    23.078     6.441
  1206   7 N      2.686    -0.181    24.918     7.414
  1207   1 H      0.860     0.194     1.139     1.672
  1208   6 C      3.739    -0.021    21.029     6.543
  1209   1 H      0.925     0.065     2.138     2.287
  1210   1 H      0.925     0.096     1.822     2.111
  1211   6 C      2.765     0.278    22.291     7.732
  1212   8 O      0.860    -0.503    23.840     6.546
  1213   7 N      2.688    -0.160    24.472     7.347
[...]
  2284  C   3.949        O 2285 1.629    N 2286 1.346    C 2281 0.943
  2285  O   1.937        C 2284 1.629    N 2286 0.193
  2286  N   3.406        C 2284 1.346    H 2288 0.925    H 2287 0.909    O 2285 0.193
  2287  H   0.935        N 2286 0.909
  2288  H   0.950        N 2286 0.925
  2289  C   3.950        O 2290 1.650    N 2291 1.302    C 2279 0.928
  2290  O   1.982        C 2289 1.650    N 2291 0.197
  2291  N   3.464        C 2289 1.302    C 2293 0.969    H 2292 0.921    O 2290 0.197
  2292  H   0.956        N 2291 0.921
  2293  C   3.958        C 2295 0.985    N 2291 0.969    H 2294 0.947    C 2313 0.934
  2294  H   0.989        C 2293 0.947
  2295  C   3.985        C 2298 0.997    C 2293 0.985    H 2296 0.972    H 2297 0.969
  2296  H   0.996        C 2295 0.972
  2297  H   0.993        C 2295 0.969
  2298  C   3.979        C 2301 1.002    C 2295 0.997    H 2300 0.974    H 2299 0.968
  2299  H   0.993        C 2298 0.968
  2300  H   0.992        C 2298 0.974
  2301  C   3.942        C 2298 1.002    N 2304 0.972    H 2302 0.963    H 2303 0.961
  2302  H   0.994        C 2301 0.963
  2303  H   0.994        C 2301 0.961
  2304  N   3.451        C 2306 1.325    C 2301 0.972    H 2305 0.868    N 2310 0.104
  2305  H   0.939        N 2304 0.868
  2306  C   3.976        N 2304 1.325    N 2310 1.318    N 2307 1.295
  2307  N   3.386        C 2306 1.295    H 2308 0.932    H 2309 0.919
  2308  H   0.957        N 2307 0.932
  2309  H   0.943        N 2307 0.919
  2310  N   3.382        C 2306 1.318    H 2311 0.922    H 2312 0.890    N 2304 0.104
  2311  H   0.951        N 2310 0.922
  2312  H   0.937        N 2310 0.890
  2313  C   3.952        O 2314 1.550    N 2315 1.383    C 2293 0.934
  2314  O   1.876        C 2313 1.550    N 2315 0.198
  2315  N   3.506        C 2313 1.383    C 2317 0.960    H 2316 0.869    O 2314 0.198
  2316  H   0.939        N 2315 0.869
  2317  C   3.954        C 2319 0.997    N 2315 0.960    H 2318 0.945    C 2323 0.943
  2318  H   0.991        C 2317 0.945
  2319  C   3.986        C 2317 0.997    H 2322 0.981    H 2321 0.978    H 2320 0.977
  2320  H   0.995        C 2319 0.977
  2321  H   0.994        C 2319 0.978
  2322  H   0.997        C 2319 0.981
  2323  C   3.952        O 2324 1.638    N 2325 1.290    C 2317 0.943
  2324  O   1.966        C 2323 1.638    N 2325 0.195
  2325  N   3.456        C 2323 1.290    C 2327 0.979    H 2326 0.901    O 2324 0.195
  2326  H   0.951        N 2325 0.901
  2327  C   3.958        C 2329 0.980    N 2325 0.979    C 2345 0.935    H 2328 0.934
  2328  H   0.991        C 2327 0.934
  2329  C   3.975        C 2332 1.002    C 2327 0.980    H 2331 0.965    H 2330 0.960
  2330  H   0.991        C 2329 0.960
  2331  H   0.993        C 2329 0.965
  2332  C   3.991        C 2335 1.004    C 2329 1.002    H 2333 0.976    H 2334 0.965
  2333  H   0.998        C 2332 0.976
  2334  H   0.994        C 2332 0.965
  2335  C   3.972        C 2332 1.004    C 2338 0.999    H 2337 0.968    H 2336 0.960
  2336  H   0.990        C 2335 0.960
  2337  H   0.993        C 2335 0.968
  2338  C   3.915        C 2335 0.999    N 2341 0.974    H 2340 0.959    H 2339 0.956
  2339  H   0.986        C 2338 0.956
  2340  H   0.985        C 2338 0.959
  2341  N   3.671        C 2338 0.974    H 2342 0.895    H 2343 0.893    H 2344 0.891
  2342  H   0.917        N 2341 0.895
  2343  H   0.912        N 2341 0.893
  2344  H   0.911        N 2341 0.891
  2345  C   3.940        O 2346 1.589    N 2347 1.319    C 2327 0.935
  2346  O   1.955        C 2345 1.589    N 2347 0.186
  2347  N   3.478        C 2345 1.319    C 2349 0.973    H 2348 0.907    O 2346 0.186
  2348  H   0.949        N 2347 0.907
  2349  C   3.961        C 2351 0.982    N 2347 0.973    H 2350 0.951    C 2369 0.928
  2350  H   0.991        C 2349 0.951
  2351  C   3.984        C 2354 1.011    C 2349 0.982    H 2353 0.967    H 2352 0.964
  2352  H   0.993        C 2351 0.964
  2353  H   0.991        C 2351 0.967
  2354  C   3.986        C 2351 1.011    C 2357 0.994    H 2356 0.969    H 2355 0.961
  2355  H   0.993        C 2354 0.961
  2356  H   0.996        C 2354 0.969
  2357  C   3.940        C 2354 0.994    H 2359 0.966    H 2358 0.962    N 2360 0.960
  2358  H   0.991        C 2357 0.962
  2359  H   0.994        C 2357 0.966
  2360  N   3.519        C 2362 1.389    C 2357 0.960    H 2361 0.892    N 2366 0.109    N 2363 0.105
  2361  H   0.947        N 2360 0.892
  2362  C   3.977        N 2360 1.389    N 2363 1.282    N 2366 1.278
  2363  N   3.350        C 2362 1.282    H 2364 0.918    H 2365 0.912    N 2360 0.105
  2364  H   0.937        N 2363 0.918
  2365  H   0.936        N 2363 0.912
  2366  N   3.361        C 2362 1.278    H 2367 0.922    H 2368 0.881    N 2360 0.109
  2367  H   0.945        N 2366 0.922
  2368  H   0.949        N 2366 0.881
  2369  C   3.944        O 2370 1.613    N 2371 1.319    C 2349 0.928
  2370  O   1.948        C 2369 1.613    N 2371 0.197
  2371  N   3.479        C 2369 1.319    C 2373 0.979    H 2372 0.900    O 2370 0.197
  2372  H   0.947        N 2371 0.900
  2373  C   3.959        N 2371 0.979    C 2375 0.968    H 2374 0.953    C 2385 0.929
  2374  H   0.995        C 2373 0.953
  2375  C   3.988        C 2377 1.010    C 2381 1.005    C 2373 0.968    H 2376 0.961
  2376  H   0.996        C 2375 0.961
  2377  C   3.988        C 2375 1.010    H 2380 0.982    H 2379 0.978    H 2378 0.972
  2378  H   0.998        C 2377 0.972
  2379  H   0.995        C 2377 0.978
  2380  H   0.998        C 2377 0.982
  2381  C   3.990        C 2375 1.005    H 2384 0.983    H 2382 0.980    H 2383 0.976
  2382  H   0.997        C 2381 0.980
  2383  H   0.996        C 2381 0.976
  2384  H   0.999        C 2381 0.983
  2385  C   3.947        O 2386 1.579    N 2387 1.351    C 2373 0.929
  2386  O   1.918        C 2385 1.579    N 2387 0.194
  2387  N   3.491        C 2385 1.351    C 2389 0.958    H 2388 0.905    O 2386 0.194
  2388  H   0.952        N 2387 0.905
  2389  C   3.944        C 2391 0.962    N 2387 0.958    H 2390 0.944    C 2404 0.934
  2390  H   0.992        C 2389 0.944
  2391  C   3.977        C 2393 1.004    C 2397 0.984    C 2389 0.962    H 2392 0.960
  2392  H   0.996        C 2391 0.960
  2393  C   3.987        C 2391 1.004    H 2396 0.984    H 2394 0.983    H 2395 0.976
  2394  H   0.998        C 2393 0.983
  2395  H   0.993        C 2393 0.976
  2396  H   0.997        C 2393 0.984
  2397  C   3.991        C 2400 1.023    C 2391 0.984    H 2398 0.974    H 2399 0.973
  2398  H   0.997        C 2397 0.974
  2399  H   0.998        C 2397 0.973
  2400  C   3.992        C 2397 1.023    H 2401 0.981    H 2403 0.979    H 2402 0.977
  2401  H   0.997        C 2400 0.981
  2402  H   0.998        C 2400 0.977
  2403  H   0.998        C 2400 0.979
  2404  C   3.942        O 2405 1.643    N 2406 1.279    C 2389 0.934
  2405  O   1.990        C 2404 1.643    N 2406 0.195
  2406  N   3.452        C 2404 1.279    C 2408 0.973    H 2407 0.903    O 2405 0.195
  2407  H   0.954        N 2406 0.903
  2408  C   3.959        N 2406 0.973    H 2409 0.949    C 2418 0.946    C 2410 0.938
  2409  H   0.990        C 2408 0.949
  2410  C   3.964        O 2416 1.026    C 2412 0.996    H 2411 0.957    C 2408 0.938
  2411  H   0.998        C 2410 0.957
  2412  C   3.990        C 2410 0.996    H 2414 0.984    H 2415 0.983    H 2413 0.981
  2413  H   0.995        C 2412 0.981
  2414  H   0.996        C 2412 0.984
  2415  H   0.999        C 2412 0.983
  2416  O   1.962        C 2410 1.026    H 2417 0.831
  2417  H   0.877        O 2416 0.831
  2418  C   3.943        O 2419 1.590    N 2420 1.316    C 2408 0.946
  2419  O   1.935        C 2418 1.590    N 2420 0.191
  2420  N   3.468        C 2418 1.316    C 2422 0.960    H 2421 0.908    O 2419 0.191
  2421  H   0.953        N 2420 0.908
  2422  C   3.955        N 2420 0.960    C 2424 0.958    H 2423 0.954    C 2432 0.938
  2423  H   0.990        C 2422 0.954
  2424  C   3.954        O 2430 0.997    C 2426 0.990    H 2425 0.964    C 2422 0.958
  2425  H   0.999        C 2424 0.964
  2426  C   3.983        C 2424 0.990    H 2429 0.985    H 2427 0.983    H 2428 0.982
  2427  H   0.996        C 2426 0.983
  2428  H   0.997        C 2426 0.982
  2429  H   0.995        C 2426 0.985
  2430  O   1.955        C 2424 0.997    H 2431 0.867
  2431  H   0.898        O 2430 0.867
  2432  C   3.954        O 2433 1.609    N 2434 1.322    C 2422 0.938
  2433  O   1.958        C 2432 1.609    N 2434 0.197
  2434  N   3.485        C 2432 1.322    C 2436 0.976    H 2435 0.901    O 2433 0.197
  2435  H   0.949        N 2434 0.901
  2436  C   3.955        N 2434 0.976    C 2438 0.953    C 2452 0.953    H 2437 0.943
  2437  H   0.991        C 2436 0.943
  2438  C   3.977        C 2441 1.006    H 2440 0.966    H 2439 0.955    C 2436 0.953
  2439  H   0.993        C 2438 0.955
  2440  H   0.995        C 2438 0.966
  2441  C   3.986        C 2442 1.430    C 2450 1.378    C 2438 1.006    C 2446 0.126
  2442  C   3.990        C 2444 1.435    C 2441 1.430    H 2443 0.960    C 2448 0.100
  2443  H   0.999        C 2442 0.960
  2444  C   3.987        C 2446 1.444    C 2442 1.435    H 2445 0.969    C 2450 0.105
  2445  H   0.997        C 2444 0.969
  2446  C   3.983        C 2444 1.444    C 2448 1.394    H 2447 0.974    C 2441 0.126
  2447  H   0.998        C 2446 0.974
  2448  C   3.986        C 2450 1.495    C 2446 1.394    H 2449 0.968    C 2442 0.100
  2449  H   0.996        C 2448 0.968
  2450  C   3.991        C 2448 1.495    C 2441 1.378    H 2451 0.966    C 2444 0.105
  2451  H   0.998        C 2450 0.966
  2452  C   3.952        O 2453 1.648    N 2454 1.267    C 2436 0.953
  2453  O   1.981        C 2452 1.648    N 2454 0.193
  2454  N   3.447        C 2452 1.267    C 2456 0.984    H 2455 0.900    O 2453 0.193
  2455  H   0.954        N 2454 0.900
  2456  C   3.962        C 2458 0.997    N 2454 0.984    H 2457 0.954    C 2476 0.908
  2457  H   0.992        C 2456 0.954
  2458  C   3.981        C 2456 0.997    C 2461 0.988    H 2459 0.966    H 2460 0.959
  2459  H   0.995        C 2458 0.966
  2460  H   0.990        C 2458 0.959
  2461  C   3.986        C 2464 1.013    C 2458 0.988    H 2463 0.977    H 2462 0.966
  2462  H   0.997        C 2461 0.966
  2463  H   0.996        C 2461 0.977
  2464  C   3.956        C 2461 1.013    N 2467 0.977    H 2465 0.962    H 2466 0.956
  2465  H   0.992        C 2464 0.962
  2466  H   0.993        C 2464 0.956
  2467  N   3.449        C 2469 1.308    C 2464 0.977    H 2468 0.874    N 2473 0.103
  2468  H   0.952        N 2467 0.874
  2469  C   3.976        N 2473 1.325    N 2470 1.314    N 2467 1.308
  2470  N   3.378        C 2469 1.314    H 2472 0.913    H 2471 0.907    N 2473 0.102
  2471  H   0.929        N 2470 0.907
  2472  H   0.940        N 2470 0.913
  2473  N   3.387        C 2469 1.325    H 2474 0.914    H 2475 0.871    N 2467 0.103    N 2470 0.102
  2474  H   0.938        N 2473 0.914
  2475  H   0.945        N 2473 0.871
  2476  C   3.937        O 2477 1.661    N 2478 1.283    C 2456 0.908
  2477  O   1.984        C 2476 1.661    N 2478 0.197
  2478  N   3.455        C 2476 1.283    C 2480 0.980    H 2479 0.903    O 2477 0.197
  2479  H   0.952        N 2478 0.903
  2480  C   3.968        N 2478 0.980    C 2482 0.958    C 2490 0.948    H 2481 0.942
  2481  H   0.991        C 2480 0.942
  2482  C   3.945        C 2484 1.001    O 2488 0.967    H 2483 0.961    C 2480 0.958
  2483  H   0.996        C 2482 0.961
  2484  C   3.982        C 2482 1.001    H 2485 0.982    H 2486 0.980    H 2487 0.979
  2485  H   0.996        C 2484 0.982
  2486  H   0.994        C 2484 0.980
  2487  H   0.995        C 2484 0.979
  2488  O   1.963        C 2482 0.967    H 2489 0.858
  2489  H   0.891        O 2488 0.858
  2490  C   3.953        O 2491 1.639    N 2492 1.285    C 2480 0.948
  2491  O   1.961        C 2490 1.639    N 2492 0.201
  2492  N   3.452        C 2490 1.285    C 2494 0.982    H 2493 0.902    O 2491 0.201
  2493  H   0.954        N 2492 0.902
  2494  C   3.955        N 2492 0.982    H 2495 0.955    H 2496 0.953    C 2497 0.941
  2495  H   0.989        C 2494 0.955
  2496  H   0.989        C 2494 0.953
  2497  C   3.947        O 2498 1.705    N 2499 1.243    C 2494 0.941
  2498  O   2.013        C 2497 1.705    N 2499 0.195
  2499  N   3.422        C 2497 1.243    C 2501 0.983    H 2500 0.914    O 2498 0.195
  2500  H   0.956        N 2499 0.914
  2501  C   3.975        N 2499 0.983    C 2511 0.977    H 2502 0.945    C 2503 0.929
  2502  H   0.995        C 2501 0.945
  2503  C   3.955        C 2505 0.997    O 2509 0.996    H 2504 0.957    C 2501 0.929
  2504  H   0.998        C 2503 0.957
  2505  C   3.987        C 2503 0.997    H 2506 0.982    H 2507 0.981    H 2508 0.980
  2506  H   0.996        C 2505 0.982
  2507  H   0.995        C 2505 0.981
  2508  H   0.997        C 2505 0.980
  2509  O   1.937        C 2503 0.996    H 2510 0.839
  2510  H   0.892        O 2509 0.839
  2511  C   3.961        O 2512 1.631    N 2513 1.283    C 2501 0.977
  2512  O   1.952        C 2511 1.631    N 2513 0.197
  2513  N   3.447        C 2511 1.283    C 2515 0.969    H 2514 0.917    O 2512 0.197
  2514  H   0.954        N 2513 0.917
  2515  C   3.956        N 2513 0.969    C 2517 0.956    C 2535 0.949    H 2516 0.940
  2516  H   0.991        C 2515 0.940
  2517  C   3.982        C 2520 1.035    H 2519 0.970    C 2515 0.956    H 2518 0.951
  2518  H   0.995        C 2517 0.951
  2519  H   0.997        C 2517 0.970
  2520  C   3.971        C 2521 1.582    C 2534 1.177    C 2517 1.035
  2521  C   3.950        C 2520 1.582    N 2523 1.197    H 2522 0.967
  2522  H   0.996        C 2521 0.967
  2523  N   3.542        C 2521 1.197    C 2525 1.189    H 2524 0.929
  2524  H   0.956        N 2523 0.929
  2525  C   3.962        C 2526 1.318    C 2534 1.263    N 2523 1.189
  2526  C   3.980        C 2528 1.462    C 2525 1.318    H 2527 0.967    C 2532 0.136
  2527  H   0.996        C 2526 0.967
  2528  C   3.989        C 2526 1.462    C 2530 1.422    H 2529 0.963
  2529  H   0.997        C 2528 0.963
  2530  C   3.986        C 2532 1.451    C 2528 1.422    H 2531 0.967
  2531  H   0.999        C 2530 0.967
  2532  C   3.989        C 2530 1.451    C 2534 1.350    H 2533 0.972    C 2526 0.136
  2533  H   0.999        C 2532 0.972
  2534  C   3.983        C 2532 1.350    C 2525 1.263    C 2520 1.177
  2535  C   3.940        O 2536 1.551    N 2537 1.351    C 2515 0.949
  2536  O   1.919        C 2535 1.551    N 2537 0.191
  2537  N   3.486        C 2535 1.351    C 2539 0.938    H 2538 0.918    O 2536 0.191
  2538  H   0.956        N 2537 0.918
  2539  C   3.949        C 2541 0.974    H 2540 0.949    C 2547 0.945    N 2537 0.938
  2540  H   0.992        C 2539 0.949
  2541  C   3.977        H 2542 0.978    C 2539 0.974    H 2543 0.958    C 2544 0.921
  2542  H   0.998        C 2541 0.978
  2543  H   0.996        C 2541 0.958
  2544  C   3.942        O 2545 1.538    O 2546 1.461    C 2541 0.921
  2545  O   1.844        C 2544 1.538    O 2546 0.222
  2546  O   1.756        C 2544 1.461    O 2545 0.222
  2547  C   3.947        O 2548 1.645    N 2549 1.281    C 2539 0.945
  2548  O   1.958        C 2547 1.645    N 2549 0.191
  2549  N   3.450        C 2547 1.281    C 2551 0.961    H 2550 0.929    O 2548 0.191
  2550  H   0.960        N 2549 0.929
  2551  C   3.953        C 2553 0.996    N 2549 0.961    C 2557 0.953    H 2552 0.938
  2552  H   0.990        C 2551 0.938
  2553  C   3.978        C 2551 0.996    H 2556 0.981    H 2554 0.976    H 2555 0.969
  2554  H   0.993        C 2553 0.976
  2555  H   0.991        C 2553 0.969
  2556  H   0.996        C 2553 0.981
  2557  C   3.950        O 2558 1.583    N 2559 1.337    C 2551 0.953
  2558  O   1.892        C 2557 1.583    N 2559 0.192
  2559  N   3.490        C 2557 1.337    C 2561 0.972    H 2560 0.895    O 2558 0.192
  2560  H   0.958        N 2559 0.895
  2561  C   3.959        N 2559 0.972    C 2563 0.951    H 2562 0.950    C 2578 0.943
  2562  H   0.994        C 2561 0.950
  2563  C   3.982        C 2566 1.018    H 2565 0.969    H 2564 0.962    C 2561 0.951
  2564  H   0.996        C 2563 0.962
  2565  H   0.997        C 2563 0.969
  2566  C   3.981        C 2567 1.388    C 2576 1.384    C 2563 1.018    C 2571 0.108
  2567  C   3.987        C 2569 1.466    C 2566 1.388    H 2568 0.969    C 2574 0.103
  2568  H   0.997        C 2567 0.969
  2569  C   3.985        C 2567 1.466    C 2571 1.381    H 2570 0.957
  2570  H   0.995        C 2569 0.957
  2571  C   3.940        C 2569 1.381    C 2574 1.321    O 2572 1.084    C 2566 0.108
  2572  O   2.111        C 2571 1.084    H 2573 0.834
  2573  H   0.894        O 2572 0.834
  2574  C   3.985        C 2576 1.492    C 2571 1.321    H 2575 0.962    C 2567 0.103
  2575  H   0.999        C 2574 0.962
  2576  C   3.991        C 2574 1.492    C 2566 1.384    H 2577 0.967
  2577  H   0.999        C 2576 0.967
  2578  C   3.946        O 2579 1.602    N 2580 1.310    C 2561 0.943
  2579  O   1.920        C 2578 1.602    N 2580 0.198
  2580  N   3.473        C 2578 1.310    C 2582 0.990    H 2581 0.880    O 2579 0.198
  2581  H   0.947        N 2580 0.880
  2582  C   3.954        N 2580 0.990    C 2584 0.985    H 2583 0.953    C 2600 0.883
  2583  H   0.999        C 2582 0.953
  2584  C   3.992        C 2587 1.003    C 2582 0.985    H 2586 0.976    H 2585 0.971
  2585  H   0.997        C 2584 0.971
  2586  H   0.997        C 2584 0.976
  2587  C   3.995        C 2590 1.008    C 2584 1.003    H 2588 0.975    H 2589 0.973
  2588  H   0.999        C 2587 0.975
  2589  H   0.998        C 2587 0.973
  2590  C   3.988        C 2587 1.008    C 2593 1.005    H 2592 0.975    H 2591 0.967
  2591  H   0.996        C 2590 0.967
  2592  H   0.995        C 2590 0.975
  2593  C   3.903        C 2590 1.005    H 2595 0.963    H 2594 0.957    N 2596 0.948
  2594  H   0.986        C 2593 0.957
  2595  H   0.984        C 2593 0.963
  2596  N   3.664        C 2593 0.948    H 2598 0.903    H 2597 0.896    H 2599 0.894
  2597  H   0.909        N 2596 0.896
  2598  H   0.923        N 2596 0.903
  2599  H   0.905        N 2596 0.894
  2600  C   3.932        O 2601 1.505    O 2602 1.495    C 2582 0.883
  2601  O   1.799        C 2600 1.505    O 2602 0.216
  2602  O   1.787        C 2600 1.495    O 2601 0.216

molecular dipole:
                 x           y           z       tot (Debye)
 q only:      602.205     706.299     649.969
   full:      601.047     706.189     656.112    2887.366
molecular quadrupole (traceless):
                xx          xy          yy          xz          yz          zz
 q only:   -11839.920   75548.206   11823.347   70185.482   81652.603      16.573
  q+dip:   -12654.966   74970.423   11391.782   70487.715   82177.827    1263.184
   full:   -12648.405   74965.221   11381.685   70492.515   82175.369    1266.720


           -------------------------------------------------
          | TOTAL ENERGY            -4085.310624820394 Eh   |
          | GRADIENT NORM               1.319562019805 Eh/α |
          | HOMO-LUMO GAP               1.742340348647 eV   |
           -------------------------------------------------
########################################################################
[WARNING] Runtime exception occurred
-2- restart_readRestart: Dimension missmatch in restart file.
-1- restart_readRestart: Number of electron missmatch in restart file.
########################################################################

------------------------------------------------------------------------
 * finished run on 2020/06/08 at 11:37:29.132     
------------------------------------------------------------------------
 total:
 * wall-time:     0 d,  0 h,  7 min, 44.534 sec
 *  cpu-time:     0 d,  5 h, 51 min,  9.569 sec
 * ratio c/w:    45.356 speedup
 SCF:
 * wall-time:     0 d,  0 h,  7 min, 14.812 sec
 *  cpu-time:     0 d,  5 h, 40 min, 28.471 sec
 * ratio c/w:    46.982 speedup

