      -----------------------------------------------------------      
     |                   =====================                   |     
     |                           x T B                           |     
     |                   =====================                   |     
     |                         S. Grimme                         |     
     |          Mulliken Center for Theoretical Chemistry        |     
     |                    University of Bonn                     |     
      -----------------------------------------------------------      

   * xtb version 6.2.3 (d7bf61a) compiled by 'conda@06d140edd85e' on 2020-05-12

   xtb is free software: you can redistribute it and/or modify it under
   the terms of the GNU Lesser General Public License as published by
   the Free Software Foundation, either version 3 of the License, or
   (at your option) any later version.
   
   xtb is distributed in the hope that it will be useful,
   but WITHOUT ANY WARRANTY; without even the implied warranty of
   MERCHANTABILITY or FITNESS FOR A PARTICULAR PURPOSE.  See the
   GNU Lesser General Public License for more details.
   
   Cite this work as:
   * S. Grimme, C. Bannwarth, P. Shushkov, J. Chem. Theory Comput., 2017,
     13, 1989-2009. DOI: 10.1021/acs.jctc.7b00118
   * C. Bannwarth, S. Ehlert and S. Grimme., J. Chem. Theory Comput., 2019,
     15, 1652-1671. DOI: 10.1021/acs.jctc.8b01176
   * P. Pracht, E. Caldeweyher, S. Ehlert, S. Grimme, ChemRxiv, 2019, preprint.
     DOI: 10.26434/chemrxiv.8326202.v1
   
   for DFT-D4:
   * E. Caldeweyher, C. Bannwarth and S. Grimme, J. Chem. Phys., 2017,
     147, 034112. DOI: 10.1063/1.4993215
   * E. Caldeweyher, S. Ehlert, A. Hansen, H. Neugebauer, S. Spicher,
     C. Bannwarth and S. Grimme, J. Chem. Phys., 2019, 150, 154122.
     DOI: 10.1063/1.5090222
   
   for sTDA-xTB:
   * S. Grimme and C. Bannwarth, J. Chem. Phys., 2016, 145, 054103.
     DOI: 10.1063/1.4959605
   
   in the mass-spec context:
   * V. Asgeirsson, C. Bauer and S. Grimme, Chem. Sci., 2017, 8, 4879.
     DOI: 10.1039/c7sc00601b
   
   for metadynamics refer to:
   * S. Grimme, J. Chem. Theory Comput., 2019, 155, 2847-2862
     DOI: 10.1021/acs.jctc.9b00143
   
   with help from (in alphabetical order)
   C. Bannwarth, F. Bohle, G. Brandenburg, E. Caldeweyher, M. Checinski,
   S. Dohm, S. Ehlert, S. Ehrlich, F. März, H. Neugebauer, J. Pisarek,
   P. Pracht, P. Shushkov, and S. Spicher.
   
 * started run on 2020/06/09 at 00:09:15.121     

           -------------------------------------------------
          |                Calculation Setup                |
           -------------------------------------------------

          program call               : xtb host_29741.xyz --chrg +9 --uhf 0 --gbsa water
          hostname                   : gold56.cluster.local
          coordinate file            : host_29741.xyz
          omp threads                :                    64
          number of atoms            :                  2602
          number of electrons        :                  7192
          charge                     :                     9
          spin                       :                   0.0
          first test random number   :      0.05337210516686

########################################################################
[WARNING] Please study the warnings concerning your input carefully
-2- prog_main: XTBPATH is not set, using XTBHOME instead
-1- prog_main: XTBHOME is not set, using HOME instead
########################################################################
           ------------------------------------------------- 
          |                 G F N 2 - x T B                 |
          | Geometry, Frequencies, Noncovalent interactions |
          |            JCTC 2019 parametrisation            |
           ------------------------------------------------- 
             k(s)              :                1.8500
             k(p)              :                2.2300
             k(d)              :                2.2300
             k(f)              :                2.0000
             kEN (H0ij)        :               -2.0000
             D4 a1             :                0.5200
             D4 a2             :                5.0000
             D4 s6             :                1.0000
             D4 s8             :                2.7000
             D4 s9             :                5.0000
             alphaj            :                2.0000

  Z AO/shell   Hii/eV     exponent
  1     Wed Apr 25 08:07:45 CEST 2018   EN: 2.200 GM2: 0.406  GM3: 0.0800  RAES: 1.40
     1s    -10.707211    1.230000
  6     Wed Apr 25 08:07:45 CEST 2018   EN: 2.550 GM2: 0.538  GM3: 0.1500  RAES: 3.00
     2s    -13.970922    2.096432
     2p    -10.063292    1.800000
  7     Wed Apr 25 08:07:45 CEST 2018   EN: 3.040 GM2: 0.461  GM3:-0.0640  RAES: 1.90
     2s    -16.686243    2.339881
     2p    -12.523956    2.014332
  8     Wed Apr 25 08:07:45 CEST 2018   EN: 3.440 GM2: 0.452  GM3:-0.0517  RAES: 1.80
     2s    -20.229985    2.439742
     2p    -15.503117    2.137023
 16     Tue Apr 24 11:44:34 CEST 2018   EN: 2.580 GM2: 0.340  GM3:-0.0502  RAES: 3.10
     3s    -20.029654    1.981333
     3p    -11.377694    2.025643
     3d     -0.420282    1.702555

 Solvent             : water
 Using internal parameter file: .param_gbsa2_water
 Gsolv ref. state (COSMO-RS): gsolv [1 M gas/solution]
 temperature (mdtemp)       :    298.14999999999998     
 dielectric constant        :    80.200000000000003     
 rho                        :    1.0000000000000000     
 mass                       :    18.000000000000000     
 surface tension            :    15.568945408385856     
 probe radius               :   0.97531378999999996     
 Gshift (Eh)                :    1.8574431267947933E-003
 c1                         :    1.5524381700000001     
 soset                      :   0.13032636000000000     
 HB correction              :  T
           ------------------------------------------------- 
          |        Self-Consistent Charge Iterations        |
           ------------------------------------------------- 

          ...................................................
          :                      SETUP                      :
          :.................................................:
          :  # basis functions                6511          :
          :  # atomic orbitals                6505          :
          :  # shells                         3899          :
          :  # electrons                      7192          :
          :  max. iterations                   250          :
          :  Hamiltonian                  GFN2-xTB          :
          :  restarted?                      false          :
          :  GBSA solvation                   true          :
          :  PC potential                    false          :
          :  electronic temp.          300.0000000     K    :
          :  accuracy                    1.0000000          :
          :  -> integral cutoff          0.2500000E+02      :
          :  -> integral neglect         0.1000000E-07      :
          :  -> SCF convergence          0.1000000E-05 Eh   :
          :  -> wf. convergence          0.1000000E-03 e    :
          :  Broyden damping             0.4000000          :
          ...................................................

 iter      E             dE          RMSdq      gap      omega  full diag
   1  -4120.2709785 -0.412027E+04  0.428E+00    2.25       0.0  T
   2  -4132.7432416 -0.124723E+02  0.226E+00    2.55       1.0  T
   3  -4133.2219139 -0.478672E+00  0.119E+00    2.02       1.0  T
   4  -4133.2797269 -0.578131E-01  0.293E-01    1.70       1.0  T
   5  -4133.3902420 -0.110515E+00  0.143E-01    1.60       1.0  T
   6  -4133.4055041 -0.152621E-01  0.736E-02    1.64       1.0  T
   7  -4133.4080726 -0.256851E-02  0.378E-02    1.59       1.0  T
   8  -4133.4090934 -0.102080E-02  0.164E-02    1.53       1.0  T
   9  -4133.4092581 -0.164694E-03  0.100E-02    1.51       1.0  T
  10  -4133.4093377 -0.795807E-04  0.553E-03    1.48       1.0  T
  11  -4133.4093614 -0.237409E-04  0.294E-03    1.47       1.0  T
  12  -4133.4093698 -0.841304E-05  0.165E-03    1.46       1.2  T
  13  -4133.4093724 -0.256596E-05  0.904E-04    1.46       2.2  T
  14  -4133.4093732 -0.759086E-06  0.462E-04    1.45       4.2  T
  15  -4133.4093734 -0.194010E-06  0.234E-04    1.45       8.4  T

   *** convergence criteria satisfied after 15 iterations ***

         #    Occupation            Energy/Eh            Energy/eV
      -------------------------------------------------------------
         1        2.0000           -0.7522462             -20.4697
       ...           ...                  ...                  ...
      3590        2.0000           -0.3588218              -9.7640
      3591        2.0000           -0.3572606              -9.7216
      3592        2.0000           -0.3558514              -9.6832
      3593        2.0000           -0.3550017              -9.6601
      3594        2.0000           -0.3549313              -9.6582
      3595        2.0000           -0.3528108              -9.6005
      3596        2.0000           -0.3449063              -9.3854 (HOMO)
      3597                         -0.2914842              -7.9317 (LUMO)
      3598                         -0.2781430              -7.5687
      3599                         -0.2678683              -7.2891
      3600                         -0.2664888              -7.2515
      3601                         -0.2649528              -7.2097
       ...                                ...                  ...
      6505                          0.7913412              21.5335
      -------------------------------------------------------------
                  HL-Gap            0.0534220 Eh            1.4537 eV
             Fermi-level           -0.3181953 Eh           -8.6585 eV

 SCC (total)                   0 d,  0 h,  7 min,  2.198 sec
 SCC setup                      ...        0 min,  3.126 sec (  0.740%)
 Dispersion                     ...        0 min,  2.000 sec (  0.474%)
 integral evaluation            ...        0 min, 11.373 sec (  2.694%)
 zeroth order Hamiltonian       ...        0 min,  0.341 sec (  0.081%)
 iterations                     ...        6 min, 27.732 sec ( 91.836%)
 molecular gradient             ...        0 min, 16.938 sec (  4.012%)
 printout                       ...        0 min,  0.688 sec (  0.163%)

         :::::::::::::::::::::::::::::::::::::::::::::::::::::
         ::                     SUMMARY                     ::
         :::::::::::::::::::::::::::::::::::::::::::::::::::::
         :: total energy           -4085.255990914696 Eh    ::
         :: total w/o Gsasa/hb     -4084.857791481586 Eh    ::
         :: gradient norm              1.338923430745 Eh/a0 ::
         :: HOMO-LUMO gap              1.453687953268 eV    ::
         ::.................................................::
         :: SCC energy             -4133.473536410595 Eh    ::
         :: -> isotropic ES           14.157932933189 Eh    ::
         :: -> anisotropic ES         -0.723239653712 Eh    ::
         :: -> anisotropic XC          1.162863952775 Eh    ::
         :: -> dispersion             -3.894320505358 Eh    ::
         :: -> Gsolv                  -3.969214604553 Eh    ::
         ::    -> Gborn               -3.571015171442 Eh    ::
         ::    -> Gsasa               -0.066020491377 Eh    ::
         ::    -> Ghb                 -0.334036384861 Eh    ::
         ::    -> Gshift               0.001857443127 Eh    ::
         :: repulsion energy          47.678314993985 Eh    ::
         :: add. restraining           0.000000000000 Eh    ::
         :::::::::::::::::::::::::::::::::::::::::::::::::::::

           -------------------------------------------------
          |                Property Printout                |
           -------------------------------------------------

    * Orbital Energies and Occupations

         #    Occupation            Energy/Eh            Energy/eV
      -------------------------------------------------------------
         1        2.0000           -0.7522462             -20.4697
       ...           ...                  ...                  ...
      3584        2.0000           -0.3640034              -9.9050
      3585        2.0000           -0.3626202              -9.8674
      3586        2.0000           -0.3621113              -9.8535
      3587        2.0000           -0.3617442              -9.8436
      3588        2.0000           -0.3604216              -9.8076
      3589        2.0000           -0.3600593              -9.7977
      3590        2.0000           -0.3588218              -9.7640
      3591        2.0000           -0.3572606              -9.7216
      3592        2.0000           -0.3558514              -9.6832
      3593        2.0000           -0.3550017              -9.6601
      3594        2.0000           -0.3549313              -9.6582
      3595        2.0000           -0.3528108              -9.6005
      3596        2.0000           -0.3449063              -9.3854 (HOMO)
      3597                         -0.2914842              -7.9317 (LUMO)
      3598                         -0.2781430              -7.5687
      3599                         -0.2678683              -7.2891
      3600                         -0.2664888              -7.2515
      3601                         -0.2649528              -7.2097
      3602                         -0.2643968              -7.1946
      3603                         -0.2642510              -7.1906
      3604                         -0.2626393              -7.1468
      3605                         -0.2606105              -7.0916
      3606                         -0.2590729              -7.0497
      3607                         -0.2586770              -7.0390
       ...                                ...                  ...
      6505                          0.7913412              21.5335
      -------------------------------------------------------------
                  HL-Gap            0.0534220 Eh            1.4537 eV
             Fermi-level           -0.3181953 Eh           -8.6585 eV

     #   Z        covCN         q      C6AA      α(0)
     1   7 N      3.501    -0.139    24.002     7.276
     2   1 H      0.860     0.314     0.673     1.285
     3   1 H      0.860     0.316     0.669     1.281
     4   1 H      0.860     0.316     0.666     1.279
     5   6 C      3.781    -0.032    21.173     6.555
     6   1 H      0.924     0.132     1.517     1.926
     7   6 C      3.804    -0.100    22.410     6.739
     8   1 H      0.925     0.105     1.738     2.061
     9   1 H      0.925     0.099     1.793     2.094
    10   6 C      3.794    -0.019    20.917     6.513
    11   1 H      0.925     0.052     2.295     2.369
    12   1 H      0.925     0.058     2.217     2.328
    13  16 S      1.949    -0.182   148.783    20.530
    14   6 C      3.741    -0.056    21.659     6.640
    15   1 H      0.925     0.044     2.397     2.421
    16   1 H      0.925     0.037     2.488     2.467
    17   1 H      0.925     0.049     2.336     2.390
    18   6 C      2.758     0.244    22.911     7.838
    19   8 O      0.856    -0.443    22.559     6.368
    20   7 N      2.682    -0.146    24.157     7.300
    21   1 H      0.860     0.206     1.077     1.625
    22   6 C      3.787     0.013    20.371     6.428
    23   1 H      0.925     0.121     1.605     1.981
    24   6 C      3.810    -0.110    22.593     6.766
    25   1 H      0.925     0.078     1.999     2.211
    26   1 H      0.924     0.101     1.779     2.086
    27   6 C      2.747     0.270    22.445     7.757
    28   8 O      0.858    -0.512    24.060     6.576
    29   7 N      2.635    -0.263    26.822     7.692
    30   1 H      0.860     0.241     0.919     1.502
    31   1 H      0.860     0.255     0.866     1.458
    32   6 C      2.740     0.256    22.687     7.799
    33   8 O      0.859    -0.509    23.980     6.565
    34   7 N      2.679    -0.173    24.741     7.387
    35   1 H      0.860     0.214     1.037     1.595
    36   6 C      3.771     0.004    20.540     6.458
    37   1 H      0.925     0.091     1.874     2.141
    38   6 C      3.836    -0.035    21.176     6.547
    39   1 H      0.924     0.075     2.028     2.227
    40   6 C      3.755    -0.136    23.175     6.864
    41   1 H      0.925     0.081     1.972     2.196
    42   1 H      0.925     0.043     2.412     2.429
    43   1 H      0.925     0.058     2.225     2.332
    44   6 C      3.803    -0.068    21.802     6.647
    45   1 H      0.925     0.041     2.436     2.441
    46   1 H      0.924     0.075     2.031     2.229
    47   6 C      3.752    -0.115    22.753     6.802
    48   1 H      0.925     0.053     2.283     2.363
    49   1 H      0.924     0.030     2.580     2.512
    50   1 H      0.924     0.035     2.514     2.479
    51   6 C      2.760     0.274    22.364     7.744
    52   8 O      0.863    -0.495    23.665     6.522
    53   7 N      2.696    -0.197    25.271     7.466
    54   1 H      0.860     0.239     0.927     1.508
    55   6 C      3.797     0.017    20.289     6.414
    56   1 H      0.925     0.079     1.994     2.208
    57   6 C      3.808    -0.086    22.128     6.696
    58   1 H      0.924     0.058     2.219     2.330
    59   1 H      0.924     0.074     2.040     2.233
    60   6 C      2.967     0.012    27.749     8.641
    61   6 C      2.918    -0.051    29.261     8.871
    62   1 H      0.926     0.073     2.053     2.241
    63   6 C      2.910    -0.045    29.116     8.848
    64   1 H      0.926     0.061     2.192     2.315
    65   6 C      2.907    -0.033    28.818     8.802
    66   1 H      0.926     0.027     2.634     2.538
    67   6 C      2.922    -0.025    28.616     8.772
    68   1 H      0.926     0.014     2.830     2.631
    69   6 C      2.918    -0.047    29.157     8.855
    70   1 H      0.926     0.043     2.415     2.430
    71   6 C      2.747     0.282    22.226     7.720
    72   8 O      0.862    -0.478    23.294     6.471
    73   7 N      2.690    -0.190    25.122     7.444
    74   1 H      0.860     0.215     1.032     1.591
    75   6 C      3.784     0.024    20.188     6.400
    76   1 H      0.925     0.065     2.140     2.288
    77   6 C      3.792    -0.061    21.681     6.631
    78   1 H      0.925     0.063     2.168     2.302
    79   1 H      0.925     0.067     2.119     2.276
    80   6 C      3.804    -0.085    22.127     6.697
    81   1 H      0.925     0.025     2.654     2.548
    82   1 H      0.924     0.050     2.321     2.382
    83   6 C      2.687     0.358    20.918     7.485
    84   8 O      0.856    -0.625    26.745     6.934
    85   8 O      0.856    -0.698    28.652     7.177
    86   6 C      2.758     0.281    22.238     7.722
    87   8 O      0.857    -0.518    24.198     6.595
    88   7 N      2.698    -0.178    24.854     7.404
    89   1 H      0.860     0.230     0.966     1.540
    90   6 C      3.789     0.023    20.194     6.400
    91   1 H      0.924     0.066     2.132     2.284
    92   6 C      3.825    -0.071    21.845     6.651
    93   1 H      0.925     0.068     2.111     2.272
    94   1 H      0.924     0.069     2.099     2.266
    95   6 C      3.793    -0.012    20.794     6.494
    96   1 H      0.925     0.032     2.557     2.501
    97   1 H      0.925     0.053     2.281     2.362
    98  16 S      1.957    -0.196   149.384    20.571
    99   6 C      3.731    -0.078    22.086     6.708
   100   1 H      0.925     0.080     1.982     2.202
   101   1 H      0.925     0.050     2.314     2.379
   102   1 H      0.925     0.090     1.880     2.144
   103   6 C      2.749     0.284    22.182     7.712
   104   8 O      0.870    -0.485    23.458     6.494
   105   7 N      2.688    -0.201    25.373     7.481
   106   1 H      0.860     0.234     0.950     1.526
   107   6 C      3.775     0.023    20.218     6.407
   108   1 H      0.924     0.076     2.017     2.221
   109   6 C      3.809    -0.073    21.884     6.659
   110   1 H      0.925     0.051     2.303     2.373
   111   1 H      0.925     0.068     2.112     2.273
   112   6 C      3.845    -0.016    20.824     6.491
   113   1 H      0.924     0.045     2.377     2.411
   114   6 C      3.755    -0.124    22.937     6.829
   115   1 H      0.925     0.066     2.131     2.283
   116   1 H      0.924     0.048     2.345     2.395
   117   1 H      0.925     0.039     2.463     2.454
   118   6 C      3.764    -0.119    22.822     6.809
   119   1 H      0.925     0.048     2.349     2.397
   120   1 H      0.925     0.027     2.631     2.536
   121   1 H      0.924     0.034     2.534     2.489
   122   6 C      2.741     0.270    22.429     7.754
   123   8 O      0.860    -0.500    23.782     6.538
   124   7 N      2.680    -0.188    25.088     7.439
   125   1 H      0.860     0.223     0.995     1.563
   126   6 C      3.781     0.013    20.370     6.429
   127   1 H      0.925     0.105     1.743     2.064
   128   6 C      3.815    -0.071    21.854     6.654
   129   1 H      0.924     0.083     1.948     2.183
   130   1 H      0.925     0.047     2.363     2.404
   131   6 C      3.801    -0.093    22.267     6.718
   132   1 H      0.925     0.084     1.942     2.179
   133   1 H      0.924     0.083     1.944     2.180
   134   6 C      3.758    -0.014    20.873     6.514
   135   1 H      0.924     0.078     1.997     2.210
   136   1 H      0.925     0.070     2.082     2.257
   137   7 N      2.695    -0.156    24.381     7.334
   138   1 H      0.860     0.213     1.044     1.601
   139   6 C      2.733     0.232    23.137     7.875
   140   7 N      2.657    -0.252    26.550     7.653
   141   1 H      0.860     0.257     0.855     1.449
   142   1 H      0.860     0.237     0.935     1.515
   143   7 N      2.653    -0.252    26.559     7.654
   144   1 H      0.860     0.257     0.856     1.450
   145   1 H      0.860     0.237     0.937     1.516
   146   6 C      2.746     0.279    22.284     7.729
   147   8 O      0.872    -0.471    23.138     6.450
   148   7 N      2.691    -0.199    25.332     7.475
   149   1 H      0.860     0.180     1.213     1.725
   150   6 C      3.782     0.015    20.343     6.425
   151   1 H      0.925     0.082     1.956     2.187
   152   6 C      3.838    -0.017    20.857     6.497
   153   1 H      0.924     0.051     2.302     2.373
   154   6 C      3.751    -0.108    22.632     6.784
   155   1 H      0.925     0.043     2.403     2.424
   156   1 H      0.925     0.043     2.411     2.428
   157   1 H      0.924     0.049     2.337     2.391
   158   6 C      3.794    -0.062    21.705     6.634
   159   1 H      0.925     0.030     2.592     2.518
   160   1 H      0.925     0.044     2.401     2.423
   161   6 C      3.748    -0.103    22.540     6.771
   162   1 H      0.924     0.037     2.496     2.471
   163   1 H      0.925     0.032     2.553     2.499
   164   1 H      0.925     0.040     2.445     2.445
   165   6 C      2.749     0.275    22.344     7.740
   166   8 O      0.860    -0.495    23.679     6.524
   167   7 N      2.688    -0.212    25.625     7.518
   168   1 H      0.860     0.232     0.958     1.533
   169   6 C      3.794     0.036    19.972     6.364
   170   1 H      0.924     0.075     2.030     2.228
   171   6 C      3.805    -0.096    22.320     6.726
   172   1 H      0.925     0.035     2.522     2.483
   173   1 H      0.925     0.064     2.157     2.296
   174   6 C      2.685     0.351    21.047     7.508
   175   8 O      0.856    -0.566    25.308     6.745
   176   8 O      0.855    -0.600    26.132     6.854
   177   6 C      2.757     0.273    22.390     7.749
   178   8 O      0.858    -0.490    23.570     6.509
   179   7 N      2.687    -0.179    24.877     7.408
   180   1 H      0.860     0.207     1.072     1.622
   181   6 C      3.790     0.021    20.236     6.407
   182   1 H      0.925     0.091     1.871     2.139
   183   6 C      3.806    -0.051    21.491     6.599
   184   1 H      0.924     0.039     2.463     2.454
   185   1 H      0.925     0.036     2.509     2.477
   186   6 C      3.801    -0.091    22.229     6.713
   187   1 H      0.925     0.018     2.766     2.601
   188   1 H      0.925     0.019     2.745     2.591
   189   6 C      2.687     0.364    20.830     7.469
   190   8 O      0.857    -0.646    27.267     7.001
   191   8 O      0.856    -0.629    26.845     6.947
   192   6 C      2.741     0.279    22.271     7.727
   193   8 O      0.865    -0.456    22.833     6.407
   194   7 N      2.686    -0.192    25.172     7.451
   195   1 H      0.860     0.207     1.070     1.620
   196   6 C      3.740    -0.028    21.144     6.561
   197   1 H      0.925     0.091     1.873     2.140
   198   1 H      0.925     0.087     1.908     2.160
   199   6 C      2.761     0.265    22.536     7.774
   200   8 O      0.859    -0.519    24.210     6.597
   201   7 N      2.695    -0.148    24.213     7.308
   202   1 H      0.860     0.223     0.997     1.564
   203   6 C      3.792     0.010    20.410     6.434
   204   1 H      0.925     0.080     1.979     2.200
   205   6 C      3.833    -0.098    22.336     6.724
   206   1 H      0.925     0.078     2.003     2.213
   207   1 H      0.924     0.064     2.149     2.292
   208   6 C      3.854    -0.001    20.566     6.450
   209   1 H      0.925     0.055     2.262     2.352
   210   6 C      3.770    -0.120    22.839     6.810
   211   1 H      0.925     0.044     2.398     2.421
   212   1 H      0.924     0.033     2.539     2.492
   213   1 H      0.925     0.019     2.746     2.591
   214   6 C      3.788    -0.125    22.913     6.818
   215   1 H      0.925     0.049     2.339     2.392
   216   1 H      0.925     0.059     2.214     2.327
   217   1 H      0.925     0.046     2.366     2.405
   218   6 C      2.748     0.265    22.523     7.771
   219   8 O      0.859    -0.481    23.366     6.481
   220   7 N      2.683    -0.171    24.691     7.380
   221   1 H      0.860     0.202     1.095     1.639
   222   6 C      3.775     0.010    20.440     6.442
   223   1 H      0.925     0.093     1.854     2.129
   224   6 C      3.800    -0.085    22.119     6.696
   225   1 H      0.925     0.080     1.976     2.198
   226   1 H      0.924     0.064     2.151     2.293
   227   6 C      3.800    -0.089    22.206     6.709
   228   1 H      0.924     0.067     2.116     2.275
   229   1 H      0.925     0.095     1.829     2.115
   230   6 C      3.731    -0.042    21.425     6.607
   231   1 H      0.925     0.104     1.749     2.068
   232   1 H      0.925     0.093     1.846     2.125
   233   7 N      2.718    -0.154    24.339     7.327
   234   1 H      0.860     0.207     1.072     1.622
   235   6 C      2.733     0.240    22.992     7.850
   236   7 N      2.675    -0.247    26.440     7.637
   237   1 H      0.860     0.254     0.870     1.461
   238   1 H      0.860     0.267     0.820     1.418
   239   7 N      2.671    -0.247    26.426     7.635
   240   1 H      0.860     0.241     0.920     1.502
   241   1 H      0.860     0.215     1.031     1.591
   242   6 C      2.742     0.261    22.598     7.783
   243   8 O      0.857    -0.480    23.343     6.478
   244   7 N      2.681    -0.181    24.932     7.416
   245   1 H      0.860     0.207     1.071     1.621
   246   6 C      3.776     0.002    20.573     6.462
   247   1 H      0.925     0.090     1.884     2.146
   248   6 C      3.809    -0.087    22.146     6.699
   249   1 H      0.924     0.081     1.964     2.192
   250   1 H      0.924     0.057     2.239     2.340
   251   6 C      3.846    -0.019    20.887     6.501
   252   1 H      0.925     0.044     2.393     2.419
   253   6 C      3.756    -0.128    23.004     6.839
   254   1 H      0.925     0.049     2.336     2.390
   255   1 H      0.925     0.038     2.482     2.464
   256   1 H      0.925     0.043     2.405     2.425
   257   6 C      3.755    -0.123    22.904     6.824
   258   1 H      0.925     0.048     2.350     2.397
   259   1 H      0.925     0.043     2.404     2.425
   260   1 H      0.925     0.045     2.385     2.415
   261   6 C      2.736     0.277    22.316     7.734
   262   8 O      0.860    -0.439    22.480     6.357
   263   7 N      2.681    -0.178    24.851     7.404
   264   1 H      0.860     0.207     1.070     1.620
   265   6 C      3.785     0.009    20.438     6.439
   266   1 H      0.925     0.079     1.994     2.208
   267   6 C      3.801    -0.084    22.095     6.693
   268   1 H      0.925     0.064     2.158     2.297
   269   1 H      0.925     0.063     2.160     2.298
   270   6 C      3.800    -0.086    22.139     6.699
   271   1 H      0.925     0.056     2.248     2.345
   272   1 H      0.925     0.062     2.173     2.305
   273   6 C      3.802    -0.103    22.461     6.747
   274   1 H      0.924     0.081     1.972     2.196
   275   1 H      0.924     0.075     2.029     2.227
   276   6 C      3.737    -0.052    21.589     6.630
   277   1 H      0.925     0.122     1.599     1.977
   278   1 H      0.924     0.119     1.625     1.993
   279   7 N      3.494    -0.140    24.016     7.279
   280   1 H      0.860     0.300     0.713     1.323
   281   1 H      0.860     0.293     0.734     1.342
   282   1 H      0.860     0.304     0.701     1.311
   283   6 C      2.756     0.268    22.472     7.763
   284   8 O      0.858    -0.529    24.429     6.627
   285   7 N      2.678    -0.166    24.596     7.366
   286   1 H      0.860     0.230     0.964     1.538
   287   6 C      3.782     0.008    20.461     6.444
   288   1 H      0.925     0.079     1.985     2.203
   289   6 C      3.853    -0.023    20.944     6.509
   290   1 H      0.924     0.069     2.099     2.266
   291   6 C      3.770    -0.125    22.928     6.824
   292   1 H      0.925     0.037     2.484     2.465
   293   1 H      0.925     0.080     1.984     2.203
   294   1 H      0.925     0.042     2.418     2.432
   295   6 C      3.818    -0.080    22.019     6.678
   296   1 H      0.925     0.047     2.361     2.403
   297   1 H      0.924     0.046     2.366     2.405
   298   6 C      3.751    -0.121    22.881     6.822
   299   1 H      0.925     0.048     2.341     2.392
   300   1 H      0.925     0.056     2.251     2.346
   301   1 H      0.925     0.032     2.563     2.503
   302   6 C      2.738     0.276    22.333     7.737
   303   8 O      0.860    -0.488    23.529     6.503
   304   7 N      2.684    -0.165    24.572     7.362
   305   1 H      0.860     0.211     1.050     1.605
   306   6 C      3.778     0.010    20.437     6.441
   307   1 H      0.925     0.111     1.692     2.034
   308   6 C      3.815    -0.087    22.146     6.698
   309   1 H      0.925     0.096     1.824     2.112
   310   1 H      0.925     0.077     2.009     2.216
   311   6 C      2.952     0.010    27.801     8.648
   312   6 C      2.916    -0.056    29.399     8.891
   313   1 H      0.926     0.070     2.090     2.261
   314   6 C      2.907    -0.078    29.956     8.974
   315   1 H      0.926     0.032     2.556     2.500
   316   6 C      2.832     0.126    25.240     8.233
   317   8 O      1.657    -0.448    21.808     6.304
   318   1 H      0.805     0.303     0.712     1.325
   319   6 C      2.912    -0.060    29.480     8.903
   320   1 H      0.926     0.050     2.326     2.385
   321   6 C      2.918    -0.045    29.111     8.848
   322   1 H      0.926     0.079     1.989     2.206
   323   6 C      2.745     0.267    22.485     7.764
   324   8 O      0.863    -0.487    23.500     6.500
   325   7 N      2.686    -0.166    24.583     7.364
   326   1 H      0.860     0.215     1.032     1.591
   327   6 C      3.807     0.010    20.400     6.430
   328   1 H      0.925     0.101     1.775     2.083
   329   6 C      3.801    -0.076    21.956     6.671
   330   1 H      0.924     0.054     2.275     2.359
   331   1 H      0.925     0.081     1.965     2.192
   332   6 C      3.808    -0.082    22.052     6.685
   333   1 H      0.925     0.068     2.103     2.268
   334   1 H      0.925     0.057     2.229     2.335
   335   6 C      3.790    -0.101    22.438     6.746
   336   1 H      0.925     0.069     2.095     2.263
   337   1 H      0.925     0.090     1.879     2.144
   338   6 C      3.724    -0.050    21.578     6.633
   339   1 H      0.925     0.125     1.576     1.963
   340   1 H      0.925     0.126     1.569     1.959
   341   7 N      3.484    -0.150    24.238     7.312
   342   1 H      0.860     0.299     0.716     1.326
   343   1 H      0.860     0.301     0.712     1.322
   344   1 H      0.860     0.289     0.745     1.352
   345   6 C      2.748     0.262    22.580     7.781
   346   8 O      0.863    -0.544    24.785     6.675
   347   7 N      2.695    -0.178    24.844     7.403
   348   1 H      0.860     0.230     0.964     1.538
   349   6 C      3.787     0.039    19.939     6.360
   350   1 H      0.924     0.066     2.131     2.283
   351   6 C      3.811    -0.092    22.246     6.714
   352   1 H      0.924     0.033     2.540     2.492
   353   1 H      0.925     0.061     2.191     2.315
   354   6 C      2.690     0.364    20.830     7.469
   355   8 O      0.857    -0.634    26.973     6.963
   356   8 O      0.856    -0.643    27.203     6.993
   357   6 C      2.747     0.267    22.485     7.764
   358   8 O      0.861    -0.477    23.270     6.468
   359   7 N      2.687    -0.178    24.859     7.405
   360   1 H      0.860     0.201     1.101     1.644
   361   6 C      3.797     0.025    20.161     6.393
   362   1 H      0.924     0.096     1.824     2.112
   363   6 C      3.744     0.125    18.615     6.155
   364   1 H      0.925     0.044     2.397     2.421
   365   6 C      3.756    -0.142    23.301     6.883
   366   1 H      0.925     0.069     2.091     2.261
   367   1 H      0.925     0.047     2.352     2.399
   368   1 H      0.924     0.059     2.215     2.327
   369   8 O      1.657    -0.502    22.940     6.466
   370   1 H      0.805     0.343     0.604     1.221
   371   6 C      2.762     0.275    22.352     7.742
   372   8 O      0.861    -0.497    23.720     6.530
   373   7 N      2.689    -0.176    24.801     7.396
   374   1 H      0.860     0.180     1.216     1.728
   375   6 C      3.779     0.020    20.263     6.413
   376   1 H      0.925     0.088     1.901     2.156
   377   6 C      3.804    -0.041    21.313     6.572
   378   1 H      0.925     0.049     2.329     2.387
   379   1 H      0.924     0.048     2.339     2.392
   380   6 C      3.803    -0.090    22.207     6.709
   381   1 H      0.924     0.019     2.752     2.594
   382   1 H      0.925     0.027     2.631     2.537
   383   6 C      2.691     0.367    20.777     7.460
   384   8 O      0.857    -0.608    26.315     6.878
   385   8 O      0.856    -0.650    27.374     7.015
   386   6 C      2.742     0.259    22.637     7.790
   387   8 O      0.860    -0.499    23.757     6.535
   388   7 N      2.682    -0.196    25.266     7.465
   389   1 H      0.860     0.220     1.011     1.575
   390   6 C      3.737    -0.034    21.258     6.580
   391   1 H      0.924     0.123     1.589     1.971
   392   1 H      0.924     0.108     1.716     2.048
   393   6 C      2.747     0.267    22.499     7.767
   394   8 O      0.864    -0.450    22.702     6.388
   395   7 N      2.689    -0.152    24.290     7.320
   396   1 H      0.860     0.166     1.298     1.785
   397   6 C      3.794     0.020    20.242     6.407
   398   1 H      0.925     0.091     1.871     2.139
   399   6 C      3.813    -0.075    21.913     6.663
   400   1 H      0.925     0.068     2.112     2.273
   401   1 H      0.924     0.043     2.409     2.427
   402   6 C      2.958    -0.008    28.224     8.714
   403   6 C      2.907    -0.050    29.245     8.867
   404   1 H      0.926     0.031     2.572     2.508
   405   6 C      2.898    -0.052    29.293     8.874
   406   1 H      0.926     0.053     2.285     2.364
   407   6 C      2.822     0.144    24.850     8.168
   408   8 O      1.654    -0.458    22.018     6.334
   409   1 H      0.805     0.350     0.587     1.204
   410   6 C      2.903    -0.061    29.511     8.907
   411   1 H      0.926     0.068     2.102     2.267
   412   6 C      2.915    -0.044    29.083     8.843
   413   1 H      0.926     0.055     2.264     2.353
   414   6 C      2.747     0.273    22.377     7.746
   415   8 O      0.858    -0.519    24.209     6.597
   416   7 N      2.681    -0.152    24.293     7.320
   417   1 H      0.860     0.235     0.943     1.521
   418   6 C      3.779    -0.000    20.612     6.468
   419   1 H      0.925     0.094     1.841     2.122
   420   6 C      3.802    -0.079    22.008     6.679
   421   1 H      0.925     0.078     1.995     2.209
   422   1 H      0.924     0.073     2.049     2.239
   423   6 C      2.939    -0.021    28.531     8.760
   424   6 C      2.899    -0.054    29.336     8.881
   425   1 H      0.926     0.039     2.466     2.456
   426   6 C      2.891    -0.075    29.863     8.960
   427   1 H      0.926     0.047     2.352     2.398
   428   6 C      2.831     0.139    24.957     8.186
   429   8 O      1.659    -0.420    21.239     6.221
   430   1 H      0.805     0.344     0.603     1.220
   431   6 C      2.898    -0.061    29.519     8.908
   432   1 H      0.926     0.084     1.940     2.178
   433   6 C      2.896    -0.040    29.001     8.830
   434   1 H      0.926     0.059     2.210     2.325
   435   6 C      2.742     0.269    22.458     7.759
   436   8 O      0.857    -0.492    23.618     6.516
   437   7 N      2.686    -0.178    24.862     7.406
   438   1 H      0.860     0.250     0.884     1.473
   439   6 C      3.785     0.006    20.500     6.449
   440   1 H      0.924     0.079     1.988     2.205
   441   6 C      3.732     0.127    18.597     6.155
   442   1 H      0.925     0.022     2.710     2.574
   443   6 C      3.751    -0.122    22.898     6.824
   444   1 H      0.925     0.060     2.203     2.321
   445   1 H      0.924     0.050     2.317     2.380
   446   1 H      0.925     0.035     2.514     2.480
   447   8 O      1.657    -0.472    22.304     6.375
   448   1 H      0.805     0.319     0.668     1.283
   449   6 C      2.741     0.271    22.423     7.753
   450   8 O      0.864    -0.423    22.140     6.309
   451   7 N      2.688    -0.181    24.916     7.414
   452   1 H      0.860     0.205     1.082     1.629
   453   6 C      3.788     0.020    20.244     6.408
   454   1 H      0.925     0.086     1.915     2.164
   455   6 C      3.845    -0.034    21.141     6.540
   456   1 H      0.925     0.068     2.107     2.270
   457   6 C      3.748    -0.136    23.186     6.868
   458   1 H      0.925     0.064     2.156     2.296
   459   1 H      0.925     0.046     2.371     2.408
   460   1 H      0.924     0.051     2.305     2.374
   461   6 C      3.797    -0.076    21.951     6.671
   462   1 H      0.925     0.051     2.311     2.378
   463   1 H      0.924     0.041     2.435     2.440
   464   6 C      3.746    -0.123    22.937     6.832
   465   1 H      0.925     0.046     2.368     2.406
   466   1 H      0.924     0.055     2.256     2.349
   467   1 H      0.924     0.059     2.210     2.325
   468   6 C      2.746     0.259    22.645     7.792
   469   8 O      0.858    -0.502    23.822     6.544
   470   7 N      2.684    -0.158    24.416     7.339
   471   1 H      0.860     0.222     1.000     1.566
   472   6 C      3.748    -0.022    21.031     6.541
   473   1 H      0.925     0.080     1.975     2.198
   474   1 H      0.925     0.105     1.743     2.065
   475   6 C      2.757     0.277    22.314     7.735
   476   8 O      0.859    -0.460    22.908     6.417
   477   7 N      2.694    -0.194    25.201     7.456
   478   1 H      0.860     0.196     1.129     1.664
   479   6 C      3.799     0.010    20.404     6.432
   480   1 H      0.925     0.090     1.881     2.145
   481   6 C      3.843    -0.022    20.928     6.508
   482   1 H      0.924     0.042     2.424     2.435
   483   6 C      3.749    -0.105    22.573     6.776
   484   1 H      0.925     0.049     2.329     2.387
   485   1 H      0.924     0.020     2.732     2.585
   486   1 H      0.925     0.043     2.415     2.430
   487   6 C      3.789    -0.072    21.892     6.664
   488   1 H      0.924     0.046     2.375     2.410
   489   1 H      0.925     0.061     2.190     2.314
   490   6 C      3.740    -0.112    22.718     6.801
   491   1 H      0.925     0.047     2.361     2.403
   492   1 H      0.925     0.057     2.235     2.338
   493   1 H      0.925     0.030     2.579     2.512
   494   6 C      2.751     0.280    22.262     7.726
   495   8 O      0.865    -0.487    23.494     6.499
   496   7 N      2.688    -0.184    24.983     7.424
   497   1 H      0.860     0.213     1.044     1.601
   498   6 C      3.741    -0.021    21.033     6.543
   499   1 H      0.924     0.079     1.994     2.208
   500   1 H      0.925     0.092     1.863     2.135
   501   6 C      2.753     0.293    22.034     7.686
   502   8 O      0.859    -0.514    24.090     6.581
   503   7 N      2.691    -0.173    24.752     7.389
   504   1 H      0.860     0.239     0.926     1.508
   505   6 C      3.801     0.024    20.176     6.395
   506   1 H      0.924     0.060     2.204     2.322
   507   6 C      3.807    -0.078    21.983     6.674
   508   1 H      0.925     0.108     1.712     2.046
   509   1 H      0.925     0.095     1.827     2.114
   510   6 C      3.025     0.057    26.689     8.474
   511   7 N      2.766    -0.032    21.861     6.944
   512   1 H      0.860     0.251     0.878     1.468
   513   6 C      2.971     0.071    26.414     8.430
   514   1 H      0.926     0.151     1.385     1.840
   515   7 N      2.768    -0.026    21.751     6.927
   516   1 H      0.860     0.273     0.800     1.401
   517   6 C      3.002     0.004    27.932     8.670
   518   1 H      0.925     0.128     1.548     1.946
   519   6 C      2.741     0.259    22.631     7.789
   520   8 O      0.857    -0.443    22.563     6.369
   521   7 N      2.687    -0.178    24.859     7.405
   522   1 H      0.860     0.196     1.125     1.661
   523   6 C      3.777     0.016    20.332     6.424
   524   1 H      0.925     0.075     2.034     2.230
   525   6 C      3.798    -0.076    21.956     6.672
   526   1 H      0.925     0.062     2.176     2.307
   527   1 H      0.925     0.060     2.200     2.319
   528   6 C      3.851    -0.017    20.840     6.493
   529   1 H      0.924     0.045     2.388     2.416
   530   6 C      3.755    -0.120    22.864     6.818
   531   1 H      0.925     0.025     2.662     2.551
   532   1 H      0.924     0.059     2.211     2.325
   533   1 H      0.925     0.051     2.306     2.375
   534   6 C      3.754    -0.123    22.916     6.826
   535   1 H      0.925     0.025     2.662     2.551
   536   1 H      0.925     0.051     2.312     2.378
   537   1 H      0.925     0.053     2.288     2.366
   538   6 C      2.751     0.267    22.498     7.767
   539   8 O      0.859    -0.507    23.933     6.559
   540   7 N      2.692    -0.167    24.622     7.370
   541   1 H      0.860     0.235     0.943     1.521
   542   6 C      3.786     0.020    20.261     6.411
   543   1 H      0.925     0.086     1.919     2.166
   544   6 C      3.793    -0.086    22.151     6.702
   545   1 H      0.924     0.049     2.334     2.389
   546   1 H      0.925     0.071     2.078     2.254
   547   6 C      3.842    -0.021    20.910     6.505
   548   1 H      0.924     0.039     2.458     2.452
   549   6 C      3.760    -0.118    22.805     6.808
   550   1 H      0.924     0.047     2.356     2.400
   551   1 H      0.925     0.041     2.433     2.439
   552   1 H      0.924     0.050     2.324     2.384
   553   6 C      3.747    -0.126    22.978     6.837
   554   1 H      0.925     0.039     2.458     2.452
   555   1 H      0.924     0.067     2.121     2.278
   556   1 H      0.924     0.039     2.462     2.454
   557   6 C      2.754     0.271    22.427     7.755
   558   8 O      0.862    -0.512    24.061     6.577
   559   7 N      2.685    -0.172    24.727     7.385
   560   1 H      0.860     0.216     1.027     1.587
   561   6 C      3.791     0.023    20.197     6.400
   562   1 H      0.924     0.060     2.195     2.317
   563   6 C      3.727     0.125    18.635     6.163
   564   1 H      0.925     0.019     2.753     2.595
   565   6 C      3.749    -0.136    23.174     6.866
   566   1 H      0.925     0.044     2.395     2.420
   567   1 H      0.924     0.057     2.239     2.340
   568   1 H      0.924     0.084     1.934     2.175
   569   8 O      1.657    -0.472    22.287     6.373
   570   1 H      0.806     0.336     0.621     1.238
   571   6 C      2.754     0.266    22.509     7.769
   572   8 O      0.859    -0.458    22.875     6.413
   573   7 N      2.683    -0.188    25.088     7.439
   574   1 H      0.860     0.207     1.069     1.620
   575   6 C      3.792     0.014    20.347     6.424
   576   1 H      0.924     0.098     1.805     2.101
   577   6 C      3.801    -0.090    22.221     6.712
   578   1 H      0.924     0.093     1.854     2.130
   579   1 H      0.924     0.073     2.055     2.242
   580   6 C      3.801    -0.080    22.031     6.683
   581   1 H      0.925     0.063     2.163     2.300
   582   1 H      0.925     0.053     2.288     2.366
   583   6 C      3.811    -0.099    22.387     6.735
   584   1 H      0.925     0.083     1.953     2.185
   585   1 H      0.924     0.082     1.962     2.190
   586   6 C      3.737    -0.049    21.531     6.621
   587   1 H      0.924     0.113     1.671     2.021
   588   1 H      0.925     0.120     1.617     1.989
   589   7 N      3.496    -0.148    24.188     7.305
   590   1 H      0.860     0.297     0.722     1.331
   591   1 H      0.860     0.302     0.707     1.317
   592   1 H      0.860     0.291     0.740     1.348
   593   6 C      2.746     0.269    22.451     7.758
   594   8 O      0.859    -0.488    23.518     6.502
   595   7 N      2.681    -0.180    24.892     7.410
   596   1 H      0.860     0.207     1.069     1.619
   597   6 C      3.778     0.015    20.348     6.427
   598   1 H      0.925     0.087     1.912     2.162
   599   6 C      3.685     0.082    19.406     6.307
   600   1 H      0.925     0.036     2.498     2.472
   601   1 H      0.924     0.037     2.493     2.469
   602   8 O      1.660    -0.479    22.434     6.394
   603   1 H      0.805     0.355     0.577     1.194
   604   6 C      2.747     0.256    22.691     7.800
   605   8 O      0.862    -0.513    24.079     6.579
   606   7 N      2.737    -0.067    22.542     7.051
   607   6 C      3.813    -0.021    20.946     6.514
   608   1 H      0.925     0.073     2.050     2.239
   609   1 H      0.924     0.065     2.143     2.289
   610   6 C      3.810    -0.084    22.091     6.690
   611   1 H      0.925     0.076     2.022     2.224
   612   1 H      0.924     0.082     1.956     2.187
   613   6 C      3.874    -0.069    21.765     6.634
   614   1 H      0.925     0.086     1.916     2.165
   615   1 H      0.925     0.069     2.101     2.267
   616   6 C      3.801     0.006    20.482     6.443
   617   1 H      0.924     0.096     1.822     2.111
   618   6 C      2.743     0.278    22.302     7.732
   619   8 O      0.859    -0.465    23.025     6.433
   620   7 N      2.683    -0.188    25.082     7.438
   621   1 H      0.860     0.216     1.027     1.587
   622   6 C      3.789     0.015    20.330     6.422
   623   1 H      0.925     0.090     1.881     2.145
   624   6 C      3.673     0.061    19.784     6.374
   625   1 H      0.924     0.055     2.264     2.353
   626   1 H      0.924     0.064     2.154     2.295
   627   8 O      1.652    -0.487    22.619     6.420
   628   1 H      0.805     0.351     0.585     1.202
   629   6 C      2.759     0.270    22.435     7.757
   630   8 O      0.861    -0.490    23.562     6.508
   631   7 N      2.695    -0.163    24.523     7.355
   632   1 H      0.860     0.213     1.042     1.599
   633   6 C      3.787     0.006    20.488     6.447
   634   1 H      0.924     0.100     1.784     2.089
   635   6 C      3.805    -0.093    22.264     6.717
   636   1 H      0.925     0.054     2.267     2.355
   637   1 H      0.925     0.077     2.014     2.219
   638   6 C      3.843    -0.017    20.849     6.495
   639   1 H      0.925     0.034     2.531     2.488
   640   6 C      3.747    -0.137    23.209     6.872
   641   1 H      0.925     0.047     2.356     2.400
   642   1 H      0.924     0.064     2.149     2.293
   643   1 H      0.925     0.056     2.251     2.346
   644   6 C      3.757    -0.125    22.941     6.829
   645   1 H      0.924     0.050     2.323     2.383
   646   1 H      0.925     0.045     2.384     2.414
   647   1 H      0.924     0.052     2.291     2.367
   648   6 C      2.744     0.268    22.465     7.761
   649   8 O      0.859    -0.462    22.958     6.424
   650   7 N      2.678    -0.189    25.089     7.439
   651   1 H      0.860     0.213     1.044     1.601
   652   6 C      3.782     0.020    20.258     6.412
   653   1 H      0.925     0.097     1.810     2.104
   654   6 C      3.817    -0.122    22.815     6.798
   655   1 H      0.924     0.069     2.102     2.267
   656   1 H      0.924     0.102     1.767     2.079
   657   6 C      2.743     0.296    21.970     7.675
   658   8 O      0.865    -0.511    24.036     6.573
   659   7 N      2.654    -0.277    27.161     7.740
   660   1 H      0.860     0.248     0.892     1.479
   661   1 H      0.860     0.242     0.915     1.498
   662   6 C      2.756     0.274    22.373     7.746
   663   8 O      0.860    -0.472    23.165     6.453
   664   7 N      2.688    -0.205    25.448     7.492
   665   1 H      0.860     0.229     0.969     1.542
   666   6 C      3.801     0.016    20.301     6.415
   667   1 H      0.924     0.061     2.182     2.310
   668   6 C      3.756    -0.140    23.243     6.874
   669   1 H      0.925     0.080     1.977     2.199
   670   1 H      0.925     0.059     2.209     2.324
   671   1 H      0.924     0.069     2.094     2.263
   672   6 C      2.755     0.288    22.127     7.703
   673   8 O      0.869    -0.485    23.453     6.493
   674   7 N      2.692    -0.186    25.022     7.429
   675   1 H      0.860     0.240     0.923     1.505
   676   6 C      3.794     0.028    20.113     6.386
   677   1 H      0.924     0.064     2.155     2.296
   678   6 C      3.754    -0.141    23.269     6.879
   679   1 H      0.925     0.086     1.923     2.168
   680   1 H      0.925     0.085     1.928     2.171
   681   1 H      0.925     0.082     1.962     2.191
   682   6 C      2.748     0.263    22.563     7.778
   683   8 O      0.858    -0.516    24.144     6.588
   684   7 N      2.684    -0.203    25.412     7.487
   685   1 H      0.860     0.234     0.947     1.525
   686   6 C      3.787     0.016    20.314     6.420
   687   1 H      0.925     0.081     1.971     2.195
   688   6 C      3.802    -0.085    22.111     6.695
   689   1 H      0.925     0.078     1.999     2.211
   690   1 H      0.924     0.104     1.749     2.068
   691   6 C      3.809    -0.071    21.850     6.654
   692   1 H      0.925     0.051     2.303     2.373
   693   1 H      0.925     0.035     2.518     2.482
   694   6 C      3.801    -0.100    22.410     6.740
   695   1 H      0.925     0.093     1.847     2.125
   696   1 H      0.924     0.090     1.878     2.143
   697   6 C      3.735    -0.047    21.505     6.618
   698   1 H      0.925     0.092     1.863     2.134
   699   1 H      0.925     0.102     1.765     2.078
   700   7 N      3.485    -0.150    24.226     7.310
   701   1 H      0.860     0.317     0.664     1.276
   702   1 H      0.860     0.289     0.747     1.354
   703   1 H      0.860     0.307     0.692     1.303
   704   6 C      2.749     0.287    22.139     7.705
   705   8 O      0.860    -0.505    23.894     6.554
   706   7 N      2.684    -0.177    24.836     7.402
   707   1 H      0.860     0.214     1.038     1.596
   708   6 C      3.789     0.017    20.296     6.416
   709   1 H      0.924     0.079     1.989     2.206
   710   6 C      3.682     0.071    19.593     6.339
   711   1 H      0.924     0.056     2.249     2.345
   712   1 H      0.925     0.043     2.405     2.425
   713   8 O      1.655    -0.469    22.227     6.364
   714   1 H      0.806     0.350     0.589     1.206
   715   6 C      2.755     0.269    22.462     7.761
   716   8 O      0.864    -0.491    23.588     6.512
   717   7 N      2.691    -0.179    24.869     7.407
   718   1 H      0.860     0.219     1.013     1.576
   719   6 C      3.787     0.033    20.034     6.375
   720   1 H      0.925     0.071     2.078     2.254
   721   6 C      3.813    -0.051    21.479     6.596
   722   1 H      0.924     0.049     2.336     2.390
   723   1 H      0.925     0.041     2.440     2.443
   724   6 C      3.804    -0.091    22.234     6.713
   725   1 H      0.925     0.030     2.585     2.514
   726   1 H      0.924     0.026     2.651     2.546
   727   6 C      2.688     0.379    20.574     7.423
   728   8 O      0.858    -0.645    27.239     6.997
   729   8 O      0.857    -0.658    27.577     7.041
   730   6 C      2.754     0.262    22.580     7.781
   731   8 O      0.859    -0.509    23.988     6.567
   732   7 N      2.688    -0.171    24.695     7.381
   733   1 H      0.860     0.223     0.994     1.562
   734   6 C      3.789     0.022    20.219     6.404
   735   1 H      0.925     0.098     1.800     2.098
   736   6 C      3.802    -0.091    22.241     6.714
   737   1 H      0.925     0.054     2.271     2.357
   738   1 H      0.924     0.081     1.972     2.196
   739   6 C      3.844    -0.012    20.768     6.483
   740   1 H      0.925     0.032     2.561     2.502
   741   6 C      3.771    -0.127    22.960     6.828
   742   1 H      0.925     0.055     2.262     2.352
   743   1 H      0.925     0.031     2.570     2.507
   744   1 H      0.925     0.059     2.215     2.327
   745   6 C      3.771    -0.126    22.944     6.826
   746   1 H      0.925     0.058     2.218     2.329
   747   1 H      0.925     0.030     2.582     2.513
   748   1 H      0.925     0.065     2.143     2.289
   749   6 C      2.751     0.269    22.456     7.760
   750   8 O      0.857    -0.505    23.899     6.554
   751   7 N      2.683    -0.181    24.918     7.414
   752   1 H      0.860     0.209     1.061     1.614
   753   6 C      3.786     0.040    19.911     6.356
   754   1 H      0.925     0.071     2.072     2.251
   755   6 C      3.812    -0.084    22.099     6.691
   756   1 H      0.924     0.033     2.540     2.492
   757   1 H      0.925     0.047     2.354     2.399
   758   6 C      2.687     0.365    20.812     7.466
   759   8 O      0.860    -0.623    26.701     6.928
   760   8 O      0.855    -0.633    26.946     6.960
   761   6 C      2.752     0.273    22.379     7.746
   762   8 O      0.858    -0.495    23.670     6.523
   763   7 N      2.686    -0.181    24.921     7.414
   764   1 H      0.860     0.207     1.071     1.622
   765   6 C      3.797     0.017    20.298     6.415
   766   1 H      0.924     0.084     1.937     2.177
   767   6 C      3.817    -0.073    21.880     6.657
   768   1 H      0.925     0.057     2.229     2.335
   769   1 H      0.925     0.049     2.328     2.386
   770   6 C      3.806    -0.088    22.165     6.702
   771   1 H      0.925     0.064     2.152     2.294
   772   1 H      0.924     0.062     2.177     2.307
   773   6 C      3.801    -0.084    22.095     6.692
   774   1 H      0.925     0.075     2.033     2.230
   775   1 H      0.924     0.062     2.180     2.309
   776   6 C      3.735    -0.054    21.631     6.638
   777   1 H      0.925     0.125     1.577     1.964
   778   1 H      0.925     0.105     1.742     2.064
   779   7 N      3.489    -0.141    24.049     7.284
   780   1 H      0.860     0.315     0.671     1.283
   781   1 H      0.860     0.290     0.743     1.351
   782   1 H      0.860     0.306     0.695     1.306
   783   6 C      2.763     0.275    22.357     7.743
   784   8 O      0.862    -0.516    24.143     6.588
   785   7 N      2.699    -0.184    24.992     7.425
   786   1 H      0.860     0.233     0.954     1.530
   787   6 C      3.790     0.027    20.133     6.390
   788   1 H      0.925     0.080     1.982     2.202
   789   6 C      3.760    -0.133    23.098     6.851
   790   1 H      0.925     0.070     2.084     2.258
   791   1 H      0.925     0.067     2.114     2.274
   792   1 H      0.925     0.074     2.040     2.234
   793   6 C      2.747     0.266    22.501     7.767
   794   8 O      0.859    -0.519    24.199     6.595
   795   7 N      2.687    -0.163    24.525     7.355
   796   1 H      0.860     0.212     1.049     1.604
   797   6 C      3.794     0.010    20.416     6.434
   798   1 H      0.925     0.097     1.812     2.105
   799   6 C      3.856    -0.014    20.783     6.484
   800   1 H      0.925     0.038     2.480     2.463
   801   6 C      3.771    -0.103    22.505     6.760
   802   1 H      0.925     0.048     2.349     2.397
   803   1 H      0.925     0.047     2.360     2.403
   804   1 H      0.925     0.023     2.690     2.565
   805   6 C      3.819    -0.070    21.821     6.648
   806   1 H      0.925     0.066     2.132     2.283
   807   1 H      0.925     0.045     2.383     2.414
   808   6 C      3.747    -0.113    22.729     6.800
   809   1 H      0.924     0.038     2.478     2.462
   810   1 H      0.924     0.035     2.522     2.483
   811   1 H      0.924     0.044     2.392     2.418
   812   6 C      2.748     0.270    22.439     7.757
   813   8 O      0.859    -0.490    23.570     6.509
   814   7 N      2.686    -0.160    24.458     7.345
   815   1 H      0.860     0.209     1.060     1.613
   816   6 C      3.745    -0.032    21.225     6.572
   817   1 H      0.925     0.114     1.661     2.015
   818   1 H      0.925     0.099     1.794     2.095
   819   6 C      2.746     0.272    22.396     7.749
   820   8 O      0.858    -0.516    24.134     6.587
   821   7 N      2.682    -0.143    24.101     7.291
   822   1 H      0.860     0.200     1.108     1.649
   823   6 C      3.790     0.017    20.296     6.416
   824   1 H      0.924     0.094     1.838     2.120
   825   6 C      3.799    -0.079    22.017     6.681
   826   1 H      0.924     0.072     2.064     2.247
   827   1 H      0.925     0.067     2.121     2.277
   828   6 C      3.800    -0.070    21.848     6.655
   829   1 H      0.924     0.049     2.328     2.386
   830   1 H      0.925     0.056     2.251     2.346
   831   6 C      3.723    -0.022    21.070     6.555
   832   1 H      0.925     0.083     1.951     2.184
   833   1 H      0.925     0.093     1.855     2.130
   834   7 N      2.691    -0.161    24.487     7.349
   835   1 H      0.860     0.237     0.937     1.516
   836   6 C      2.733     0.238    23.023     7.856
   837   7 N      2.673    -0.262    26.793     7.688
   838   1 H      0.860     0.240     0.921     1.504
   839   1 H      0.860     0.232     0.956     1.532
   840   7 N      2.664    -0.269    26.956     7.711
   841   1 H      0.860     0.244     0.906     1.491
   842   1 H      0.860     0.240     0.925     1.506
   843   6 C      2.755     0.279    22.281     7.730
   844   8 O      0.859    -0.501    23.802     6.541
   845   7 N      2.688    -0.178    24.859     7.405
   846   1 H      0.860     0.228     0.975     1.547
   847   6 C      3.791     0.031    20.067     6.380
   848   1 H      0.925     0.059     2.211     2.325
   849   6 C      3.813    -0.110    22.588     6.765
   850   1 H      0.925     0.092     1.862     2.134
   851   1 H      0.925     0.078     2.005     2.214
   852   6 C      2.742     0.291    22.057     7.690
   853   8 O      0.871    -0.517    24.152     6.589
   854   7 N      2.650    -0.271    27.007     7.718
   855   1 H      0.860     0.260     0.847     1.442
   856   1 H      0.860     0.233     0.951     1.528
   857   6 C      2.746     0.278    22.293     7.731
   858   8 O      0.861    -0.497    23.710     6.528
   859   7 N      2.689    -0.181    24.911     7.413
   860   1 H      0.860     0.221     1.005     1.571
   861   6 C      3.803     0.029    20.082     6.380
   862   1 H      0.925     0.103     1.759     2.074
   863   6 C      3.797    -0.019    20.925     6.513
   864   1 H      0.925     0.103     1.754     2.071
   865   1 H      0.925     0.061     2.192     2.315
   866  16 S      1.913    -0.290   153.596    20.859
   867   1 H      0.923     0.166     1.291     1.777
   868   6 C      2.750     0.263    22.564     7.778
   869   8 O      0.860    -0.466    23.042     6.436
   870   7 N      2.683    -0.171    24.701     7.381
   871   1 H      0.860     0.203     1.089     1.635
   872   6 C      3.790     0.027    20.130     6.390
   873   1 H      0.925     0.097     1.808     2.103
   874   6 C      3.801    -0.103    22.462     6.748
   875   1 H      0.924     0.075     2.036     2.231
   876   1 H      0.924     0.090     1.880     2.144
   877   6 C      2.739     0.289    22.105     7.698
   878   8 O      0.866    -0.467    23.058     6.438
   879   7 N      2.641    -0.291    27.515     7.790
   880   1 H      0.860     0.251     0.879     1.468
   881   1 H      0.860     0.219     1.015     1.578
   882   6 C      2.749     0.275    22.356     7.742
   883   8 O      0.858    -0.453    22.762     6.397
   884   7 N      2.683    -0.174    24.766     7.391
   885   1 H      0.860     0.180     1.215     1.727
   886   6 C      3.740    -0.049    21.527     6.620
   887   1 H      0.924     0.122     1.601     1.979
   888   1 H      0.925     0.101     1.779     2.086
   889   6 C      2.745     0.274    22.371     7.745
   890   8 O      0.864    -0.469    23.095     6.443
   891   7 N      2.690    -0.164    24.554     7.359
   892   1 H      0.860     0.197     1.124     1.661
   893   6 C      3.785     0.008    20.452     6.442
   894   1 H      0.924     0.083     1.946     2.182
   895   6 C      3.841    -0.024    20.966     6.514
   896   1 H      0.925     0.067     2.120     2.277
   897   6 C      3.747    -0.124    22.941     6.832
   898   1 H      0.924     0.054     2.272     2.357
   899   1 H      0.925     0.037     2.484     2.464
   900   1 H      0.925     0.052     2.292     2.368
   901   6 C      3.748    -0.131    23.084     6.853
   902   1 H      0.924     0.064     2.157     2.297
   903   1 H      0.924     0.035     2.516     2.481
   904   1 H      0.925     0.064     2.150     2.293
   905   6 C      2.744     0.272    22.399     7.749
   906   8 O      0.860    -0.489    23.543     6.505
   907   7 N      2.683    -0.171    24.710     7.383
   908   1 H      0.860     0.221     1.003     1.569
   909   6 C      3.785     0.003    20.546     6.456
   910   1 H      0.925     0.079     1.989     2.206
   911   6 C      3.836    -0.036    21.185     6.548
   912   1 H      0.925     0.041     2.434     2.440
   913   6 C      3.756    -0.115    22.750     6.801
   914   1 H      0.925     0.059     2.212     2.326
   915   1 H      0.924     0.043     2.414     2.430
   916   1 H      0.924     0.044     2.394     2.419
   917   6 C      3.779    -0.075    21.956     6.675
   918   1 H      0.925     0.034     2.529     2.487
   919   1 H      0.924     0.062     2.178     2.308
   920   6 C      3.747    -0.119    22.843     6.817
   921   1 H      0.925     0.056     2.248     2.345
   922   1 H      0.924     0.034     2.526     2.485
   923   1 H      0.925     0.047     2.353     2.399
   924   6 C      2.750     0.269    22.455     7.759
   925   8 O      0.865    -0.466    23.038     6.435
   926   7 N      2.691    -0.162    24.498     7.351
   927   1 H      0.860     0.206     1.076     1.625
   928   6 C      3.792     0.006    20.480     6.445
   929   1 H      0.925     0.102     1.764     2.077
   930   6 C      3.722     0.102    19.011     6.227
   931   1 H      0.925     0.052     2.300     2.372
   932   6 C      3.750    -0.146    23.388     6.897
   933   1 H      0.925     0.057     2.229     2.335
   934   1 H      0.925     0.081     1.969     2.194
   935   1 H      0.924     0.070     2.091     2.261
   936   8 O      1.652    -0.518    23.276     6.513
   937   1 H      0.806     0.322     0.657     1.273
   938   6 C      2.747     0.272    22.407     7.751
   939   8 O      0.859    -0.501    23.809     6.542
   940   7 N      2.687    -0.174    24.769     7.392
   941   1 H      0.860     0.226     0.981     1.552
   942   6 C      3.784     0.014    20.354     6.426
   943   1 H      0.925     0.107     1.724     2.053
   944   6 C      3.802    -0.088    22.187     6.706
   945   1 H      0.925     0.059     2.209     2.324
   946   1 H      0.924     0.091     1.872     2.140
   947   6 C      3.797    -0.077    21.978     6.675
   948   1 H      0.925     0.061     2.190     2.314
   949   1 H      0.924     0.056     2.248     2.345
   950   6 C      3.804    -0.095    22.318     6.726
   951   1 H      0.924     0.075     2.037     2.232
   952   1 H      0.924     0.097     1.809     2.103
   953   6 C      3.734    -0.041    21.393     6.601
   954   1 H      0.925     0.125     1.575     1.962
   955   1 H      0.925     0.114     1.661     2.015
   956   7 N      3.489    -0.154    24.315     7.324
   957   1 H      0.860     0.285     0.758     1.364
   958   1 H      0.860     0.287     0.754     1.360
   959   1 H      0.860     0.283     0.765     1.370
   960   6 C      2.741     0.267    22.492     7.765
   961   8 O      0.858    -0.486    23.466     6.495
   962   7 N      2.681    -0.188    25.067     7.436
   963   1 H      0.860     0.208     1.065     1.616
   964   6 C      3.784     0.041    19.898     6.354
   965   1 H      0.924     0.064     2.147     2.291
   966   6 C      3.801    -0.098    22.372     6.734
   967   1 H      0.925     0.030     2.579     2.512
   968   1 H      0.925     0.046     2.369     2.407
   969   6 C      2.687     0.380    20.559     7.420
   970   8 O      0.859    -0.657    27.567     7.039
   971   8 O      0.859    -0.635    27.003     6.967
   972   6 C      2.744     0.270    22.429     7.755
   973   8 O      0.857    -0.523    24.305     6.610
   974   7 N      2.682    -0.180    24.894     7.410
   975   1 H      0.860     0.215     1.032     1.592
   976   6 C      3.782     0.019    20.269     6.413
   977   1 H      0.925     0.072     2.064     2.247
   978   6 C      3.813    -0.068    21.795     6.645
   979   1 H      0.924     0.053     2.279     2.361
   980   1 H      0.925     0.079     1.990     2.206
   981   6 C      3.802    -0.089    22.189     6.706
   982   1 H      0.925     0.035     2.511     2.478
   983   1 H      0.924     0.034     2.533     2.489
   984   6 C      2.691     0.369    20.748     7.455
   985   8 O      0.856    -0.586    25.774     6.807
   986   8 O      0.857    -0.626    26.767     6.936
   987   6 C      2.758     0.264    22.553     7.777
   988   8 O      0.858    -0.473    23.185     6.456
   989   7 N      2.700    -0.189    25.094     7.440
   990   1 H      0.860     0.244     0.907     1.492
   991   6 C      3.802     0.027    20.127     6.387
   992   1 H      0.924     0.089     1.893     2.152
   993   6 C      3.772    -0.135    23.120     6.852
   994   1 H      0.925     0.094     1.841     2.122
   995   1 H      0.925     0.074     2.037     2.232
   996   1 H      0.925     0.063     2.169     2.303
   997   6 C      2.747     0.265    22.524     7.771
   998   8 O      0.863    -0.495    23.664     6.522
   999   7 N      2.685    -0.178    24.852     7.404
  1000   1 H      0.860     0.196     1.129     1.664
  1001   6 C      3.782     0.014    20.363     6.428
  1002   1 H      0.924     0.085     1.925     2.170
  1003   6 C      3.805    -0.052    21.505     6.602
  1004   1 H      0.925     0.043     2.415     2.430
  1005   1 H      0.924     0.036     2.500     2.473
  1006   6 C      3.805    -0.105    22.501     6.753
  1007   1 H      0.924     0.056     2.242     2.342
  1008   1 H      0.925     0.045     2.382     2.414
  1009   6 C      2.693     0.377    20.609     7.430
  1010   8 O      0.859    -0.619    26.585     6.913
  1011   8 O      0.860    -0.608    26.310     6.877
  1012   6 C      2.750     0.272    22.405     7.751
  1013   8 O      0.862    -0.492    23.597     6.513
  1014   7 N      2.692    -0.167    24.607     7.367
  1015   1 H      0.860     0.203     1.091     1.636
  1016   6 C      3.782     0.013    20.380     6.431
  1017   1 H      0.924     0.082     1.958     2.188
  1018   6 C      3.806    -0.084    22.105     6.693
  1019   1 H      0.924     0.063     2.168     2.303
  1020   1 H      0.925     0.066     2.125     2.280
  1021   6 C      3.794    -0.081    22.054     6.688
  1022   1 H      0.925     0.061     2.188     2.313
  1023   1 H      0.925     0.055     2.258     2.350
  1024   6 C      3.785    -0.095    22.333     6.731
  1025   1 H      0.925     0.086     1.914     2.163
  1026   1 H      0.924     0.068     2.104     2.268
  1027   6 C      3.720    -0.058    21.733     6.659
  1028   1 H      0.925     0.133     1.514     1.924
  1029   1 H      0.924     0.127     1.562     1.954
  1030   7 N      3.484    -0.151    24.251     7.314
  1031   1 H      0.860     0.299     0.716     1.325
  1032   1 H      0.860     0.307     0.693     1.304
  1033   1 H      0.860     0.289     0.746     1.353
  1034   6 C      2.739     0.249    22.826     7.822
  1035   8 O      0.861    -0.483    23.420     6.488
  1036   7 N      2.699    -0.194    25.218     7.458
  1037   1 H      0.860     0.230     0.966     1.540
  1038   6 C      3.784     0.024    20.185     6.400
  1039   1 H      0.925     0.079     1.991     2.207
  1040   6 C      3.809    -0.085    22.107     6.693
  1041   1 H      0.924     0.058     2.227     2.334
  1042   1 H      0.924     0.074     2.039     2.233
  1043   6 C      3.840    -0.018    20.863     6.498
  1044   1 H      0.925     0.023     2.691     2.565
  1045   6 C      3.747    -0.122    22.899     6.825
  1046   1 H      0.924     0.054     2.265     2.353
  1047   1 H      0.925     0.037     2.490     2.468
  1048   1 H      0.924     0.043     2.408     2.427
  1049   6 C      3.750    -0.136    23.176     6.866
  1050   1 H      0.925     0.056     2.247     2.344
  1051   1 H      0.925     0.044     2.398     2.422
  1052   1 H      0.924     0.063     2.169     2.303
  1053   6 C      2.740     0.273    22.388     7.747
  1054   8 O      0.858    -0.537    24.619     6.652
  1055   7 N      2.681    -0.171    24.711     7.383
  1056   1 H      0.860     0.236     0.942     1.520
  1057   6 C      3.767     0.013    20.388     6.435
  1058   1 H      0.924     0.069     2.099     2.266
  1059   6 C      3.793    -0.083    22.096     6.694
  1060   1 H      0.925     0.056     2.241     2.341
  1061   1 H      0.925     0.075     2.028     2.227
  1062   6 C      2.955     0.004    27.940     8.670
  1063   6 C      2.904    -0.030    28.746     8.791
  1064   1 H      0.926     0.033     2.551     2.498
  1065   6 C      2.913    -0.033    28.825     8.804
  1066   1 H      0.926     0.045     2.385     2.415
  1067   6 C      2.908    -0.038    28.939     8.821
  1068   1 H      0.926     0.050     2.318     2.381
  1069   6 C      2.905    -0.038    28.934     8.820
  1070   1 H      0.926     0.054     2.267     2.354
  1071   6 C      2.896    -0.053    29.316     8.877
  1072   1 H      0.926     0.053     2.285     2.364
  1073   6 C      2.744     0.279    22.273     7.727
  1074   8 O      0.857    -0.478    23.299     6.472
  1075   7 N      2.687    -0.171    24.694     7.380
  1076   1 H      0.860     0.202     1.098     1.642
  1077   6 C      3.784     0.032    20.049     6.378
  1078   1 H      0.925     0.085     1.933     2.174
  1079   6 C      3.794    -0.110    22.614     6.772
  1080   1 H      0.925     0.066     2.133     2.284
  1081   1 H      0.925     0.104     1.753     2.071
  1082   6 C      2.733     0.281    22.241     7.721
  1083   8 O      0.881    -0.512    24.045     6.575
  1084   7 N      2.657    -0.266    26.883     7.701
  1085   1 H      0.860     0.261     0.841     1.436
  1086   1 H      0.860     0.230     0.966     1.540
  1087   6 C      2.735     0.263    22.568     7.778
  1088   8 O      0.857    -0.488    23.516     6.502
  1089   7 N      2.683    -0.202    25.385     7.483
  1090   1 H      0.860     0.225     0.989     1.558
  1091   6 C      3.785     0.029    20.106     6.387
  1092   1 H      0.924     0.069     2.099     2.266
  1093   6 C      3.808    -0.065    21.738     6.637
  1094   1 H      0.925     0.076     2.026     2.226
  1095   1 H      0.924     0.063     2.161     2.299
  1096   6 C      3.810    -0.110    22.584     6.764
  1097   1 H      0.925     0.072     2.060     2.245
  1098   1 H      0.924     0.091     1.871     2.139
  1099   6 C      2.744     0.295    21.999     7.680
  1100   8 O      0.863    -0.502    23.834     6.546
  1101   7 N      2.647    -0.275    27.120     7.734
  1102   1 H      0.860     0.245     0.901     1.487
  1103   1 H      0.860     0.230     0.965     1.539
  1104   6 C      2.756     0.273    22.378     7.747
  1105   8 O      0.870    -0.496    23.691     6.526
  1106   7 N      2.704    -0.165    24.578     7.363
  1107   1 H      0.860     0.187     1.174     1.698
  1108   6 C      3.802     0.051    19.722     6.323
  1109   1 H      0.924     0.087     1.913     2.163
  1110   6 C      3.808    -0.088    22.167     6.702
  1111   1 H      0.925     0.040     2.453     2.449
  1112   1 H      0.924     0.044     2.390     2.418
  1113   6 C      2.685     0.356    20.957     7.492
  1114   8 O      0.856    -0.625    26.730     6.932
  1115   8 O      0.856    -0.621    26.635     6.919
  1116   6 C      2.766     0.255    22.718     7.806
  1117   8 O      0.857    -0.515    24.112     6.583
  1118   7 N      2.680    -0.167    24.625     7.370
  1119   1 H      0.860     0.201     1.098     1.642
  1120   6 C      3.787     0.020    20.246     6.409
  1121   1 H      0.924     0.098     1.808     2.103
  1122   6 C      3.842    -0.021    20.910     6.505
  1123   1 H      0.924     0.039     2.456     2.451
  1124   6 C      3.754    -0.131    23.075     6.850
  1125   1 H      0.924     0.056     2.249     2.345
  1126   1 H      0.925     0.074     2.047     2.237
  1127   1 H      0.924     0.064     2.148     2.292
  1128   6 C      3.756    -0.121    22.867     6.818
  1129   1 H      0.924     0.034     2.527     2.486
  1130   1 H      0.925     0.056     2.250     2.346
  1131   1 H      0.925     0.060     2.195     2.317
  1132   6 C      2.745     0.270    22.441     7.757
  1133   8 O      0.862    -0.487    23.493     6.499
  1134   7 N      2.684    -0.190    25.112     7.443
  1135   1 H      0.860     0.196     1.128     1.664
  1136   6 C      3.775     0.025    20.187     6.402
  1137   1 H      0.925     0.079     1.986     2.204
  1138   6 C      3.802    -0.095    22.316     6.726
  1139   1 H      0.925     0.031     2.579     2.511
  1140   1 H      0.925     0.031     2.567     2.506
  1141   6 C      2.687     0.367    20.770     7.458
  1142   8 O      0.857    -0.639    27.089     6.978
  1143   8 O      0.856    -0.592    25.922     6.826
  1144   6 C      2.773     0.282    22.233     7.722
  1145   8 O      0.859    -0.459    22.905     6.417
  1146   7 N      2.690    -0.171    24.711     7.383
  1147   1 H      0.860     0.208     1.068     1.619
  1148   6 C      3.814     0.025    20.138     6.387
  1149   1 H      0.924     0.076     2.023     2.224
  1150   6 C      3.755    -0.135    23.155     6.861
  1151   1 H      0.924     0.084     1.943     2.180
  1152   1 H      0.925     0.050     2.321     2.383
  1153   1 H      0.925     0.078     1.998     2.210
  1154   6 C      2.745     0.260    22.625     7.788
  1155   8 O      0.858    -0.489    23.544     6.506
  1156   7 N      2.684    -0.179    24.867     7.406
  1157   1 H      0.860     0.206     1.075     1.624
  1158   6 C      3.789     0.026    20.142     6.392
  1159   1 H      0.924     0.085     1.923     2.169
  1160   6 C      3.765    -0.125    22.937     6.826
  1161   1 H      0.924     0.065     2.136     2.286
  1162   1 H      0.925     0.072     2.066     2.248
  1163   1 H      0.925     0.055     2.262     2.352
  1164   6 C      2.766     0.259    22.648     7.794
  1165   8 O      0.857    -0.478    23.298     6.471
  1166   7 N      2.683    -0.181    24.920     7.414
  1167   1 H      0.860     0.222     1.002     1.568
  1168   6 C      3.782     0.016    20.323     6.422
  1169   1 H      0.925     0.098     1.806     2.102
  1170   6 C      3.844    -0.026    21.008     6.520
  1171   1 H      0.925     0.067     2.118     2.276
  1172   6 C      3.747    -0.132    23.107     6.857
  1173   1 H      0.924     0.048     2.346     2.395
  1174   1 H      0.924     0.069     2.095     2.263
  1175   1 H      0.924     0.062     2.180     2.309
  1176   6 C      3.749    -0.118    22.822     6.813
  1177   1 H      0.924     0.030     2.584     2.514
  1178   1 H      0.925     0.033     2.545     2.495
  1179   1 H      0.925     0.048     2.351     2.398
  1180   6 C      2.736     0.258    22.649     7.792
  1181   8 O      0.861    -0.469    23.107     6.445
  1182   7 N      2.694    -0.185    25.010     7.427
  1183   1 H      0.860     0.200     1.108     1.649
  1184   6 C      3.788     0.023    20.209     6.403
  1185   1 H      0.925     0.091     1.872     2.140
  1186   6 C      3.809    -0.087    22.147     6.699
  1187   1 H      0.924     0.054     2.265     2.354
  1188   1 H      0.925     0.062     2.173     2.305
  1189   6 C      3.803    -0.089    22.193     6.707
  1190   1 H      0.925     0.074     2.043     2.235
  1191   1 H      0.924     0.064     2.149     2.292
  1192   6 C      3.737    -0.030    21.187     6.568
  1193   1 H      0.925     0.086     1.914     2.163
  1194   1 H      0.925     0.114     1.666     2.018
  1195   7 N      2.708    -0.167    24.614     7.368
  1196   1 H      0.860     0.243     0.912     1.496
  1197   6 C      2.736     0.245    22.891     7.833
  1198   7 N      2.718    -0.255    26.630     7.664
  1199   1 H      0.860     0.254     0.869     1.460
  1200   1 H      0.860     0.221     1.006     1.571
  1201   7 N      2.739    -0.257    26.656     7.668
  1202   1 H      0.860     0.247     0.897     1.484
  1203   1 H      0.860     0.242     0.917     1.500
  1204   6 C      2.748     0.264    22.546     7.775
  1205   8 O      0.860    -0.496    23.685     6.525
  1206   7 N      2.684    -0.149    24.228     7.310
  1207   1 H      0.860     0.206     1.078     1.627
  1208   6 C      3.729    -0.026    21.131     6.562
  1209   1 H      0.924     0.074     2.048     2.238
  1210   1 H      0.925     0.101     1.776     2.084
  1211   6 C      2.738     0.268    22.474     7.762
  1212   8 O      0.857    -0.499    23.755     6.535
  1213   7 N      2.684    -0.164    24.558     7.360
  1214   1 H      0.860     0.217     1.024     1.585
  1215   6 C      3.791     0.010    20.422     6.436
[...]
  2283  H   0.990        C 2281 0.950
  2284  C   3.948        O 2285 1.635    N 2286 1.317    C 2281 0.970
  2285  O   1.931        C 2284 1.635    N 2286 0.201
  2286  N   3.394        C 2284 1.317    H 2288 0.921    H 2287 0.919    O 2285 0.201
  2287  H   0.939        N 2286 0.919
  2288  H   0.940        N 2286 0.921
  2289  C   3.951        O 2290 1.632    N 2291 1.332    C 2279 0.923
  2290  O   1.953        C 2289 1.632    N 2291 0.201
  2291  N   3.482        C 2289 1.332    C 2293 0.950    H 2292 0.922    O 2290 0.201
  2292  H   0.959        N 2291 0.922
  2293  C   3.954        C 2295 0.987    H 2294 0.954    N 2291 0.950    C 2313 0.936
  2294  H   0.991        C 2293 0.954
  2295  C   3.986        C 2298 0.996    C 2293 0.987    H 2297 0.970    H 2296 0.968
  2296  H   0.995        C 2295 0.968
  2297  H   0.994        C 2295 0.970
  2298  C   3.984        C 2301 1.012    C 2295 0.996    H 2300 0.971    H 2299 0.968
  2299  H   0.995        C 2298 0.968
  2300  H   0.993        C 2298 0.971
  2301  C   3.952        C 2298 1.012    N 2304 0.971    H 2302 0.962    H 2303 0.961
  2302  H   0.993        C 2301 0.962
  2303  H   0.995        C 2301 0.961
  2304  N   3.462        C 2306 1.343    C 2301 0.971    H 2305 0.867    N 2310 0.104
  2305  H   0.936        N 2304 0.867
  2306  C   3.975        N 2304 1.343    N 2310 1.309    N 2307 1.295
  2307  N   3.390        C 2306 1.295    H 2309 0.926    H 2308 0.924
  2308  H   0.953        N 2307 0.924
  2309  H   0.952        N 2307 0.926
  2310  N   3.388        C 2306 1.309    H 2311 0.928    H 2312 0.887    N 2304 0.104
  2311  H   0.954        N 2310 0.928
  2312  H   0.939        N 2310 0.887
  2313  C   3.958        O 2314 1.599    N 2315 1.349    C 2293 0.936
  2314  O   1.946        C 2313 1.599    N 2315 0.208
  2315  N   3.488        C 2313 1.349    C 2317 0.946    H 2316 0.897    O 2314 0.208
  2316  H   0.948        N 2315 0.897
  2317  C   3.953        C 2319 1.001    C 2323 0.951    H 2318 0.947    N 2315 0.946
  2318  H   0.990        C 2317 0.947
  2319  C   3.981        C 2317 1.001    H 2320 0.977    H 2322 0.973    H 2321 0.966
  2320  H   0.995        C 2319 0.977
  2321  H   0.991        C 2319 0.966
  2322  H   0.995        C 2319 0.973
  2323  C   3.955        O 2324 1.599    N 2325 1.320    C 2317 0.951
  2324  O   1.973        C 2323 1.599    N 2325 0.201
  2325  N   3.484        C 2323 1.320    C 2327 0.972    H 2326 0.911    O 2324 0.201
  2326  H   0.953        N 2325 0.911
  2327  C   3.951        N 2325 0.972    C 2329 0.959    C 2345 0.948    H 2328 0.942
  2328  H   0.991        C 2327 0.942
  2329  C   3.975        C 2332 1.015    H 2330 0.975    H 2331 0.963    C 2327 0.959
  2330  H   0.996        C 2329 0.975
  2331  H   0.990        C 2329 0.963
  2332  C   3.989        C 2329 1.015    C 2335 0.996    H 2333 0.974    H 2334 0.974
  2333  H   0.994        C 2332 0.974
  2334  H   0.997        C 2332 0.974
  2335  C   3.982        C 2338 1.014    C 2332 0.996    H 2337 0.971    H 2336 0.965
  2336  H   0.993        C 2335 0.965
  2337  H   0.991        C 2335 0.971
  2338  C   3.894        C 2335 1.014    H 2339 0.967    H 2340 0.962    N 2341 0.931
  2339  H   0.984        C 2338 0.967
  2340  H   0.983        C 2338 0.962
  2341  N   3.650        C 2338 0.931    H 2342 0.901    H 2343 0.899    H 2344 0.895
  2342  H   0.912        N 2341 0.901
  2343  H   0.917        N 2341 0.899
  2344  H   0.913        N 2341 0.895
  2345  C   3.944        O 2346 1.616    N 2347 1.299    C 2327 0.948
  2346  O   1.985        C 2345 1.616    N 2347 0.200
  2347  N   3.475        C 2345 1.299    C 2349 0.975    H 2348 0.920    O 2346 0.200
  2348  H   0.954        N 2347 0.920
  2349  C   3.962        C 2351 0.977    N 2347 0.975    H 2350 0.950    C 2369 0.931
  2350  H   0.989        C 2349 0.950
  2351  C   3.986        C 2354 1.015    C 2349 0.977    H 2352 0.971    H 2353 0.968
  2352  H   0.995        C 2351 0.971
  2353  H   0.992        C 2351 0.968
  2354  C   3.983        C 2351 1.015    C 2357 0.984    H 2356 0.969    H 2355 0.960
  2355  H   0.994        C 2354 0.960
  2356  H   0.997        C 2354 0.969
  2357  C   3.943        C 2354 0.984    N 2360 0.975    H 2358 0.967    H 2359 0.962
  2358  H   0.993        C 2357 0.967
  2359  H   0.996        C 2357 0.962
  2360  N   3.484        C 2362 1.354    C 2357 0.975    H 2361 0.872    N 2366 0.112
  2361  H   0.939        N 2360 0.872
  2362  C   3.974        N 2360 1.354    N 2366 1.318    N 2363 1.268
  2363  N   3.343        C 2362 1.268    H 2365 0.924    H 2364 0.920
  2364  H   0.943        N 2363 0.920
  2365  H   0.944        N 2363 0.924
  2366  N   3.393        C 2362 1.318    H 2367 0.922    H 2368 0.877    N 2360 0.112
  2367  H   0.947        N 2366 0.922
  2368  H   0.942        N 2366 0.877
  2369  C   3.947        O 2370 1.583    N 2371 1.352    C 2349 0.931
  2370  O   1.939        C 2369 1.583    N 2371 0.199
  2371  N   3.494        C 2369 1.352    C 2373 0.957    H 2372 0.898    O 2370 0.199
  2372  H   0.947        N 2371 0.898
  2373  C   3.957        C 2375 0.963    N 2371 0.957    C 2385 0.954    H 2374 0.953
  2374  H   0.994        C 2373 0.953
  2375  C   3.984        C 2381 1.014    C 2377 0.994    C 2373 0.963    H 2376 0.959
  2376  H   0.995        C 2375 0.959
  2377  C   3.988        C 2375 0.994    H 2378 0.984    H 2379 0.983    H 2380 0.979
  2378  H   0.996        C 2377 0.984
  2379  H   0.999        C 2377 0.983
  2380  H   0.998        C 2377 0.979
  2381  C   3.989        C 2375 1.014    H 2382 0.981    H 2383 0.980    H 2384 0.977
  2382  H   0.998        C 2381 0.981
  2383  H   0.998        C 2381 0.980
  2384  H   0.997        C 2381 0.977
  2385  C   3.958        O 2386 1.618    N 2387 1.310    C 2373 0.954
  2386  O   1.968        C 2385 1.618    N 2387 0.205
  2387  N   3.472        C 2385 1.310    C 2389 0.980    H 2388 0.874    O 2386 0.205
  2388  H   0.944        N 2387 0.874
  2389  C   3.954        N 2387 0.980    C 2391 0.957    H 2390 0.947    C 2404 0.931
  2390  H   0.993        C 2389 0.947
  2391  C   3.980        C 2393 1.010    C 2397 0.990    C 2389 0.957    H 2392 0.954
  2392  H   0.995        C 2391 0.954
  2393  C   3.988        C 2391 1.010    H 2394 0.984    H 2395 0.976    H 2396 0.974
  2394  H   0.998        C 2393 0.984
  2395  H   0.993        C 2393 0.976
  2396  H   0.997        C 2393 0.974
  2397  C   3.989        C 2400 1.018    C 2391 0.990    H 2399 0.972    H 2398 0.971
  2398  H   0.998        C 2397 0.971
  2399  H   0.997        C 2397 0.972
  2400  C   3.992        C 2397 1.018    H 2401 0.982    H 2403 0.982    H 2402 0.977
  2401  H   0.998        C 2400 0.982
  2402  H   0.998        C 2400 0.977
  2403  H   0.998        C 2400 0.982
  2404  C   3.946        O 2405 1.599    N 2406 1.335    C 2389 0.931
  2405  O   1.944        C 2404 1.599    N 2406 0.195
  2406  N   3.474        C 2404 1.335    C 2408 0.972    H 2407 0.874    O 2405 0.195
  2407  H   0.939        N 2406 0.874
  2408  C   3.961        N 2406 0.972    C 2410 0.952    H 2409 0.948    C 2418 0.938
  2409  H   0.991        C 2408 0.948
  2410  C   3.948        C 2412 0.996    O 2416 0.988    H 2411 0.968    C 2408 0.952
  2411  H   0.998        C 2410 0.968
  2412  C   3.980        C 2410 0.996    H 2414 0.981    H 2413 0.981    H 2415 0.978
  2413  H   0.995        C 2412 0.981
  2414  H   0.993        C 2412 0.981
  2415  H   0.991        C 2412 0.978
  2416  O   1.946        C 2410 0.988    H 2417 0.880
  2417  H   0.896        O 2416 0.880
  2418  C   3.943        O 2419 1.614    N 2420 1.315    C 2408 0.938
  2419  O   1.953        C 2418 1.614    N 2420 0.199
  2420  N   3.476        C 2418 1.315    C 2422 0.963    H 2421 0.919    O 2419 0.199
  2421  H   0.955        N 2420 0.919
  2422  C   3.958        N 2420 0.963    H 2423 0.956    C 2424 0.955    C 2432 0.937
  2423  H   0.992        C 2422 0.956
  2424  C   3.958        C 2426 1.019    O 2430 0.976    H 2425 0.958    C 2422 0.955
  2425  H   0.997        C 2424 0.958
  2426  C   3.989        C 2424 1.019    H 2429 0.980    H 2427 0.979    H 2428 0.979
  2427  H   0.996        C 2426 0.979
  2428  H   0.996        C 2426 0.979
  2429  H   0.998        C 2426 0.980
  2430  O   1.923        C 2424 0.976    H 2431 0.845
  2431  H   0.890        O 2430 0.845
  2432  C   3.953        O 2433 1.597    N 2434 1.339    C 2422 0.937
  2433  O   1.935        C 2432 1.597    N 2434 0.200
  2434  N   3.479        C 2432 1.339    C 2436 0.947    H 2435 0.898    O 2433 0.200
  2435  H   0.947        N 2434 0.898
  2436  C   3.949        C 2438 0.981    N 2434 0.947    H 2437 0.942    C 2452 0.937
  2437  H   0.989        C 2436 0.942
  2438  C   3.978        C 2441 1.020    C 2436 0.981    H 2440 0.956    H 2439 0.935
  2439  H   0.992        C 2438 0.935
  2440  H   0.994        C 2438 0.956
  2441  C   3.985        C 2442 1.424    C 2450 1.377    C 2438 1.020    C 2446 0.114
  2442  C   3.988        C 2444 1.438    C 2441 1.424    H 2443 0.965    C 2448 0.101
  2443  H   0.998        C 2442 0.965
  2444  C   3.987        C 2442 1.438    C 2446 1.433    H 2445 0.969    C 2450 0.115
  2445  H   0.997        C 2444 0.969
  2446  C   3.987        C 2444 1.433    C 2448 1.432    H 2447 0.969    C 2441 0.114
  2447  H   0.997        C 2446 0.969
  2448  C   3.991        C 2450 1.464    C 2446 1.432    H 2449 0.967    C 2442 0.101
  2449  H   0.998        C 2448 0.967
  2450  C   3.987        C 2448 1.464    C 2441 1.377    H 2451 0.965    C 2444 0.115
  2451  H   0.999        C 2450 0.965
  2452  C   3.945        O 2453 1.643    N 2454 1.283    C 2436 0.937
  2453  O   1.999        C 2452 1.643    N 2454 0.196
  2454  N   3.454        C 2452 1.283    C 2456 0.983    H 2455 0.893    O 2453 0.196
  2455  H   0.948        N 2454 0.893
  2456  C   3.968        N 2454 0.983    C 2458 0.971    C 2476 0.967    H 2457 0.944
  2457  H   0.991        C 2456 0.944
  2458  C   3.983        C 2461 1.004    C 2456 0.971    H 2459 0.969    H 2460 0.960
  2459  H   0.997        C 2458 0.969
  2460  H   0.992        C 2458 0.960
  2461  C   3.986        C 2458 1.004    C 2464 0.998    H 2463 0.977    H 2462 0.966
  2462  H   0.994        C 2461 0.966
  2463  H   0.997        C 2461 0.977
  2464  C   3.946        C 2461 0.998    N 2467 0.979    H 2465 0.961    H 2466 0.959
  2465  H   0.994        C 2464 0.961
  2466  H   0.991        C 2464 0.959
  2467  N   3.475        C 2469 1.342    C 2464 0.979    H 2468 0.863    N 2473 0.109    N 2470 0.100
  2468  H   0.941        N 2467 0.863
  2469  C   3.976        N 2467 1.342    N 2473 1.311    N 2470 1.293
  2470  N   3.360        C 2469 1.293    H 2472 0.912    H 2471 0.912    N 2467 0.100
  2471  H   0.935        N 2470 0.912
  2472  H   0.937        N 2470 0.912
  2473  N   3.398        C 2469 1.311    H 2474 0.920    H 2475 0.901    N 2467 0.109
  2474  H   0.943        N 2473 0.920
  2475  H   0.950        N 2473 0.901
  2476  C   3.948        O 2477 1.592    N 2478 1.297    C 2456 0.967
  2477  O   1.911        C 2476 1.592    N 2478 0.192
  2478  N   3.479        C 2476 1.297    C 2480 1.004    H 2479 0.900    O 2477 0.192
  2479  H   0.948        N 2478 0.900
  2480  C   3.967        N 2478 1.004    H 2481 0.948    C 2490 0.936    C 2482 0.930
  2481  H   0.991        C 2480 0.948
  2482  C   3.959        C 2484 1.005    O 2488 1.002    H 2483 0.960    C 2480 0.930
  2483  H   0.998        C 2482 0.960
  2484  C   3.988        C 2482 1.005    H 2485 0.985    H 2487 0.982    H 2486 0.973
  2485  H   0.996        C 2484 0.985
  2486  H   0.996        C 2484 0.973
  2487  H   0.997        C 2484 0.982
  2488  O   1.952        C 2482 1.002    H 2489 0.855
  2489  H   0.885        O 2488 0.855
  2490  C   3.952        O 2491 1.632    N 2492 1.302    C 2480 0.936
  2491  O   1.949        C 2490 1.632    N 2492 0.196
  2492  N   3.478        C 2490 1.302    C 2494 1.005    H 2493 0.901    O 2491 0.196
  2493  H   0.948        N 2492 0.901
  2494  C   3.961        N 2492 1.005    H 2495 0.957    H 2496 0.946    C 2497 0.924
  2495  H   0.991        C 2494 0.957
  2496  H   0.990        C 2494 0.946
  2497  C   3.949        O 2498 1.623    N 2499 1.343    C 2494 0.924
  2498  O   1.930        C 2497 1.623    N 2499 0.194
  2499  N   3.488        C 2497 1.343    C 2501 0.967    H 2500 0.916    O 2498 0.194
  2500  H   0.953        N 2499 0.916
  2501  C   3.964        N 2499 0.967    H 2502 0.957    C 2503 0.955    C 2511 0.924
  2502  H   0.992        C 2501 0.957
  2503  C   3.955        C 2505 1.007    O 2509 0.984    H 2504 0.962    C 2501 0.955
  2504  H   0.998        C 2503 0.962
  2505  C   3.989        C 2503 1.007    H 2507 0.981    H 2506 0.980    H 2508 0.980
  2506  H   0.997        C 2505 0.980
  2507  H   0.996        C 2505 0.981
  2508  H   0.996        C 2505 0.980
  2509  O   1.937        C 2503 0.984    H 2510 0.880
  2510  H   0.900        O 2509 0.880
  2511  C   3.943        O 2512 1.691    N 2513 1.248    C 2501 0.924
  2512  O   2.004        C 2511 1.691    N 2513 0.195
  2513  N   3.434        C 2511 1.248    C 2515 0.977    H 2514 0.934    O 2512 0.195
  2514  H   0.963        N 2513 0.934
  2515  C   3.953        N 2513 0.977    C 2535 0.951    C 2517 0.943    H 2516 0.935
  2516  H   0.990        C 2515 0.935
  2517  C   3.980        C 2520 1.029    H 2519 0.970    H 2518 0.962    C 2515 0.943
  2518  H   0.994        C 2517 0.962
  2519  H   0.998        C 2517 0.970
  2520  C   3.974        C 2521 1.613    C 2534 1.160    C 2517 1.029
  2521  C   3.964        C 2520 1.613    N 2523 1.196    H 2522 0.965
  2522  H   0.998        C 2521 0.965
  2523  N   3.507        C 2521 1.196    C 2525 1.149    H 2524 0.934
  2524  H   0.963        N 2523 0.934
  2525  C   3.947        C 2526 1.383    C 2534 1.219    N 2523 1.149
  2526  C   3.976        C 2528 1.403    C 2525 1.383    H 2527 0.967    C 2532 0.125
  2527  H   0.996        C 2526 0.967
  2528  C   3.989        C 2530 1.460    C 2526 1.403    H 2529 0.965
  2529  H   0.996        C 2528 0.965
  2530  C   3.988        C 2528 1.460    C 2532 1.421    H 2531 0.965
  2531  H   0.998        C 2530 0.965
  2532  C   3.991        C 2530 1.421    C 2534 1.393    H 2533 0.970    C 2526 0.125
  2533  H   0.999        C 2532 0.970
  2534  C   3.980        C 2532 1.393    C 2525 1.219    C 2520 1.160
  2535  C   3.942        O 2536 1.630    N 2537 1.280    C 2515 0.951
  2536  O   1.952        C 2535 1.630    N 2537 0.192
  2537  N   3.430        C 2535 1.280    C 2539 0.945    H 2538 0.920    O 2536 0.192
  2538  H   0.959        N 2537 0.920
  2539  C   3.958        C 2541 0.987    C 2547 0.951    H 2540 0.946    N 2537 0.945
  2540  H   0.994        C 2539 0.946
  2541  C   3.981        C 2539 0.987    H 2542 0.977    H 2543 0.954    C 2544 0.920
  2542  H   0.998        C 2541 0.977
  2543  H   0.997        C 2541 0.954
  2544  C   3.940        O 2546 1.512    O 2545 1.486    C 2541 0.920
  2545  O   1.777        C 2544 1.486    O 2546 0.220
  2546  O   1.806        C 2544 1.512    O 2545 0.220
  2547  C   3.951        O 2548 1.627    N 2549 1.300    C 2539 0.951
  2548  O   1.931        C 2547 1.627    N 2549 0.190
  2549  N   3.457        C 2547 1.300    C 2551 0.966    H 2550 0.921    O 2548 0.190
  2550  H   0.959        N 2549 0.921
  2551  C   3.951        C 2553 0.987    N 2549 0.966    H 2552 0.946    C 2557 0.945
  2552  H   0.990        C 2551 0.946
  2553  C   3.971        C 2551 0.987    H 2556 0.978    H 2554 0.974    H 2555 0.967
  2554  H   0.991        C 2553 0.974
  2555  H   0.991        C 2553 0.967
  2556  H   0.995        C 2553 0.978
  2557  C   3.940        O 2558 1.621    N 2559 1.281    C 2551 0.945
  2558  O   1.930        C 2557 1.621    N 2559 0.188
  2559  N   3.456        C 2557 1.281    C 2561 0.983    H 2560 0.916    O 2558 0.188
  2560  H   0.960        N 2559 0.916
  2561  C   3.961        N 2559 0.983    C 2563 0.976    H 2562 0.947    C 2578 0.907
  2562  H   0.995        C 2561 0.947
  2563  C   3.986        C 2566 1.013    C 2561 0.976    H 2565 0.965    H 2564 0.959
  2564  H   0.996        C 2563 0.959
  2565  H   0.995        C 2563 0.965
  2566  C   3.985        C 2576 1.428    C 2567 1.364    C 2563 1.013    C 2571 0.105
  2567  C   3.986        C 2569 1.483    C 2566 1.364    H 2568 0.967    C 2574 0.111
  2568  H   0.996        C 2567 0.967
  2569  C   3.985        C 2567 1.483    C 2571 1.367    H 2570 0.963
  2570  H   0.993        C 2569 0.963
  2571  C   3.935        C 2574 1.374    C 2569 1.367    O 2572 1.041    C 2566 0.105
  2572  O   2.047        C 2571 1.041    H 2573 0.844
  2573  H   0.896        O 2572 0.844
  2574  C   3.986        C 2576 1.437    C 2571 1.374    H 2575 0.960    C 2567 0.111
  2575  H   0.998        C 2574 0.960
  2576  C   3.990        C 2574 1.437    C 2566 1.428    H 2577 0.964
  2577  H   0.999        C 2576 0.964
  2578  C   3.932        O 2579 1.621    N 2580 1.304    C 2561 0.907
  2579  O   1.939        C 2578 1.621    N 2580 0.194
  2580  N   3.464        C 2578 1.304    C 2582 0.965    H 2581 0.927    O 2579 0.194
  2581  H   0.960        N 2580 0.927
  2582  C   3.948        H 2583 0.967    C 2584 0.965    N 2580 0.965    C 2600 0.922
  2583  H   0.999        C 2582 0.967
  2584  C   3.989        C 2587 1.009    H 2586 0.978    H 2585 0.973    C 2582 0.965
  2585  H   0.997        C 2584 0.973
  2586  H   0.999        C 2584 0.978
  2587  C   3.994        C 2584 1.009    C 2590 0.999    H 2589 0.978    H 2588 0.977
  2588  H   0.998        C 2587 0.977
  2589  H   0.998        C 2587 0.978
  2590  C   3.987        C 2593 1.008    C 2587 0.999    H 2592 0.973    H 2591 0.972
  2591  H   0.994        C 2590 0.972
  2592  H   0.995        C 2590 0.973
  2593  C   3.920        C 2590 1.008    N 2596 0.968    H 2594 0.964    H 2595 0.962
  2594  H   0.988        C 2593 0.964
  2595  H   0.986        C 2593 0.962
  2596  N   3.659        C 2593 0.968    H 2598 0.894    H 2597 0.891    H 2599 0.885
  2597  H   0.909        N 2596 0.891
  2598  H   0.913        N 2596 0.894
  2599  H   0.905        N 2596 0.885
  2600  C   3.940        O 2602 1.502    O 2601 1.479    C 2582 0.922
  2601  O   1.779        C 2600 1.479    O 2602 0.224
  2602  O   1.797        C 2600 1.502    O 2601 0.224

molecular dipole:
                 x           y           z       tot (Debye)
 q only:      583.517     694.323     652.654
   full:      586.408     694.083     660.322    2854.972
molecular quadrupole (traceless):
                xx          xy          yy          xz          yz          zz
 q only:   -14762.622   70752.129   10843.527   66068.953   80805.662    3919.095
  q+dip:   -15005.427   70689.558   10021.500   67059.761   81612.212    4983.927
   full:   -14999.092   70685.028   10006.658   67059.792   81610.693    4992.434


           -------------------------------------------------
          | TOTAL ENERGY            -4085.255990914696 Eh   |
          | GRADIENT NORM               1.338923430745 Eh/α |
          | HOMO-LUMO GAP               1.453687953268 eV   |
           -------------------------------------------------
########################################################################
[WARNING] Runtime exception occurred
-2- restart_readRestart: Dimension missmatch in restart file.
-1- restart_readRestart: Number of electron missmatch in restart file.
########################################################################

------------------------------------------------------------------------
 * finished run on 2020/06/09 at 00:16:48.781     
------------------------------------------------------------------------
 total:
 * wall-time:     0 d,  0 h,  7 min, 33.660 sec
 *  cpu-time:     0 d,  5 h, 45 min, 29.406 sec
 * ratio c/w:    45.694 speedup
 SCF:
 * wall-time:     0 d,  0 h,  7 min,  2.263 sec
 *  cpu-time:     0 d,  5 h, 33 min, 11.283 sec
 * ratio c/w:    47.343 speedup

