 +---------------------------------------------------------------+
 |                                                               |
 |        ####### #     # ####### ####### ####### ######         |
 |        #     # ##    # #          #    #       #     #        |
 |        #     # # #   # #          #    #       #     #        |
 |        #     # #  #  # #####      #    #####   ######         |
 |        #     # #   # # #          #    #       #              |
 |        #     # #    ## #          #    #       #              |
 |        ####### #     # #######    #    ####### #              |
 |                                                               |
 |        Linear-Scaling Ab Initio Total Energy Program          |
 |                                                               |
 |          Release for academic collaborators of ODG            |
 |                                             Version 5.3.2.6.  |
 |                                                               |
 +---------------------------------------------------------------+
 |                                                               |
 |  Authors:                                                     |
 |  Jacek Dziedzic, Peter D. Haynes, Nicholas D. M. Hine,        |
 |  Arash. A. Mostofi, Mike C. Payne and Chris-Kriton Skylaris   |
 |                                                               |
 |  Contributors:                                                |
 |  J. Aarons, L. Andrinopoulos, P. W. Avraam, R. A. Bell,       |
 |  A. Bhandari, G. A. Bramley, R. J. Charlton, S. J. Clark,     |
 |  R. J. Clements, G. C. Constantinescu, F. Corsetti,           |
 |  N. Corsini, O. Dieguez, S. M. M. Dubois, K. K. B. Duff,      |
 |  J. M. Escartin, A. Greco, H. Helal, Q. O. Hill, L. P. Lee,   |
 |  J.-H. Li, E. B. Linscott, G. Moynihan, D. D. O`Regan,        |
 |  O. K. Okan, M. J. S. Phipps, C. J. Pickard,                  |
 |  J. C. A. Prentice, M. I. J. Probert, L. E. Ratcliff,         |
 |  M. Robinson, A. Ruiz Serrano, J. S. Spencer, E. W. Tait,     |
 |  G. Teobaldi, D. Turban, V. Vitale, K. A. Wilkinson,          |
 |  C. Weber, J. C. Womack, N. Yeung and T. J. Zuehlsdorff       |
 |                                                               |
 |                                   Copyright (c) 2004-2019     |
 |                                                               |
 |  Please cite:                                                 |
 |  "Introducing ONETEP: Linear-scaling density functional       |
 |   simulations on parallel computers".                         |
 |   C.-K. Skylaris, P. D. Haynes, A. A. Mostofi, M. C. Payne.   |
 |   J. Chem. Phys. 122 084119 (2005).                           |
 |                                                               |
 |          in all publications arising from your use of ONETEP. |
 |                                                               |
 +---------------------------------------------------------------+
 |                                                               |
 |   ONETEP is based on developments described in the following  |
 |   publications:                                               |
 |                                                               |
 |  "Nonorthogonal generalized Wannier function pseudopotential  |
 |   plane-wave method".                                         |
 |   C.-K. Skylaris, A. A. Mostofi, P. D. Haynes, O. Dieguez,    |
 |   M. C. Payne.                                                |
 |   Phys. Rev. B 66 035119 (2002).                              |
 |                                                               |
 |  "Preconditioned iterative minimization for linear-scaling    |
 |   electronic structure calculations".                         |
 |   A. A. Mostofi, P. D. Haynes, C.-K. Skylaris, M. C. Payne.   |
 |   J. Chem. Phys. 119(17), pp.8842-8848 (2003).                |
 |                                                               |
 |  "Total-energy calculations on a real space grid with         |
 |   localized functions and a plane-wave basis".                |
 |   A. A. Mostofi, C.-K. Skylaris, P. D. Haynes, M. C. Payne.   |
 |   Comput. Phys. Commun. 147, pp.788-802 (2002).               |
 |                                                               |
 |  "Accurate kinetic energy evaluation in electronic structure  |
 |   calculations with localized functions on real space grids"  |
 |   C.-K. Skylaris, A. A. Mostofi, P. D. Haynes, C. J. Pickard, |
 |   M. C. Payne.                                                |
 |   Comput. Phys. Commun. 140, pp.315-322 (2001).               |
 |                                                               |
 |  "Accurate ionic forces and geometry optimization in linear-  |
 |   scaling density-functional theory with local orbitals"      |
 |   N. D. M. Hine, M. Robinson, P. D. Haynes, C.-K. Skylaris,   |
 |   M. C. Payne, and A. A. Mostofi.                             |
 |   Phys. Rev. B 83 195102 (2011).                              |
 |                                                               |
 +---------------------------------------------------------------+

Job started: 04-02-2020 00:02 (-0000)
 
Reading parameters from file "complex_3521.dat" ...... done

If your calculation crashes here, before "Checking processes and threads..."
is displayed, then your stack size is insufficient.
If so, use "ulimit -s unlimited" at runtime.
You can disable this check with "check_stack_size F".

Checking processes and threads...
   Determining the default number of threads...
      No default threads set at compilation time: defaulting to 1.
      OpenMP library call suggests 4 threads.
      Hybrid MPI-OpenMP compilation detected.
      Number of MPI processes > 1.
      OMP_NUM_THREADS environment variable present and
      its value matches the one obtained from the OpenMP library call.
      Using this value as default.
      Default threads: 4
      Default applies to threads_max and threads_num_fftboxes.
      Settings in the input file override this default.
   ... done

   Running with 40 MPI processes.
   There are 10 MPI processes running on the same node as the root process.
   Each MPI process is using: 
               1 threads for simulation cell FFTs.
               1 threads for parallel FFT box operations.
               4 threads for loops over batched FFT box operations.
               4 threads in other parallel regions.
... done

Basic input checks...... done

Reading geometry and species blocks from file "complex_3521.dat" ...
  <species_atomic_set> block not found: NGWF initialisation set to SOLVE
IS: Dielectric excluded regions:
    - NONE.
    
  Number of PPD points along a3 set to 1.  This is 
  the default value, it may have been provided also in the input file.
... done
 Writing xyz coordinates to file "complex_3521.xyz" ... done


--------------------------------------------------------------------------------
---------------------------------- INPUT FILE ----------------------------------
--------------------------------------------------------------------------------

cutoff_energy       : 800 eV                                                    
xc_functional B97M-V                                                            
task SINGLEPOINT                                                                
write_xyz true                                                                  
output_detail VERBOSE                                                           
ngwf_threshold_orig : 0.000002                                                  
kernel_cutoff       : 1000                                                      
k_zero              : 3.5                                                       
elec_cg_max 0                                                                   
occ_mix 1.0                                                                     
dispersion 0                                                                    
maxit_ngwf_cg 40                                                                
minit_lnv 10                                                                    
maxit_lnv 10                                                                    
write_denskern T                                                                
write_tightbox_ngwfs T                                                          
charge 9                                                                        
is_implicit_solvent T                                                           
is_auto_solvation T                                                             
is_include_apolar T                                                             
is_smeared_ion_rep T                                                            
is_solvent_surf_tension 4.7624E-5 Ha/bohr**2                                    
is_apolar_scaling_factor 0.281075                                               
is_solvation_beta 1.3                                                           
is_density_threshold 0.00035                                                    
is_bulk_permittivity 78.54                                                      
is_dielectric_model fix_initial                                                 
is_smeared_ion_width 0.8                                                        
mg_defco_fd_order 8                                                             
is_bc_coarseness 10                                                             
is_bc_surface_coarseness 1                                                      
fine_grid_scale 2.0                                                             
%block species                                                                  
N   N   7 4 8.0                                                                 
H   H   1 1 8.0                                                                 
C   C   6 4 8.0                                                                 
S   S  16 9 8.0                                                                 
O   O   8 4 8.0                                                                 
%endblock species                                                               
%block species_pot                                                              
N   N_00.recpot                                                                 
H   H_04.recpot                                                                 
C   C_01.recpot                                                                 
S   S_00.recpot                                                                 
O   O_02.recpot                                                                 
%endblock species_pot                                                           
%block lattice_cart                                                             
137.614   0.000   0.000                                                         
0.000 142.646   0.000                                                           
0.000   0.000   160.855                                                         
%endblock lattice_cart                                                          
%block positions_abs                                                            
     Hash =  -000008256750915027816161
%endblock positions_abs                                                         

--------------------------------------------------------------------------------
-------------------------------- END INPUT FILE --------------------------------
--------------------------------------------------------------------------------


 
 ESDF WARNING(1): "kernelcutoff" (esdf_physical) has no units. Assume "bohr".
 ESDF WARNING(2): "kzero" (esdf_physical) has no units. Assume "1/bohr".
 ESDF WARNING(3
 ): "issmearedionwidth" (esdf_physical) has no units. Assume "bohr".
<<<<<<<<<<<<<<<<<<<<<<<<<<<<<<<<< Full system >>>>>>>>>>>>>>>>>>>>>>>>>>>>>>>>>>
<<<<<<<<<<<<<<<<<<<<<<<<< Pseudopotential information >>>>>>>>>>>>>>>>>>>>>>>>>>
File: N_00.recpot [ 2001 points up to Gmax=  52.9 (1/bohr)]
  Atomic number:  7;  ionic charge:  5.000000
    Shell 1: l = 0; rc = 1.48 bohr
File: H_04.recpot [ 2001 points up to Gmax=  52.9 (1/bohr)]
  Atomic number:  1;  ionic charge:  1.000000
    Local potential
File: C_01.recpot [ 2001 points up to Gmax=  52.9 (1/bohr)]
  Atomic number:  6;  ionic charge:  4.000000
    Shell 1: l = 0; rc = 1.48 bohr
File: S_00.recpot [ 2001 points up to Gmax=  52.9 (1/bohr)]
  Atomic number: 16;  ionic charge:  6.000000
    Shell 1: l = 0; rc = 1.90 bohr
    Shell 2: l = 2; rc = 1.84 bohr
File: O_02.recpot [ 2001 points up to Gmax=  52.9 (1/bohr)]
  Atomic number:  8;  ionic charge:  6.000000
    Shell 1: l = 0; rc = 1.31 bohr
<<<<<<<<<<<<<<<<<<<<<<<<<<<<<<<<<<<<<<<<>>>>>>>>>>>>>>>>>>>>>>>>>>>>>>>>>>>>>>>>

-------------------------- Atom counting information ---------------------------
Symbol    Natoms    Nngwfs    Nprojs
  N        236       944       236
  H       1319      1319         0
  C        817      3268       817
  S          6        54        36
  O        240       960       240
.......   ......    ......    ......
Totals:   2618      6545      1329
--------------------------------------------------------------------------------

=============================== PSINC grid sizes ===============================
                      Simulation cell:  273 x 286 x 320
                              FFT-box:   99 x 105 x  99
                                  PPD:    7 x  11 x   1
Grid space d1=  0.504080586081a0 (KE cutoff=  29.89538Eh = 813.49465eV)
Grid space d2=  0.498762237762a0 (KE cutoff=  30.53633Eh = 830.93588eV)
Grid space d3=  0.502671875000a0 (KE cutoff=  30.06317Eh = 818.06059eV)
================================================================================

********************* Fourier parallelisation information **********************
       Coarse grid (whole simulation cell) dimensions:    273   286   320
          Real-space ('12') slabs/node (min max mean):      8     8     8
         Recip-space ('23') slabs/node (min max mean):      3     4     3
********************************************************************************

********************* Fourier parallelisation information **********************
       Double grid (whole simulation cell) dimensions:    546   572   640
          Real-space ('12') slabs/node (min max mean):     16    16    16
         Recip-space ('23') slabs/node (min max mean):      6     7     6
********************************************************************************
ONETEP fine grid is 546 x 572 x 640 gridpoints, 137.6140 x 142.6460 x 160.8550 bohr.
FD multigrid is     545 x 569 x 633 gridpoints, 137.3620 x 141.8979 x 159.0956 bohr.


Calculating local pseudopotential in open BC on a radial grid ...
Discrepancy between calculated realspace psloc and -Z/x on [5a0,255.264a0]:
max |rel. diff| # avg |rel. diff| #  avg rel. diff #  f # pseudopotential file
 0.000296759711    0.000009439468   0.000000085927   54  'N_00.recpot'
 0.000490027943    0.000021572324  -0.000000031900   54  'H_04.recpot'
 0.000320795249    0.000014598087   0.000000111901   54  'C_01.recpot'
 0.000388730920    0.000016096375   0.000000514750   54  'S_00.recpot'
 0.000828383344    0.000035421288   0.000000087443   54  'O_02.recpot'
... done
 WARNING: meta-GGA functionality under development.
          Using this functional is experimental.
          Minimum tau threshold, xc_min_tau =   1.00000000E-12
 WARNING: Using alternative XC functional PBE for 
          radial densities (xc_radial).

Atom SCF Calculation for N  : Z (AE atom) =   7 : Z (PS atom) =   5
Config String:
Orbitals (num,occ):  2     2.00 3.00
Orbitals   (num,l):  2        0    1
Real-space Grid (nr,dr,rmax): 1203    0.0066555740    8.0000000000
Spherical Bessel Basis (nsws,lmax,cutoff):   47    1  176.3951722778
Confining potential (l,width,scale):  0    3.0000000000  100.0000000000
Confining potential (l,width,scale):  1    3.0000000000  100.0000000000
  1         -4.7312375307   -3.4155304497    7.0523828109   -1.9351020946
  2         -9.7309464766   -2.0532547791    8.2966052865   -2.2494486027
  3         -9.6627394379   -2.1124926340    8.2327997121   -2.2369778124
  4         -9.6814993499   -2.1215521045    8.2229805960   -2.2365178421
  5         -9.6843326483   -2.1250939529    8.2191374534   -2.2362718126
  6         -9.6859628709   -2.1267894855    8.2172963573   -2.2362066344
  7         -9.6867347035   -2.1276425665    8.2163697352   -2.2361903369
  8         -9.6870802100   -2.1280764625    8.2158983890   -2.2361891460
  9         -9.6872290423   -2.1282977424    8.2156580222   -2.2361920435
 10         -9.6872901988   -2.1284107021    8.2155353368   -2.2361953393
 11         -9.6873135296   -2.1284684031    8.2154726809   -2.2361979819
 12         -9.6873212476   -2.1284978948    8.2154406648   -2.2361998431
 13         -9.6873229586   -2.1285129774    8.2154242957   -2.2362010676
 14         -9.6873226456   -2.1285206957    8.2154159216   -2.2362018403
 15         -9.6873218534   -2.1285246479    8.2154116349   -2.2362023142
 16         -9.6873212599   -2.1285262679    8.2154098784   -2.2362025420
 17         -9.6873207834   -2.1285272564    8.2154088068   -2.2362026955
 18         -9.6873204210   -2.1285278597    8.2154081529   -2.2362027982
 19         -9.6873201550   -2.1285282280    8.2154077538   -2.2362028667
 20         -9.6873199645   -2.1285284529    8.2154075102   -2.2362029121
 21         -9.6873198305   -2.1285285903    8.2154073614   -2.2362029421
 22         -9.6873197377   -2.1285286742    8.2154072705   -2.2362029618
Atom SCF converged after  22 iterations to a total energy of     -9.68731974

Atom SCF Calculation for H  : Z (AE atom) =   1 : Z (PS atom) =   1
Config String:
Orbitals (num,occ):  1     1.00
Orbitals   (num,l):  1        0
Real-space Grid (nr,dr,rmax): 1203    0.0066555740    8.0000000000
Spherical Bessel Basis (nsws,lmax,cutoff):   47    0  176.3951722778
Confining potential (l,width,scale):  0    3.0000000000  100.0000000000
  1         -0.3194257691   -0.2393854593    0.2820953124   -0.2424203209
  2         -0.3951823392   -0.2377116493    0.2886404059   -0.2475147891
  3         -0.4317044583   -0.2352244387    0.2921333887   -0.2514046172
  4         -0.4470703708   -0.2341892222    0.2934391879   -0.2531009782
  5         -0.4532132900   -0.2338556667    0.2938388426   -0.2537313520
  6         -0.4556579251   -0.2337612552    0.2939448584   -0.2539550462
  7         -0.4566418315   -0.2337377355    0.2939680120   -0.2540342273
  8         -0.4570437922   -0.2337331116    0.2939708287   -0.2540627372
  9         -0.4572102946   -0.2337328328    0.2939698291   -0.2540732650
 10         -0.4572800424   -0.2337332404    0.2939687193   -0.2540772588
 11         -0.4573095100   -0.2337335791    0.2939680317   -0.2540788122
 12         -0.4573220379   -0.2337337762    0.2939676699   -0.2540794294
 13         -0.4573273880   -0.2337338775    0.2939674931   -0.2540796787
 14         -0.4573296803   -0.2337339266    0.2939674099   -0.2540797808
 15         -0.4573306647   -0.2337339495    0.2939673718   -0.2540798230
 16         -0.4573310882   -0.2337339601    0.2939673545   -0.2540798406
 17         -0.4573312706   -0.2337339649    0.2939673467   -0.2540798479
 18         -0.4573313493   -0.2337339670    0.2939673433   -0.2540798510
Atom SCF converged after  18 iterations to a total energy of     -0.45733135

Atom SCF Calculation for C  : Z (AE atom) =   6 : Z (PS atom) =   4
Config String:
Orbitals (num,occ):  2     2.00 2.00
Orbitals   (num,l):  2        0    1
Real-space Grid (nr,dr,rmax): 1203    0.0066555740    8.0000000000
Spherical Bessel Basis (nsws,lmax,cutoff):   47    1  176.3951722778
Confining potential (l,width,scale):  0    3.0000000000  100.0000000000
Confining potential (l,width,scale):  1    3.0000000000  100.0000000000
  1         -5.2976922011   -1.3069684169    4.5135249990   -1.4493313817
  2         -5.3721716256   -1.3429755895    4.4750154450   -1.4361613026
  3         -5.3809959565   -1.3617365618    4.4541655428   -1.4305930207
  4         -5.3918938866   -1.3667928461    4.4484735100   -1.4294652294
  5         -5.3956096428   -1.3688539142    4.4461376126   -1.4290734646
  6         -5.3968271862   -1.3696852393    4.4451910874   -1.4289366866
  7         -5.3972028401   -1.3700178062    4.4448112275   -1.4288900460
  8         -5.3973067903   -1.3701500158    4.4446598370   -1.4288749220
  9         -5.3973286940   -1.3702023868    4.4445997329   -1.4288704293
 10         -5.3973289850   -1.3702230869    4.4445759233   -1.4288693188
 11         -5.3973254264   -1.3702312560    4.4445665049   -1.4288691775
 12         -5.3973224003   -1.3702344755    4.4445627836   -1.4288692549
 13         -5.3973208708   -1.3702354890    4.4445616088   -1.4288693270
 14         -5.3973198783   -1.3702360102    4.4445610034   -1.4288693814
 15         -5.3973192535   -1.3702362780    4.4445606917   -1.4288694190
 16         -5.3973188684   -1.3702364155    4.4445605313   -1.4288694437
 17         -5.3973186349   -1.3702364860    4.4445604489   -1.4288694595
 18         -5.3973184951   -1.3702365221    4.4445604065   -1.4288694693
 19         -5.3973184122   -1.3702365405    4.4445603848   -1.4288694753
Atom SCF converged after  19 iterations to a total energy of     -5.39731841

Atom SCF Calculation for S  : Z (AE atom) =  16 : Z (PS atom) =   6
Config String:
Orbitals (num,occ):  3     2.00 4.00 0.00
Orbitals   (num,l):  3        0    1    2
Real-space Grid (nr,dr,rmax): 1203    0.0066555740    8.0000000000
Spherical Bessel Basis (nsws,lmax,cutoff):   47    2  176.3951722778
Confining potential (l,width,scale):  0    3.0000000000  100.0000000000
Confining potential (l,width,scale):  1    3.0000000000  100.0000000000
Confining potential (l,width,scale):  2    3.0000000000  100.0000000000
  1        -12.4735062396   -1.0328741412   10.1554312477   -2.4512393157
  2         -9.9458301913   -2.4607392455    8.3041325857   -2.0306994528
  3        -10.1450417646   -2.2931184565    8.4831893826   -2.0812538287
  4        -10.1528335592   -2.2733105793    8.5050388867   -2.0896035179
  5        -10.1571940363   -2.2633716629    8.5160794258   -2.0939370707
  6        -10.1594380571   -2.2584938667    8.5215163935   -2.0961289008
  7        -10.1605856507   -2.2561081821    8.5241804044   -2.0972291378
  8        -10.1611799191   -2.2549395235    8.5254868240   -2.0977806248
  9        -10.1614918752   -2.2543658586    8.5261285885   -2.0980571586
 10        -10.1616572884   -2.2540839121    8.5264441898   -2.0981959233
 11        -10.1617455602   -2.2539453058    8.5265994231   -2.0982656006
 12        -10.1617928447   -2.2538772062    8.5266757320   -2.0983006047
 13        -10.1618182292   -2.2538437891    8.5267131983   -2.0983181961
 14        -10.1618318741   -2.2538274201    8.5267315620   -2.0983270391
 15        -10.1618392144   -2.2538194197    8.5267405433   -2.0983314852
 16        -10.1618431651   -2.2538155200    8.5267449245   -2.0983337210
 17        -10.1618452923   -2.2538136252    8.5267470551   -2.0983348455
 18        -10.1618464380   -2.2538127080    8.5267480875   -2.0983354110
 19        -10.1618470552   -2.2538122659    8.5267485856   -2.0983356955
 20        -10.1618473878   -2.2538120540    8.5267488248   -2.0983358386
 21        -10.1618475670   -2.2538119530    8.5267489389   -2.0983359106
 22        -10.1618476637   -2.2538119053    8.5267489929   -2.0983359468
Atom SCF converged after  22 iterations to a total energy of    -10.16184766

Atom SCF Calculation for O  : Z (AE atom) =   8 : Z (PS atom) =   6
Config String:
Orbitals (num,occ):  2     2.00 4.00
Orbitals   (num,l):  2        0    1
Real-space Grid (nr,dr,rmax): 1203    0.0066555740    8.0000000000
Spherical Bessel Basis (nsws,lmax,cutoff):   47    1  176.3951722778
Confining potential (l,width,scale):  0    3.0000000000  100.0000000000
Confining potential (l,width,scale):  1    3.0000000000  100.0000000000
  1         -1.8735052164   -7.5539365035   10.1554312477   -2.4512393157
  2        -16.0318313751   -3.1285771268   13.6395848164   -3.2358799643
  3        -15.9524020423   -3.0762819706   13.6967272503   -3.2536856837
  4        -15.8521515939   -3.0781493909   13.6951909330   -3.2561700440
  5        -15.8357139793   -3.0748501933   13.6988803334   -3.2580493133
  6        -15.8246052853   -3.0740779781   13.6997881576   -3.2588327446
  7        -15.8189019501   -3.0737449687   13.7001869911   -3.2592378801
  8        -15.8159785510   -3.0736026016   13.7003615168   -3.2594475790
  9        -15.8144776168   -3.0735437994   13.7004360379   -3.2595560735
 10        -15.8137058024   -3.0735207882   13.7004667348   -3.2596122456
 11        -15.8133083127   -3.0735125946   13.7004786868   -3.2596413656
 12        -15.8131032938   -3.0735102195   13.7004828997   -3.2596564858
 13        -15.8129973902   -3.0735099286   13.7004840891   -3.2596643505
 14        -15.8129426040   -3.0735102506   13.7004842061   -3.2596684489
 15        -15.8129142203   -3.0735106556   13.7004840157   -3.2596705887
 16        -15.8128994940   -3.0735109855   13.7004837906   -3.2596717080
 17        -15.8128918425   -3.0735112169   13.7004836103   -3.2596722946
 18        -15.8128878614   -3.0735113674   13.7004834848   -3.2596726026
 19        -15.8128857871   -3.0735114608   13.7004834035   -3.2596727646
 20        -15.8128847048   -3.0735115170   13.7004833533   -3.2596728500
 21        -15.8128841394   -3.0735115501   13.7004833231   -3.2596728951
 22        -15.8128838436   -3.0735115693   13.7004833054   -3.2596729190
 23        -15.8128836887   -3.0735115802   13.7004832951   -3.2596729316
 24        -15.8128836074   -3.0735115864   13.7004832893   -3.2596729383
Atom SCF converged after  24 iterations to a total energy of    -15.81288361

========================== Calculation in vacuum ==============================
= Adjusting the following parameters: 
= is_implicit_solvent: F
= is_include_apolar: F
= write_denskern: T
= write_tightbox_ngwfs: T
= restart read filename prefix: ""
= restart write filename prefix: "vacuum_"
===============================================================================

Determining parallel strategy ...
... using space-filling curve
... NGWF load balancing: max    164;  min    163;  average    164
... Projector load balancing: max     36;  min     32;  average     33
... done
Calculating direct Ion-Ion energy ...
Ion-Ion Energy        :    842080.84863924409728
Basis initialisation ...... NGWF spheres initialised
... Projector spheres initialised
... NGWF tight boxes initialised
... Tight-boxes gathered
... NGWF basis size (local,global):    1130532  44950571
... Nonlocal pseudopotential projector initialisation
... done

========================== Sparse matrix information ===========================
                        Overlap matrix filling:   6.92%
                        Density kernel filling: 100.00%
              NGWF-Proj overlap matrix filling:   1.80%
                    Hamiltonian matrix filling:   7.85%
                  NGWF diagonal matrix filling:   0.05%
                             KS matrix filling: 100.00% 
                           KSKS matrix filling: 100.00% 
================================================================================

Sparse matrix initialisation ... done

Generating smeared ion density ... done
Smeared ion self correction:     -14534.963309
Smeared ion non-self correction: -842032.486925
NGWF initialisation ...... done
============ Calculation of NGWF S^-1 using Hotelling algorithm ================ 
         Iteration  |  Frobenius norm and Maximum abs value    (of I-S*S_n^-1)   
               1       0.78784728E+02     0.98298848E+00
               2       0.76973688E+02     0.96645446E+00
               3       0.74025257E+02     0.93470968E+00
               4       0.69806495E+02     0.87588623E+00
               5       0.64523304E+02     0.77447714E+00
               6       0.58561607E+02     0.70555837E+00
               7       0.52534441E+02     0.67092647E+00
               8       0.46962652E+02     0.64567082E+00
               9       0.40953151E+02     0.60615431E+00
              10       0.32802809E+02     0.53952452E+00
              11       0.22297007E+02     0.43222494E+00
              12       0.11603819E+02     0.29044900E+00
              13       0.39472195E+01     0.14421602E+00
              14       0.66576093E+00     0.39081664E-01
              15       0.37259225E-01     0.40203998E-02
              16       0.29339259E-03     0.48083863E-04
              17       0.34407646E-07     0.72352737E-08
              18       0.10007017E-12     0.44408921E-14
================================================================================
Calculating local pseudopotential in open BC on the fine real space grid ...
... done

MG BCs: +ve charge blocks (gridpoints):     20221 (   15928948).
MG BCs: -ve charge blocks (gridpoints):      8163 (    1102082).
MG BCs:     Elided blocks (gridpoints):    180419 (  179265435).
MG BCs: Computational effort saved:  99.9855%.
MG BCs: Charge after coarse-graining:           -9.0002204.
MG DL_MG: Calling solver with defect correction order = 8
MG DL_MG: Solver finished
MG Hartree energy from (\int phi*rho dr):              1471.930478
MG Hartree energy from (\int eps (grad phi)^2 dr):     1471.319017
MG Discrepancy due to finite box and discretization:     -0.611460 (  -0.04154%)
MG Correction to account for finite box:                  0.464008
MG Remaining discrepancy, due to discretization:         -0.147452 (  -0.01002%)
 WARNING: xc_energy_potential using alternative initial XC functional PBE.
Up spin density kernel initialisation ... 
======= Optimisation of K by Palser-Manolopoulos canonical purification ======== 
         Iteration  |  Band structure energy |    c_n   
               1       -2606.67436352599452    0.5265101
               2       -2783.72181933963384    0.5169168
               3       -2964.74387362213065    0.5157063
               4       -3115.22196256452253    0.5298384
               5       -3207.16141744720471    0.5662444
               6       -3245.43028543341461    0.6103334
               7       -3258.52021058741775    0.6212018
               8       -3264.25048172240622    0.6196464
               9       -3267.02203874894531    0.6319822
              10       -3268.17545818482949    0.6547407
              11       -3268.62436440757028    0.6719888
              12       -3268.81496186375034    0.6683773
              13       -3268.91056204080178    0.6412363
              14       -3268.96419516170135    0.6067104
              15       -3268.99208757628912    0.5759954
              16       -3269.00381999112597    0.5186900
              17       -3269.00838996004950    0.4204563
              18       -3269.00920865446051    0.3766139
              19       -3269.00935032807774    0.3963761
              20       -3269.00946009743893    0.4320894
              21       -3269.00956343596545    0.4706883
              22       -3269.00964823286631    0.4946317
              23       -3269.00971999008652    0.4998250
              24       -3269.00978497328470    0.4999998
              25       -3269.00982465319657    0.5000000
              26       -3269.00983423151138    0.5000000
              27       -3269.00983465179706    0.5000022
              28       -3269.00983465254922    0.5000022
Termination criterion satisfied: band energy change below threshold.
Final occupancy bounds: [    0.00000000000000:    1.00000000000000]
Closest occupancy to 0.5:     1.00000000000000
================================================================================
... done

Writing density kernel to file "complex_3521.vacuum_dkn" ... done

>>> Optimising kernel for current NGWFs:
   Initial electron number for spin 1:    7234.00000000
     Final electron number for spin 1:    7234.00000000

=================== Penalty functional idempotency correction ==================
 RMS occupancy error at iteration   1:  0.000000 (step -0.5000 Ne1=   7234.0000)
            Final RMS occupancy error   :  0.000000 (Ne1=   7234.0000)
               Final occupancy bounds   : [ -0.0000,  1.0000]
================================================================================

................................................................................
<<<<<<<<<<<<<< LNV (Original version) density kernel optimisation >>>>>>>>>>>>>>
~~~~~~~~~~~~~~~~~~~~~~~~~~~~~~~~~~~~~~~~~~~~~~~~~~~~~~~~~~~~~~~~~~~~~~~~~~~~~~~~
   iter  |      energy (Eh)       | rms gradient |  commutator  |   dE (Eh)
MG BCs: +ve charge blocks (gridpoints):     30595 (   17026428).
MG BCs: -ve charge blocks (gridpoints):      8466 (    1135424).
MG BCs:     Elided blocks (gridpoints):    170042 (  178134613).
MG BCs: Computational effort saved:  99.9801%.
MG BCs: Charge after coarse-graining:           -9.0009656.
MG DL_MG: Calling solver with defect correction order = 8
MG DL_MG: Solver finished
MG Hartree energy from (\int phi*rho dr):              1425.202883
MG Hartree energy from (\int eps (grad phi)^2 dr):     1424.541675
MG Discrepancy due to finite box and discretization:     -0.661208 (  -0.04639%)
MG Correction to account for finite box:                  0.472100
MG Remaining discrepancy, due to discretization:         -0.189108 (  -0.01327%)
      ideal mu1:      -0.757255281828
             Q0:  -11533.563852793886
             G0:    -124.647833271100
   RMS gradient:       0.001705818091
MG BCs: +ve charge blocks (gridpoints):     30581 (   17100967).
MG BCs: -ve charge blocks (gridpoints):      8347 (    1111772).
MG BCs:     Elided blocks (gridpoints):    170055 (  178083726).
MG BCs: Computational effort saved:  99.9802%.
MG BCs: Charge after coarse-graining:           -9.0009882.
MG DL_MG: Calling solver with defect correction order = 8
MG DL_MG: Solver finished
MG Hartree energy from (\int phi*rho dr):              1447.758749
MG Hartree energy from (\int eps (grad phi)^2 dr):     1447.114025
MG Discrepancy due to finite box and discretization:     -0.644724 (  -0.04453%)
MG Correction to account for finite box:                  0.470742
MG Remaining discrepancy, due to discretization:         -0.173981 (  -0.01202%)
     Trial step:       0.500000000000
             Q1:  -11545.439082140452
 Quadratic coef:      50.448687288985
 Linear coef   :     -62.323916635550
           Qmin:  -11552.812473489132
Quadratic minimum step length (  0.308848059210) accepted
    Initial Ne1:    7234.00000000
      Final Ne1:    7234.00000000

=================== Penalty functional idempotency correction ==================
 RMS occupancy error at iteration   1:  0.003119 (step -0.4895 Ne1=   7234.0000)
 RMS occupancy error at iteration   2:  0.000022 (step -0.5000 Ne1=   7234.0000)
            Final RMS occupancy error   :  0.000000 (Ne1=   7234.0000)
               Final occupancy bounds   : [  0.0000,  1.0000]
================================================================================

    1        -1.153356385279E+04     1.7058E-03     1.5433E-03
MG BCs: +ve charge blocks (gridpoints):     30577 (   17074023).
MG BCs: -ve charge blocks (gridpoints):      8410 (    1120998).
MG BCs:     Elided blocks (gridpoints):    170059 (  178101444).
MG BCs: Computational effort saved:  99.9801%.
MG BCs: Charge after coarse-graining:           -9.0009793.
MG DL_MG: Calling solver with defect correction order = 8
MG DL_MG: Solver finished
MG Hartree energy from (\int phi*rho dr):              1432.613893
MG Hartree energy from (\int eps (grad phi)^2 dr):     1431.963674
MG Discrepancy due to finite box and discretization:     -0.650218 (  -0.04539%)
MG Correction to account for finite box:                  0.471160
MG Remaining discrepancy, due to discretization:         -0.179058 (  -0.01250%)
      ideal mu1:      -0.797405162644
             Q0:  -11553.183605522732
             G0:     -10.943094572859
   RMS gradient:       0.000501825086
MG BCs: +ve charge blocks (gridpoints):     30577 (   17090651).
MG BCs: -ve charge blocks (gridpoints):      8374 (    1114110).
MG BCs:     Elided blocks (gridpoints):    170059 (  178091704).
MG BCs: Computational effort saved:  99.9802%.
MG BCs: Charge after coarse-graining:           -9.0009839.
MG DL_MG: Calling solver with defect correction order = 8
MG DL_MG: Solver finished
MG Hartree energy from (\int phi*rho dr):              1438.351962
MG Hartree energy from (\int eps (grad phi)^2 dr):     1437.705448
MG Discrepancy due to finite box and discretization:     -0.646514 (  -0.04495%)
MG Correction to account for finite box:                  0.470424
MG Remaining discrepancy, due to discretization:         -0.176090 (  -0.01224%)
     Trial step:       0.392968229765
             Q1:  -11555.689959059935
 Quadratic coef:       1.793934965248
 Linear coef   :      -4.300288502451
           Qmin:  -11555.760689079627
Quadratic minimum step length (  0.470997219248) accepted
    Initial Ne1:    7233.99993243
      Final Ne1:    7234.00000000

=================== Penalty functional idempotency correction ==================
 RMS occupancy error at iteration   1:  0.001469 (step -0.4947 Ne1=   7234.0000)
 RMS occupancy error at iteration   2:  0.000006 (step -0.5000 Ne1=   7234.0000)
            Final RMS occupancy error   :  0.000000 (Ne1=   7234.0000)
               Final occupancy bounds   : [  0.0000,  1.0000]
================================================================================

    2        -1.155318360552E+04     5.0183E-04     4.5403E-04    -1.9620E+01
MG BCs: +ve charge blocks (gridpoints):     30578 (   17094124).
MG BCs: -ve charge blocks (gridpoints):      8369 (    1112721).
MG BCs:     Elided blocks (gridpoints):    170058 (  178089620).
MG BCs: Computational effort saved:  99.9802%.
MG BCs: Charge after coarse-graining:           -9.0009847.
MG DL_MG: Calling solver with defect correction order = 8
MG DL_MG: Solver finished
MG Hartree energy from (\int phi*rho dr):              1439.514374
MG Hartree energy from (\int eps (grad phi)^2 dr):     1438.868550
MG Discrepancy due to finite box and discretization:     -0.645824 (  -0.04486%)
MG Correction to account for finite box:                  0.470287
MG Remaining discrepancy, due to discretization:         -0.175536 (  -0.01219%)
      ideal mu1:      -0.818365987201
             Q0:  -11555.793170649209
             G0:      -1.827301735568
   RMS gradient:       0.000205146735
MG BCs: +ve charge blocks (gridpoints):     30573 (   17094696).
MG BCs: -ve charge blocks (gridpoints):      8366 (    1112912).
MG BCs:     Elided blocks (gridpoints):    170063 (  178088857).
MG BCs: Computational effort saved:  99.9802%.
MG BCs: Charge after coarse-graining:           -9.0009851.
MG DL_MG: Calling solver with defect correction order = 8
MG DL_MG: Solver finished
MG Hartree energy from (\int phi*rho dr):              1438.865465
MG Hartree energy from (\int eps (grad phi)^2 dr):     1438.220163
MG Discrepancy due to finite box and discretization:     -0.645301 (  -0.04485%)
MG Correction to account for finite box:                  0.469985
MG Remaining discrepancy, due to discretization:         -0.175316 (  -0.01218%)
     Trial step:       0.430217321214
             Q1:  -11556.260581285111
 Quadratic coef:       0.318726221823
 Linear coef   :      -0.786136857726
           Qmin:  -11556.277921445315
Quadratic minimum step length (  0.530564587851) accepted
    Initial Ne1:    7233.99997907
      Final Ne1:    7234.00000000

=================== Penalty functional idempotency correction ==================
 RMS occupancy error at iteration   1:  0.000564 (step -0.4978 Ne1=   7234.0000)
 RMS occupancy error at iteration   2:  0.000001 (step -0.5000 Ne1=   7234.0000)
            Final RMS occupancy error   :  0.000000 (Ne1=   7234.0000)
               Final occupancy bounds   : [  0.0000,  1.0000]
================================================================================

    3        -1.155579317065E+04     2.0515E-04     1.8561E-04    -2.6096E+00
MG BCs: +ve charge blocks (gridpoints):     30572 (   17095028).
MG BCs: -ve charge blocks (gridpoints):      8367 (    1112884).
MG BCs:     Elided blocks (gridpoints):    170065 (  178088553).
MG BCs: Computational effort saved:  99.9802%.
MG BCs: Charge after coarse-graining:           -9.0009851.
MG DL_MG: Calling solver with defect correction order = 8
MG DL_MG: Solver finished
MG Hartree energy from (\int phi*rho dr):              1438.719177
MG Hartree energy from (\int eps (grad phi)^2 dr):     1438.073986
MG Discrepancy due to finite box and discretization:     -0.645191 (  -0.04484%)
MG Correction to account for finite box:                  0.469917
MG Remaining discrepancy, due to discretization:         -0.175275 (  -0.01218%)
      ideal mu1:      -0.820949203821
             Q0:  -11556.282405593316
             G0:      -0.390613257327
   RMS gradient:       0.000095020351
MG BCs: +ve charge blocks (gridpoints):     30575 (   17095297).
MG BCs: -ve charge blocks (gridpoints):      8366 (    1112822).
MG BCs:     Elided blocks (gridpoints):    170062 (  178088346).
MG BCs: Computational effort saved:  99.9802%.
MG BCs: Charge after coarse-graining:           -9.0009851.
MG DL_MG: Calling solver with defect correction order = 8
MG DL_MG: Solver finished
MG Hartree energy from (\int phi*rho dr):              1439.810306
MG Hartree energy from (\int eps (grad phi)^2 dr):     1439.165046
MG Discrepancy due to finite box and discretization:     -0.645260 (  -0.04482%)
MG Correction to account for finite box:                  0.469832
MG Remaining discrepancy, due to discretization:         -0.175429 (  -0.01218%)
     Trial step:       0.477763619080
             Q1:  -11556.378352079191
 Quadratic coef:       0.090674317606
 Linear coef   :      -0.186620803481
           Qmin:  -11556.378428715441
Quadratic minimum step length (  0.491653164983) accepted
    Initial Ne1:    7233.99999572
      Final Ne1:    7234.00000000

=================== Penalty functional idempotency correction ==================
 RMS occupancy error at iteration   1:  0.000177 (step -0.4993 Ne1=   7234.0000)
            Final RMS occupancy error   :  0.000000 (Ne1=   7234.0000)
               Final occupancy bounds   : [ -0.0000,  1.0000]
================================================================================

    4        -1.155628240559E+04     9.5020E-05     8.5970E-05    -4.8923E-01
MG BCs: +ve charge blocks (gridpoints):     30575 (   17095305).
MG BCs: -ve charge blocks (gridpoints):      8366 (    1112820).
MG BCs:     Elided blocks (gridpoints):    170062 (  178088340).
MG BCs: Computational effort saved:  99.9802%.
MG BCs: Charge after coarse-graining:           -9.0009851.
MG DL_MG: Calling solver with defect correction order = 8
MG DL_MG: Solver finished
MG Hartree energy from (\int phi*rho dr):              1439.842255
MG Hartree energy from (\int eps (grad phi)^2 dr):     1439.196992
MG Discrepancy due to finite box and discretization:     -0.645263 (  -0.04481%)
MG Correction to account for finite box:                  0.469829
MG Remaining discrepancy, due to discretization:         -0.175433 (  -0.01218%)
      ideal mu1:      -0.820843242116
             Q0:  -11556.378832383663
             G0:      -0.099889684071
   RMS gradient:       0.000048188502
MG BCs: +ve charge blocks (gridpoints):     30576 (   17094953).
MG BCs: -ve charge blocks (gridpoints):      8369 (    1112976).
MG BCs:     Elided blocks (gridpoints):    170061 (  178088536).
MG BCs: Computational effort saved:  99.9802%.
MG BCs: Charge after coarse-graining:           -9.0009848.
MG DL_MG: Calling solver with defect correction order = 8
MG DL_MG: Solver finished
MG Hartree energy from (\int phi*rho dr):              1439.519009
MG Hartree energy from (\int eps (grad phi)^2 dr):     1438.873617
MG Discrepancy due to finite box and discretization:     -0.645392 (  -0.04483%)
MG Correction to account for finite box:                  0.469832
MG Remaining discrepancy, due to discretization:         -0.175560 (  -0.01220%)
     Trial step:       0.484658638048
             Q1:  -11556.402034544852
 Quadratic coef:       0.025210237049
 Linear coef   :      -0.048412398237
           Qmin:  -11556.402074532265
Quadratic minimum step length (  0.465356334193) accepted
    Initial Ne1:    7234.00165513
      Final Ne1:    7234.00000000

=================== Penalty functional idempotency correction ==================
 RMS occupancy error at iteration   1:  0.000058 (step -0.4998 Ne1=   7234.0000)
            Final RMS occupancy error   :  0.000000 (Ne1=   7234.0000)
               Final occupancy bounds   : [ -0.0000,  1.0000]
================================================================================

    5        -1.155637883238E+04     4.8189E-05     4.3599E-05    -9.6427E-02
MG BCs: +ve charge blocks (gridpoints):     30576 (   17094969).
MG BCs: -ve charge blocks (gridpoints):      8369 (    1112964).
MG BCs:     Elided blocks (gridpoints):    170061 (  178088532).
MG BCs: Computational effort saved:  99.9802%.
MG BCs: Charge after coarse-graining:           -9.0009848.
MG DL_MG: Calling solver with defect correction order = 8
MG DL_MG: Solver finished
MG Hartree energy from (\int phi*rho dr):              1439.531856
MG Hartree energy from (\int eps (grad phi)^2 dr):     1438.886469
MG Discrepancy due to finite box and discretization:     -0.645387 (  -0.04483%)
MG Correction to account for finite box:                  0.469832
MG Remaining discrepancy, due to discretization:         -0.175555 (  -0.01220%)
      ideal mu1:      -0.820235999597
             Q0:  -11556.402115624864
             G0:      -0.023266766392
   RMS gradient:       0.000023281095
MG BCs: +ve charge blocks (gridpoints):     30578 (   17094711).
MG BCs: -ve charge blocks (gridpoints):      8369 (    1113116).
MG BCs:     Elided blocks (gridpoints):    170059 (  178088638).
MG BCs: Computational effort saved:  99.9802%.
MG BCs: Charge after coarse-graining:           -9.0009848.
MG DL_MG: Calling solver with defect correction order = 8
MG DL_MG: Solver finished
MG Hartree energy from (\int phi*rho dr):              1439.063362
MG Hartree energy from (\int eps (grad phi)^2 dr):     1438.417960
MG Discrepancy due to finite box and discretization:     -0.645402 (  -0.04485%)
MG Correction to account for finite box:                  0.469839
MG Remaining discrepancy, due to discretization:         -0.175563 (  -0.01220%)
     Trial step:       0.474909430457
             Q1:  -11556.408788105706
 Quadratic coef:       0.004377125933
 Linear coef   :      -0.011049606776
           Qmin:  -11556.409089025434
Quadratic minimum step length (  0.599430144415) accepted
    Initial Ne1:    7234.00073761
      Final Ne1:    7234.00000000

=================== Penalty functional idempotency correction ==================
 RMS occupancy error at iteration   1:  0.000023 (step -0.4999 Ne1=   7234.0000)
            Final RMS occupancy error   :  0.000000 (Ne1=   7234.0000)
               Final occupancy bounds   : [ -0.0000,  1.0000]
================================================================================

    6        -1.155640211562E+04     2.3281E-05     2.1064E-05    -2.3283E-02
MG BCs: +ve charge blocks (gridpoints):     30578 (   17094627).
MG BCs: -ve charge blocks (gridpoints):      8369 (    1113155).
MG BCs:     Elided blocks (gridpoints):    170059 (  178088683).
MG BCs: Computational effort saved:  99.9802%.
MG BCs: Charge after coarse-graining:           -9.0009848.
MG DL_MG: Calling solver with defect correction order = 8
MG DL_MG: Solver finished
MG Hartree energy from (\int phi*rho dr):              1438.940416
MG Hartree energy from (\int eps (grad phi)^2 dr):     1438.295010
MG Discrepancy due to finite box and discretization:     -0.645406 (  -0.04485%)
MG Correction to account for finite box:                  0.469841
MG Remaining discrepancy, due to discretization:         -0.175565 (  -0.01220%)
      ideal mu1:      -0.820208859492
             Q0:  -11556.409093899885
             G0:      -0.008217233841
   RMS gradient:       0.000013850108
MG BCs: +ve charge blocks (gridpoints):     30578 (   17095014).
MG BCs: -ve charge blocks (gridpoints):      8368 (    1112949).
MG BCs:     Elided blocks (gridpoints):    170059 (  178088502).
MG BCs: Computational effort saved:  99.9802%.
MG BCs: Charge after coarse-graining:           -9.0009849.
MG DL_MG: Calling solver with defect correction order = 8
MG DL_MG: Solver finished
MG Hartree energy from (\int phi*rho dr):              1439.425243
MG Hartree energy from (\int eps (grad phi)^2 dr):     1438.779843
MG Discrepancy due to finite box and discretization:     -0.645401 (  -0.04484%)
MG Correction to account for finite box:                  0.469828
MG Remaining discrepancy, due to discretization:         -0.175573 (  -0.01220%)
     Trial step:       0.533549462077
             Q1:  -11556.411134748952
 Quadratic coef:       0.002343451628
 Linear coef   :      -0.004384300695
           Qmin:  -11556.411144517482
Quadratic minimum step length (  0.499101677588) accepted
    Initial Ne1:    7234.00003867
      Final Ne1:    7234.00000000

=================== Penalty functional idempotency correction ==================
 RMS occupancy error at iteration   1:  0.000001 (step -0.5000 Ne1=   7234.0000)
            Final RMS occupancy error   :  0.000000 (Ne1=   7234.0000)
               Final occupancy bounds   : [  0.0000,  1.0000]
================================================================================

    7        -1.155640909390E+04     1.3850E-05     1.2531E-05    -6.9783E-03
MG BCs: +ve charge blocks (gridpoints):     30578 (   17094992).
MG BCs: -ve charge blocks (gridpoints):      8368 (    1112962).
MG BCs:     Elided blocks (gridpoints):    170059 (  178088511).
MG BCs: Computational effort saved:  99.9802%.
MG BCs: Charge after coarse-graining:           -9.0009849.
MG DL_MG: Calling solver with defect correction order = 8
MG DL_MG: Solver finished
MG Hartree energy from (\int phi*rho dr):              1439.393914
MG Hartree energy from (\int eps (grad phi)^2 dr):     1438.748514
MG Discrepancy due to finite box and discretization:     -0.645401 (  -0.04484%)
MG Correction to account for finite box:                  0.469828
MG Remaining discrepancy, due to discretization:         -0.175572 (  -0.01220%)
      ideal mu1:      -0.820506509773
             Q0:  -11556.411144539947
             G0:      -0.004070286173
   RMS gradient:       0.000009747897
MG BCs: +ve charge blocks (gridpoints):     30578 (   17095026).
MG BCs: -ve charge blocks (gridpoints):      8368 (    1112923).
MG BCs:     Elided blocks (gridpoints):    170059 (  178088516).
MG BCs: Computational effort saved:  99.9802%.
MG BCs: Charge after coarse-graining:           -9.0009849.
MG DL_MG: Calling solver with defect correction order = 8
MG DL_MG: Solver finished
MG Hartree energy from (\int phi*rho dr):              1439.426321
MG Hartree energy from (\int eps (grad phi)^2 dr):     1438.780932
MG Discrepancy due to finite box and discretization:     -0.645389 (  -0.04484%)
MG Correction to account for finite box:                  0.469822
MG Remaining discrepancy, due to discretization:         -0.175567 (  -0.01220%)
     Trial step:       0.516038207499
             Q1:  -11556.412629239261
 Quadratic coef:       0.000615723866
 Linear coef   :      -0.002100423181
           Qmin:  -11556.412935837063
Quadratic minimum step length (  0.880182394582) accepted
    Initial Ne1:    7234.00003360
      Final Ne1:    7234.00000000

=================== Penalty functional idempotency correction ==================
 RMS occupancy error at iteration   1:  0.000007 (step -0.4998 Ne1=   7234.0000)
            Final RMS occupancy error   :  0.000000 (Ne1=   7234.0000)
               Final occupancy bounds   : [ -0.0000,  1.0000]
================================================================================

    8        -1.155641114454E+04     9.7479E-06     8.8195E-06    -2.0506E-03
MG BCs: +ve charge blocks (gridpoints):     30578 (   17095076).
MG BCs: -ve charge blocks (gridpoints):      8368 (    1112895).
MG BCs:     Elided blocks (gridpoints):    170059 (  178088494).
MG BCs: Computational effort saved:  99.9802%.
MG BCs: Charge after coarse-graining:           -9.0009849.
MG DL_MG: Calling solver with defect correction order = 8
MG DL_MG: Solver finished
MG Hartree energy from (\int phi*rho dr):              1439.448853
MG Hartree energy from (\int eps (grad phi)^2 dr):     1438.803473
MG Discrepancy due to finite box and discretization:     -0.645381 (  -0.04484%)
MG Correction to account for finite box:                  0.469818
MG Remaining discrepancy, due to discretization:         -0.175563 (  -0.01220%)
      ideal mu1:      -0.820558666740
             Q0:  -11556.412934900494
             G0:      -0.004273230584
   RMS gradient:       0.000009993492
MG BCs: +ve charge blocks (gridpoints):     30579 (   17094917).
MG BCs: -ve charge blocks (gridpoints):      8368 (    1112979).
MG BCs:     Elided blocks (gridpoints):    170058 (  178088569).
MG BCs: Computational effort saved:  99.9802%.
MG BCs: Charge after coarse-graining:           -9.0009850.
MG DL_MG: Calling solver with defect correction order = 8
MG DL_MG: Solver finished
MG Hartree energy from (\int phi*rho dr):              1439.223664
MG Hartree energy from (\int eps (grad phi)^2 dr):     1438.578300
MG Discrepancy due to finite box and discretization:     -0.645363 (  -0.04484%)
MG Correction to account for finite box:                  0.469808
MG Remaining discrepancy, due to discretization:         -0.175555 (  -0.01220%)
     Trial step:       0.673949363953
             Q1:  -11556.414598349482
 Quadratic coef:       0.001216492046
 Linear coef   :      -0.002879941034
           Qmin:  -11556.414639404109
Quadratic minimum step length (  0.797758782697) accepted
    Initial Ne1:    7234.00004879
      Final Ne1:    7234.00000000

=================== Penalty functional idempotency correction ==================
 RMS occupancy error at iteration   1:  0.000022 (step -0.4993 Ne1=   7234.0000)
            Final RMS occupancy error   :  0.000000 (Ne1=   7234.0000)
               Final occupancy bounds   : [ -0.0000,  1.0000]
================================================================================

    9        -1.155641293490E+04     9.9935E-06     9.0417E-06    -1.7904E-03
MG BCs: +ve charge blocks (gridpoints):     30579 (   17094884).
MG BCs: -ve charge blocks (gridpoints):      8368 (    1113000).
MG BCs:     Elided blocks (gridpoints):    170058 (  178088581).
MG BCs: Computational effort saved:  99.9802%.
MG BCs: Charge after coarse-graining:           -9.0009850.
MG DL_MG: Calling solver with defect correction order = 8
MG DL_MG: Solver finished
MG Hartree energy from (\int phi*rho dr):              1439.182013
MG Hartree energy from (\int eps (grad phi)^2 dr):     1438.536653
MG Discrepancy due to finite box and discretization:     -0.645360 (  -0.04484%)
MG Correction to account for finite box:                  0.469806
MG Remaining discrepancy, due to discretization:         -0.175554 (  -0.01220%)
      ideal mu1:      -0.820409630242
   10        -1.155641463871E+04     9.2564E-06     8.3748E-06    -1.7038E-03
Finished density kernel iterations (  10)

Writing density kernel to file "complex_3521.vacuum_dkn" ... done


>>> Density kernel optimised for the current NGWF basis:
     ~~~~~~~~~~~~~~~~~~~~~~~~~~~~~~~~~~~~~~~~~~~~~~~~~~~~~~~~~~~
     Total energy                =  -1.15564146387109E+04  Eh
     Estimated bandgap           =  -2.4133E-01  Eh
     RMS occupancy error         =   1.5882E-08
     [H,K] commutator            =   8.3748E-06
     Occupancy bounds            = [ -0.000:  1.000]
     ~~~~~~~~~~~~~~~~~~~~~~~~~~~~~~~~~~~~~~~~~~~~~~~~~~~~~~~~~~~




################################################################################
########################### NGWF CG iteration  001 #############################
################################################################################
****** Reciprocal space K.E. preconditioning with k_zero =  3.5000 a0^-1 *******

>>> Checking for convergence of NGWFs:   NOT CONVERGED
  ========================================================================
         NGWF RMS gradient =  1.6225E-03 >  2.0000E-06  | above tolerance
  ========================================================================

>>> Improving NGWFs using line search:
============ Calculation of NGWF S^-1 using Hotelling algorithm ================ 
         Iteration  |  Frobenius norm and Maximum abs value    (of I-S*S_n^-1)   
               1       0.23469986E+00     0.63793458E-02
               2       0.12693314E-02     0.56066594E-04
               3       0.62170240E-07     0.46928145E-08
               4       0.13128228E-12     0.59952043E-14
================================================================================
MG BCs: +ve charge blocks (gridpoints):     30081 (   17044678).
MG BCs: -ve charge blocks (gridpoints):      8387 (    1109450).
MG BCs:     Elided blocks (gridpoints):    170556 (  178142337).
MG BCs: Computational effort saved:  99.9804%.
MG BCs: Charge after coarse-graining:           -9.0009842.
MG DL_MG: Calling solver with defect correction order = 8
MG DL_MG: Solver finished
MG Hartree energy from (\int phi*rho dr):              1411.183239
MG Hartree energy from (\int eps (grad phi)^2 dr):     1410.539225
MG Discrepancy due to finite box and discretization:     -0.644014 (  -0.04564%)
MG Correction to account for finite box:                  0.469742
MG Remaining discrepancy, due to discretization:         -0.174272 (  -0.01235%)
============ Calculation of NGWF S^-1 using Hotelling algorithm ================ 
         Iteration  |  Frobenius norm and Maximum abs value    (of I-S*S_n^-1)   
               1       0.21763676E+01     0.48528583E-01
               2       0.97124809E-01     0.32259467E-02
               3       0.26696805E-03     0.15941018E-04
               4       0.34827839E-08     0.40306081E-09
               5       0.11612008E-12     0.58841820E-14
================================================================================
------------------------------- NGWF line search -------------------------------
RMS gradient                =       0.00162246365316
Trial step length           =               0.122474
Gradient along search dir.  =       -292.37487564220
Functional at step 0        =  -11556.41463871090673
Functional at step 1        =  -11589.45931858953554
Functional predicted        =  -11672.40113141327674
Selected quadratic step     =               0.793409
--------------------------- NGWF line search finished --------------------------
                                               
Writing NGWFs to file "complex_3521.vacuum_tightbox_ngwfs"....  done

>>> Optimising kernel for current NGWFs:
   Initial electron number for spin 1:    7279.98620139
     Final electron number for spin 1:    7234.00000000

=================== Penalty functional idempotency correction ==================
 RMS occupancy error at iteration   1:  0.005227 (step -0.4827 Ne1=   7234.0000)
 RMS occupancy error at iteration   2:  0.000096 (step -0.5003 Ne1=   7234.0000)
            Final RMS occupancy error   :  0.000000 (Ne1=   7234.0000)
               Final occupancy bounds   : [  0.0000,  1.0000]
================================================================================

................................................................................
<<<<<<<<<<<<<< LNV (Original version) density kernel optimisation >>>>>>>>>>>>>>
~~~~~~~~~~~~~~~~~~~~~~~~~~~~~~~~~~~~~~~~~~~~~~~~~~~~~~~~~~~~~~~~~~~~~~~~~~~~~~~~
   iter  |      energy (Eh)       | rms gradient |  commutator  |   dE (Eh)
MG BCs: +ve charge blocks (gridpoints):     24643 (   16816360).
MG BCs: -ve charge blocks (gridpoints):      8523 (    1079392).
MG BCs:     Elided blocks (gridpoints):    175997 (  178400713).
MG BCs: Computational effort saved:  99.9831%.
MG BCs: Charge after coarse-graining:           -9.0007182.
MG DL_MG: Calling solver with defect correction order = 8
MG DL_MG: Solver finished
MG Hartree energy from (\int phi*rho dr):              1280.038767
MG Hartree energy from (\int eps (grad phi)^2 dr):     1279.397525
MG Discrepancy due to finite box and discretization:     -0.641242 (  -0.05010%)
MG Correction to account for finite box:                  0.469440
MG Remaining discrepancy, due to discretization:         -0.171802 (  -0.01342%)
      ideal mu1:      -0.761793453668
             Q0:  -11671.747947763768
             G0:      -9.656867801367
   RMS gradient:       0.000474797575
MG BCs: +ve charge blocks (gridpoints):     24706 (   16829162).
MG BCs: -ve charge blocks (gridpoints):      8502 (    1075868).
MG BCs:     Elided blocks (gridpoints):    175934 (  178391435).
MG BCs: Computational effort saved:  99.9831%.
MG BCs: Charge after coarse-graining:           -9.0007148.
MG DL_MG: Calling solver with defect correction order = 8
MG DL_MG: Solver finished
MG Hartree energy from (\int phi*rho dr):              1293.618207
MG Hartree energy from (\int eps (grad phi)^2 dr):     1292.972223
MG Discrepancy due to finite box and discretization:     -0.645984 (  -0.04994%)
MG Correction to account for finite box:                  0.469103
MG Remaining discrepancy, due to discretization:         -0.176880 (  -0.01367%)
     Trial step:       0.733245541539
             Q1:  -11670.994948597858
 Quadratic coef:       7.833854426490
 Linear coef   :      -7.080855260580
           Qmin:  -11673.348006575550
Quadratic minimum step length (  0.331382565174) accepted
    Initial Ne1:    7233.99901838
      Final Ne1:    7234.00000000

=================== Penalty functional idempotency correction ==================
 RMS occupancy error at iteration   1:  0.000353 (step -0.4986 Ne1=   7234.0000)
 RMS occupancy error at iteration   2:  0.000000 (step -0.5000 Ne1=   7234.0000)
            Final RMS occupancy error   :  0.000000 (Ne1=   7234.0000)
               Final occupancy bounds   : [  0.0000,  1.0000]
================================================================================

    1        -1.167174794776E+04     4.7480E-04     4.2958E-04
MG BCs: +ve charge blocks (gridpoints):     24669 (   16822249).
MG BCs: -ve charge blocks (gridpoints):      8506 (    1077829).
MG BCs:     Elided blocks (gridpoints):    175971 (  178396387).
MG BCs: Computational effort saved:  99.9831%.
MG BCs: Charge after coarse-graining:           -9.0007166.
MG DL_MG: Calling solver with defect correction order = 8
MG DL_MG: Solver finished
MG Hartree energy from (\int phi*rho dr):              1285.169668
MG Hartree energy from (\int eps (grad phi)^2 dr):     1284.526378
MG Discrepancy due to finite box and discretization:     -0.643290 (  -0.05005%)
MG Correction to account for finite box:                  0.469270
MG Remaining discrepancy, due to discretization:         -0.174020 (  -0.01354%)
      ideal mu1:      -0.767814428561
             Q0:  -11673.328669263748
             G0:      -0.871586209888
   RMS gradient:       0.000143101669
MG BCs: +ve charge blocks (gridpoints):     24675 (   16821796).
MG BCs: -ve charge blocks (gridpoints):      8504 (    1078566).
MG BCs:     Elided blocks (gridpoints):    175965 (  178396103).
MG BCs: Computational effort saved:  99.9831%.
MG BCs: Charge after coarse-graining:           -9.0007165.
MG DL_MG: Calling solver with defect correction order = 8
MG DL_MG: Solver finished
MG Hartree energy from (\int phi*rho dr):              1285.760254
MG Hartree energy from (\int eps (grad phi)^2 dr):     1285.116708
MG Discrepancy due to finite box and discretization:     -0.643546 (  -0.05005%)
MG Correction to account for finite box:                  0.469265
MG Remaining discrepancy, due to discretization:         -0.174281 (  -0.01355%)
     Trial step:       0.492934872430
             Q1:  -11673.527643790934
 Quadratic coef:       0.230660709996
 Linear coef   :      -0.429635237183
           Qmin:  -11673.528731984694
Quadratic minimum step length (  0.459077297637) accepted
    Initial Ne1:    7233.99987646
      Final Ne1:    7234.00000000

=================== Penalty functional idempotency correction ==================
 RMS occupancy error at iteration   1:  0.000136 (step -0.4995 Ne1=   7234.0000)
            Final RMS occupancy error   :  0.000000 (Ne1=   7234.0000)
               Final occupancy bounds   : [ -0.0000,  1.0000]
================================================================================

    2        -1.167332866926E+04     1.4310E-04     1.2947E-04    -1.5807E+00
MG BCs: +ve charge blocks (gridpoints):     24674 (   16821849).
MG BCs: -ve charge blocks (gridpoints):      8505 (    1078521).
MG BCs:     Elided blocks (gridpoints):    175966 (  178396095).
MG BCs: Computational effort saved:  99.9831%.
MG BCs: Charge after coarse-graining:           -9.0007165.
MG DL_MG: Calling solver with defect correction order = 8
MG DL_MG: Solver finished
MG Hartree energy from (\int phi*rho dr):              1285.720135
MG Hartree energy from (\int eps (grad phi)^2 dr):     1285.076607
MG Discrepancy due to finite box and discretization:     -0.643528 (  -0.05005%)
MG Correction to account for finite box:                  0.469265
MG Remaining discrepancy, due to discretization:         -0.174263 (  -0.01355%)
      ideal mu1:      -0.768585059525
             Q0:  -11673.529109063675
             G0:      -0.173123430002
   RMS gradient:       0.000063509505
MG BCs: +ve charge blocks (gridpoints):     24674 (   16821264).
MG BCs: -ve charge blocks (gridpoints):      8505 (    1078824).
MG BCs:     Elided blocks (gridpoints):    175966 (  178396377).
MG BCs: Computational effort saved:  99.9831%.
MG BCs: Charge after coarse-graining:           -9.0007165.
MG DL_MG: Calling solver with defect correction order = 8
MG DL_MG: Solver finished
MG Hartree energy from (\int phi*rho dr):              1285.151214
MG Hartree energy from (\int eps (grad phi)^2 dr):     1284.507769
MG Discrepancy due to finite box and discretization:     -0.643445 (  -0.05007%)
MG Correction to account for finite box:                  0.469266
MG Remaining discrepancy, due to discretization:         -0.174179 (  -0.01355%)
     Trial step:       0.475704960186
             Q1:  -11673.579464013572
 Quadratic coef:       0.032000724479
 Linear coef   :      -0.082355674376
           Qmin:  -11673.582095810165
Quadratic minimum step length (  0.612126810223) accepted
    Initial Ne1:    7234.00052451
      Final Ne1:    7234.00000000

=================== Penalty functional idempotency correction ==================
 RMS occupancy error at iteration   1:  0.000069 (step -0.4997 Ne1=   7234.0000)
            Final RMS occupancy error   :  0.000000 (Ne1=   7234.0000)
               Final occupancy bounds   : [ -0.0000,  1.0000]
================================================================================

    3        -1.167352910906E+04     6.3510E-05     5.7461E-05    -2.0044E-01
MG BCs: +ve charge blocks (gridpoints):     24674 (   16821154).
MG BCs: -ve charge blocks (gridpoints):      8507 (    1078878).
MG BCs:     Elided blocks (gridpoints):    175966 (  178396433).
MG BCs: Computational effort saved:  99.9831%.
MG BCs: Charge after coarse-graining:           -9.0007165.
MG DL_MG: Calling solver with defect correction order = 8
MG DL_MG: Solver finished
MG Hartree energy from (\int phi*rho dr):              1284.987691
MG Hartree energy from (\int eps (grad phi)^2 dr):     1284.344268
MG Discrepancy due to finite box and discretization:     -0.643422 (  -0.05007%)
MG Correction to account for finite box:                  0.469267
MG Remaining discrepancy, due to discretization:         -0.174156 (  -0.01355%)
      ideal mu1:      -0.767680075956
             Q0:  -11673.582198325428
             G0:      -0.033287600719
   RMS gradient:       0.000027832681
MG BCs: +ve charge blocks (gridpoints):     24673 (   16820851).
MG BCs: -ve charge blocks (gridpoints):      8506 (    1079037).
MG BCs:     Elided blocks (gridpoints):    175967 (  178396577).
MG BCs: Computational effort saved:  99.9831%.
MG BCs: Charge after coarse-graining:           -9.0007165.
MG DL_MG: Calling solver with defect correction order = 8
MG DL_MG: Solver finished
MG Hartree energy from (\int phi*rho dr):              1284.996843
MG Hartree energy from (\int eps (grad phi)^2 dr):     1284.353508
MG Discrepancy due to finite box and discretization:     -0.643335 (  -0.05007%)
MG Correction to account for finite box:                  0.469264
MG Remaining discrepancy, due to discretization:         -0.174071 (  -0.01355%)
     Trial step:       0.539621867502
             Q1:  -11673.591005914262
 Quadratic coef:       0.009155128431
 Linear coef   :      -0.017962717265
           Qmin:  -11673.591009212516
Quadratic minimum step length (  0.529379522560) accepted
    Initial Ne1:    7234.00024060
      Final Ne1:    7234.00000000

=================== Penalty functional idempotency correction ==================
 RMS occupancy error at iteration   1:  0.000018 (step -0.4999 Ne1=   7234.0000)
            Final RMS occupancy error   :  0.000000 (Ne1=   7234.0000)
               Final occupancy bounds   : [ -0.0000,  1.0000]
================================================================================

    4        -1.167358219833E+04     2.7833E-05     2.5182E-05    -5.3089E-02
MG BCs: +ve charge blocks (gridpoints):     24673 (   16820856).
MG BCs: -ve charge blocks (gridpoints):      8506 (    1079034).
MG BCs:     Elided blocks (gridpoints):    175967 (  178396575).
MG BCs: Computational effort saved:  99.9831%.
MG BCs: Charge after coarse-graining:           -9.0007165.
MG DL_MG: Calling solver with defect correction order = 8
MG DL_MG: Solver finished
MG Hartree energy from (\int phi*rho dr):              1284.996656
MG Hartree energy from (\int eps (grad phi)^2 dr):     1284.353319
MG Discrepancy due to finite box and discretization:     -0.643337 (  -0.05007%)
MG Correction to account for finite box:                  0.469264
MG Remaining discrepancy, due to discretization:         -0.174073 (  -0.01355%)
      ideal mu1:      -0.767707164105
             Q0:  -11673.591013997677
             G0:      -0.009822625062
   RMS gradient:       0.000015139726
MG BCs: +ve charge blocks (gridpoints):     24673 (   16821247).
MG BCs: -ve charge blocks (gridpoints):      8503 (    1078853).
MG BCs:     Elided blocks (gridpoints):    175967 (  178396365).
MG BCs: Computational effort saved:  99.9831%.
MG BCs: Charge after coarse-graining:           -9.0007165.
MG DL_MG: Calling solver with defect correction order = 8
MG DL_MG: Solver finished
MG Hartree energy from (\int phi*rho dr):              1285.328630
MG Hartree energy from (\int eps (grad phi)^2 dr):     1284.685316
MG Discrepancy due to finite box and discretization:     -0.643314 (  -0.05005%)
MG Correction to account for finite box:                  0.469257
MG Remaining discrepancy, due to discretization:         -0.174057 (  -0.01354%)
     Trial step:       0.534476160910
             Q1:  -11673.593501675059
 Quadratic coef:       0.002762281551
 Linear coef   :      -0.005249958933
           Qmin:  -11673.593508499802
Quadratic minimum step length (  0.507909466185) accepted
    Initial Ne1:    7234.00008069
      Final Ne1:    7234.00000000

=================== Penalty functional idempotency correction ==================
 RMS occupancy error at iteration   1:  0.000007 (step -0.5000 Ne1=   7234.0000)
            Final RMS occupancy error   :  0.000000 (Ne1=   7234.0000)
               Final occupancy bounds   : [ -0.0000,  1.0000]
================================================================================

    5        -1.167359101400E+04     1.5140E-05     1.3698E-05    -8.8157E-03
MG BCs: +ve charge blocks (gridpoints):     24673 (   16821233).
MG BCs: -ve charge blocks (gridpoints):      8503 (    1078863).
MG BCs:     Elided blocks (gridpoints):    175967 (  178396369).
MG BCs: Computational effort saved:  99.9831%.
MG BCs: Charge after coarse-graining:           -9.0007165.
MG DL_MG: Calling solver with defect correction order = 8
MG DL_MG: Solver finished
MG Hartree energy from (\int phi*rho dr):              1285.312106
MG Hartree energy from (\int eps (grad phi)^2 dr):     1284.668791
MG Discrepancy due to finite box and discretization:     -0.643315 (  -0.05005%)
MG Correction to account for finite box:                  0.469257
MG Remaining discrepancy, due to discretization:         -0.174058 (  -0.01354%)
      ideal mu1:      -0.767950334709
             Q0:  -11673.593509096769
             G0:      -0.002248473708
   RMS gradient:       0.000007243488
MG BCs: +ve charge blocks (gridpoints):     24674 (   16821212).
MG BCs: -ve charge blocks (gridpoints):      8504 (    1078889).
MG BCs:     Elided blocks (gridpoints):    175966 (  178396364).
MG BCs: Computational effort saved:  99.9831%.
MG BCs: Charge after coarse-graining:           -9.0007165.
MG DL_MG: Calling solver with defect correction order = 8
MG DL_MG: Solver finished
MG Hartree energy from (\int phi*rho dr):              1285.272824
MG Hartree energy from (\int eps (grad phi)^2 dr):     1284.629518
MG Discrepancy due to finite box and discretization:     -0.643306 (  -0.05005%)
MG Correction to account for finite box:                  0.469252
MG Remaining discrepancy, due to discretization:         -0.174054 (  -0.01354%)
     Trial step:       0.521023513458
             Q1:  -11673.594170617871
 Quadratic coef:       0.000509986568
 Linear coef   :      -0.001171507671
           Qmin:  -11673.594181874401
Quadratic minimum step length (  0.598430508372) accepted
    Initial Ne1:    7234.00002451
      Final Ne1:    7234.00000000

=================== Penalty functional idempotency correction ==================
 RMS occupancy error at iteration   1:  0.000002 (step -0.5000 Ne1=   7234.0000)
            Final RMS occupancy error   :  0.000000 (Ne1=   7234.0000)
               Final occupancy bounds   : [  0.0000,  1.0000]
================================================================================

    6        -1.167359350910E+04     7.2435E-06     6.5536E-06    -2.4951E-03
MG BCs: +ve charge blocks (gridpoints):     24674 (   16821204).
MG BCs: -ve charge blocks (gridpoints):      8504 (    1078899).
MG BCs:     Elided blocks (gridpoints):    175966 (  178396362).
MG BCs: Computational effort saved:  99.9831%.
MG BCs: Charge after coarse-graining:           -9.0007165.
MG DL_MG: Calling solver with defect correction order = 8
MG DL_MG: Solver finished
MG Hartree energy from (\int phi*rho dr):              1285.266993
MG Hartree energy from (\int eps (grad phi)^2 dr):     1284.623688
MG Discrepancy due to finite box and discretization:     -0.643305 (  -0.05005%)
MG Correction to account for finite box:                  0.469251
MG Remaining discrepancy, due to discretization:         -0.174054 (  -0.01354%)
      ideal mu1:      -0.767899037273
             Q0:  -11673.594181939145
             G0:      -0.000753350409
   RMS gradient:       0.000004193618
MG BCs: +ve charge blocks (gridpoints):     24673 (   16821065).
MG BCs: -ve charge blocks (gridpoints):      8504 (    1078956).
MG BCs:     Elided blocks (gridpoints):    175967 (  178396444).
MG BCs: Computational effort saved:  99.9831%.
MG BCs: Charge after coarse-graining:           -9.0007165.
MG DL_MG: Calling solver with defect correction order = 8
MG DL_MG: Solver finished
MG Hartree energy from (\int phi*rho dr):              1285.211742
MG Hartree energy from (\int eps (grad phi)^2 dr):     1284.568433
MG Discrepancy due to finite box and discretization:     -0.643308 (  -0.05005%)
MG Correction to account for finite box:                  0.469254
MG Remaining discrepancy, due to discretization:         -0.174055 (  -0.01354%)
     Trial step:       0.558387290357
             Q1:  -11673.594356559101
 Quadratic coef:       0.000246041338
 Linear coef   :      -0.000420661293
           Qmin:  -11673.594361742187
Quadratic minimum step length (  0.477342388383) accepted
    Initial Ne1:    7233.99999942
      Final Ne1:    7234.00000000

=================== Penalty functional idempotency correction ==================
 RMS occupancy error at iteration   1:  0.000000 (step -0.5000 Ne1=   7234.0000)
            Final RMS occupancy error   :  0.000000 (Ne1=   7234.0000)
               Final occupancy bounds   : [  0.0000,  1.0000]
================================================================================

    7        -1.167359418194E+04     4.1936E-06     3.7942E-06    -6.7284E-04
MG BCs: +ve charge blocks (gridpoints):     24673 (   16821077).
MG BCs: -ve charge blocks (gridpoints):      8504 (    1078952).
MG BCs:     Elided blocks (gridpoints):    175967 (  178396436).
MG BCs: Computational effort saved:  99.9831%.
MG BCs: Charge after coarse-graining:           -9.0007165.
MG DL_MG: Calling solver with defect correction order = 8
MG DL_MG: Solver finished
MG Hartree energy from (\int phi*rho dr):              1285.219754
MG Hartree energy from (\int eps (grad phi)^2 dr):     1284.576446
MG Discrepancy due to finite box and discretization:     -0.643308 (  -0.05005%)
MG Correction to account for finite box:                  0.469254
MG Remaining discrepancy, due to discretization:         -0.174054 (  -0.01354%)
      ideal mu1:      -0.767845223787
             Q0:  -11673.594361740281
             G0:      -0.000390571662
   RMS gradient:       0.000003019494
MG BCs: +ve charge blocks (gridpoints):     24673 (   16821065).
MG BCs: -ve charge blocks (gridpoints):      8504 (    1078957).
MG BCs:     Elided blocks (gridpoints):    175967 (  178396443).
MG BCs: Computational effort saved:  99.9831%.
MG BCs: Charge after coarse-graining:           -9.0007165.
MG DL_MG: Calling solver with defect correction order = 8
MG DL_MG: Solver finished
MG Hartree energy from (\int phi*rho dr):              1285.201693
MG Hartree energy from (\int eps (grad phi)^2 dr):     1284.558386
MG Discrepancy due to finite box and discretization:     -0.643308 (  -0.05005%)
MG Correction to account for finite box:                  0.469253
MG Remaining discrepancy, due to discretization:         -0.174054 (  -0.01354%)
     Trial step:       0.516276982657
             Q1:  -11673.594509594259
 Quadratic coef:       0.000053789181
 Linear coef   :      -0.000201643159
           Qmin:  -11673.594550718635
Quadratic minimum step length (  0.967701308400) accepted
    Initial Ne1:    7233.99999938
      Final Ne1:    7234.00000000

=================== Penalty functional idempotency correction ==================
 RMS occupancy error at iteration   1:  0.000001 (step -0.5000 Ne1=   7234.0000)
            Final RMS occupancy error   :  0.000000 (Ne1=   7234.0000)
               Final occupancy bounds   : [  0.0000,  1.0000]
================================================================================

    8        -1.167359436174E+04     3.0195E-06     2.7319E-06    -1.7980E-04
MG BCs: +ve charge blocks (gridpoints):     24674 (   16821052).
MG BCs: -ve charge blocks (gridpoints):      8505 (    1078971).
[...]
 RMS occupancy error at iteration   1:  0.000000 (step -0.5000 Ne1=   7234.0000)
            Final RMS occupancy error   :  0.000000 (Ne1=   7234.0000)
               Final occupancy bounds   : [  0.0000,  1.0000]
================================================================================

    7        -1.170919311474E+04     4.5708E-09     4.1354E-09     0.0000E+00

Reusing previously generated solute cavity.
MG BCs: +ve charge blocks (gridpoints):     28751 (   18892614).
MG BCs: -ve charge blocks (gridpoints):      8526 (    1056163).
MG BCs:     Elided blocks (gridpoints):    171889 (  176347688).
MG BCs: Computational effort saved:  99.9810%.
MG BCs: Charge after coarse-graining:           -9.0009739.
MG DL_MG: Calling solver with defect correction order = 8
MG DL_MG: Solver finished
MG Hartree energy from (\int phi*rho dr):              1236.649112
MG Hartree energy from (\int eps (grad phi)^2 dr):     1236.469282
MG Discrepancy due to finite box and discretization:     -0.179830 (  -0.01454%)
MG Correction to account for finite box:                  0.006400
MG Remaining discrepancy, due to discretization:         -0.173430 (  -0.01402%)
      ideal mu1:      -0.513997555591
             Q0:  -11709.193114742404
             G0:      -0.000000001450
   RMS gradient:       0.000000004201

Reusing previously generated solute cavity.
MG BCs: +ve charge blocks (gridpoints):     28751 (   18892614).
MG BCs: -ve charge blocks (gridpoints):      8526 (    1056163).
MG BCs:     Elided blocks (gridpoints):    171889 (  176347688).
MG BCs: Computational effort saved:  99.9810%.
MG BCs: Charge after coarse-graining:           -9.0009739.
MG DL_MG: Calling solver with defect correction order = 8
MG DL_MG: Solver finished
MG Hartree energy from (\int phi*rho dr):              1236.649119
MG Hartree energy from (\int eps (grad phi)^2 dr):     1236.469289
MG Discrepancy due to finite box and discretization:     -0.179830 (  -0.01454%)
MG Correction to account for finite box:                  0.006400
MG Remaining discrepancy, due to discretization:         -0.173430 (  -0.01402%)
     Trial step:       0.130612752735
             Q1:  -11709.193114742055
 Quadratic coef:       0.000000000538
 Linear coef   :      -0.000000000189
           Qmin:  -11709.193114742420
Quadratic minimum step length (  0.022972445247) accepted
    Initial Ne1:    7234.00000000
      Final Ne1:    7234.00000000

=================== Penalty functional idempotency correction ==================
 RMS occupancy error at iteration   1:  0.000000 (step -0.5000 Ne1=   7234.0000)
            Final RMS occupancy error   :  0.000000 (Ne1=   7234.0000)
               Final occupancy bounds   : [  0.0000,  1.0000]
================================================================================

    8        -1.170919311474E+04     4.2011E-09     3.8010E-09     0.0000E+00

Reusing previously generated solute cavity.
MG BCs: +ve charge blocks (gridpoints):     28751 (   18892614).
MG BCs: -ve charge blocks (gridpoints):      8526 (    1056163).
MG BCs:     Elided blocks (gridpoints):    171889 (  176347688).
MG BCs: Computational effort saved:  99.9810%.
MG BCs: Charge after coarse-graining:           -9.0009739.
MG DL_MG: Calling solver with defect correction order = 8
MG DL_MG: Solver finished
MG Hartree energy from (\int phi*rho dr):              1236.649113
MG Hartree energy from (\int eps (grad phi)^2 dr):     1236.469283
MG Discrepancy due to finite box and discretization:     -0.179830 (  -0.01454%)
MG Correction to account for finite box:                  0.006400
MG Remaining discrepancy, due to discretization:         -0.173430 (  -0.01402%)
      ideal mu1:      -0.513997555682
             Q0:  -11709.193114742287
             G0:      -0.000000001911
   RMS gradient:       0.000000003981

Reusing previously generated solute cavity.
MG BCs: +ve charge blocks (gridpoints):     28751 (   18892614).
MG BCs: -ve charge blocks (gridpoints):      8526 (    1056163).
MG BCs:     Elided blocks (gridpoints):    171889 (  176347688).
MG BCs: Computational effort saved:  99.9810%.
MG BCs: Charge after coarse-graining:           -9.0009739.
MG DL_MG: Calling solver with defect correction order = 8
MG DL_MG: Solver finished
MG Hartree energy from (\int phi*rho dr):              1236.649117
MG Hartree energy from (\int eps (grad phi)^2 dr):     1236.469287
MG Discrepancy due to finite box and discretization:     -0.179830 (  -0.01454%)
MG Correction to account for finite box:                  0.006400
MG Remaining discrepancy, due to discretization:         -0.173430 (  -0.01402%)
     Trial step:       0.054776767984
             Q1:  -11709.193114742287
 Quadratic coef:       0.000000000106
 Linear coef   :      -0.000000000105
           Qmin:  -11709.193114742313
Quadratic minimum step length (  0.027167673873) accepted
    Initial Ne1:    7234.00000000
      Final Ne1:    7234.00000000

=================== Penalty functional idempotency correction ==================
 RMS occupancy error at iteration   1:  0.000000 (step -0.5000 Ne1=   7234.0000)
            Final RMS occupancy error   :  0.000000 (Ne1=   7234.0000)
               Final occupancy bounds   : [  0.0000,  1.0000]
================================================================================

    9        -1.170919311474E+04     3.9805E-09     3.6014E-09     1.1642E-10

Reusing previously generated solute cavity.
MG BCs: +ve charge blocks (gridpoints):     28751 (   18892614).
MG BCs: -ve charge blocks (gridpoints):      8526 (    1056163).
MG BCs:     Elided blocks (gridpoints):    171889 (  176347688).
MG BCs: Computational effort saved:  99.9810%.
MG BCs: Charge after coarse-graining:           -9.0009739.
MG DL_MG: Calling solver with defect correction order = 8
MG DL_MG: Solver finished
MG Hartree energy from (\int phi*rho dr):              1236.649115
MG Hartree energy from (\int eps (grad phi)^2 dr):     1236.469285
MG Discrepancy due to finite box and discretization:     -0.179830 (  -0.01454%)
MG Correction to account for finite box:                  0.006400
MG Remaining discrepancy, due to discretization:         -0.173430 (  -0.01402%)
      ideal mu1:      -0.513997555752
   10        -1.170919311474E+04     3.6306E-09     3.2848E-09     1.1642E-10
Finished density kernel iterations (  10)

Writing density kernel to file "complex_3521.dkn" ... done


>>> Density kernel optimised for the current NGWF basis:
     ~~~~~~~~~~~~~~~~~~~~~~~~~~~~~~~~~~~~~~~~~~~~~~~~~~~~~~~~~~~
     Total energy                =  -1.17091931147422E+04  Eh
     Estimated bandgap           =   1.1744E-01  Eh
     RMS occupancy error         =   6.1388E-16
     [H,K] commutator            =   3.2848E-09
     Occupancy bounds            = [  0.000:  1.000]
     ~~~~~~~~~~~~~~~~~~~~~~~~~~~~~~~~~~~~~~~~~~~~~~~~~~~~~~~~~~~




################################################################################
########################### NGWF CG iteration  005 #############################
################################################################################
****** Reciprocal space K.E. preconditioning with k_zero =  3.5000 a0^-1 *******

>>> Checking for convergence of NGWFs: 
           ........................................................
           |         *** NGWF optimisation converged ***          |
           | RMS NGWF gradient =    0.00000092678001              |
           | Criteria satisfied:                                  |
           | -> RMS NGWF gradient lower than set threshold.       |
           ========================================================

Reusing previously generated solute cavity.
MG BCs: +ve charge blocks (gridpoints):     28751 (   18892614).
MG BCs: -ve charge blocks (gridpoints):      8526 (    1056163).
MG BCs:     Elided blocks (gridpoints):    171889 (  176347688).
MG BCs: Computational effort saved:  99.9810%.
MG BCs: Charge after coarse-graining:           -9.0009739.
MG DL_MG: Calling solver with defect correction order = 8
MG DL_MG: Solver finished
MG Hartree energy from (\int phi*rho dr):              1236.649115
MG Hartree energy from (\int eps (grad phi)^2 dr):     1236.469285
MG Discrepancy due to finite box and discretization:     -0.179830 (  -0.01454%)
MG Correction to account for finite box:                  0.006400
MG Remaining discrepancy, due to discretization:         -0.173430 (  -0.01402%)

================================================================================
           ---------------- ENERGY COMPONENTS (Eh) ----------------
           | Kinetic                    :     8455.30530069002816 |
           | Pseudo. (local,OBC,corr'd) :    -5015.79955466320916 |
           | Pseudopotential (non-local):     1453.73389280026367 |
           | Hartree (molecular)        :     1236.64911498281367 |
           | Exchange-correlation       :    -3353.09455376441520 |
           | Ion-ion (open BC)          :   842080.84863924409728 |
           | Smeared ion non-self corr. :  -842032.48692478262819 |
           | Smeared ion self corr.     :   -14534.96330857569956 |
           | Solvent cavitation energy  :        2.18546411638261 |
           | Solute-solvent dis-rep en. :       -1.57118478987037 |
           | Total                      :   -11709.19311474229289 |
           --------------------------------------------------------
           ------ LOCAL ENERGY COMPONENTS FROM MATRIX TRACES ------
           | Pseudopotential (local)    :    -5015.79955466321007 |
           | Hartree                    :    -1996.51910447667228 |
           --------------------------------------------------------
           Integrated density           :     7233.99999999816919
           Integrated density tr(KS)    :     7234.00000000000091
================================================================================


                        <<<<< CALCULATION SUMMARY >>>>>                         
|ITER|    RMS GRADIENT   |     TOTAL ENERGY    |   step   |     Epredicted              
   0     0.00003625879622 -11709.14905220677610   0.520238 -11709.18703519363407        
   1     0.00001210959951 -11709.19203760242090   0.111659 -11709.19294691284449        
   2     0.00000510376274 -11709.19308326358441   0.018461 -11709.19310996869535        
   3     0.00000218228511 -11709.19311367825139   0.003423 -11709.19311458360426        
   4     0.00000092678001 -11709.19311474217102  <-- CG                                 

=================== Finished the calculation in solvent ========================
= Adjusting the following parameters: 
= read_denskern: F
= read_tightbox_ngwfs: F
= maxit_pen: 0 (restored to user-specified value)
= restart read filename prefix: ""
= restart write filename prefix: ""
================================================================================

================================================================================
IS: Calculation in solvent completed (NGWFs converged).      

Individual components of total energy in solvent:     hartree           kcal/mol
- Usual non-electrostatic DFT terms:    -12946.45650905149705    -8124023.938724
- Electrostatic fixed charge energy:      1236.64911498281367      776009.018908
- Apolar cavitation energy:                  2.18546411638261        1371.399409
- Apolar dispersion-repulsion energy:       -1.57118478987037        -985.933320
 -------------------------------------------------------------------------------
- Total energy in solvent:              -11709.19311474217102    -7347629.453728

Components of total energy in solvent:                hartree           kcal/mol
- Usual non-electrostatic DFT terms:    -12946.45650905149705    -8124023.938724
- Electrostatic energy:                   1236.64911498281367      776009.018908
- Apolar energy terms:                       0.61427932651224         385.466089
 -------------------------------------------------------------------------------
- Total energy in solvent:              -11709.19311474217102    -7347629.453728

Calculation of free energy of solvation:              hartree           kcal/mol
- Total energy in solvent:         (+)  -11709.19311474217102    -7347629.453728
- Total energy in vacuum:          (-)  -11705.34267762023956    -7345213.268007
 -------------------------------------------------------------------------------
- Total free energy of solvation:           -3.85043712193146       -2416.185721

Components of polar term in f.e. of solvation:        hartree           kcal/mol
- Electrostatic:                            -4.86938442844075       -3055.584795
- Change in nonelectrostatic DFT terms:      0.40466797999761         253.932986
 -------------------------------------------------------------------------------
- Polar term in f.e. of solvation:          -4.46471644844314       -2801.651810

Components of free energy of solvation:               hartree           kcal/mol
- Polar term in f.e. of solvation: (+)      -4.46471644844314       -2801.651810
- Apolar (cavitation, dis., rep.): (+)       0.61427932651224         385.466089
 -------------------------------------------------------------------------------
- Total free energy of solvation:           -3.85043712193090       -2416.185721
================================================================================


------------------------------ TIMING INFORMATION ------------------------------
AVERAGE TIME:   85819.304s on     40 node(s)                                    
TOTAL TIME:     85819.305s on     40 node(s)                                    
================= AVERAGE TIMINGS FROM ALL NODES (CUMULATIVE) ==================
|| TAG                                    #calls    cpu time   %total  Gflops ||
|| work_imbalance                       :     1        0.00s   0.000%  ------ ||
|| parallel_prepare_fd_halos_request    :  2439        0.02s   0.000%  ------ ||
|| sparse_set_to_garbage                :   267        0.06s   0.000%  ------ ||
|| parallel_prepare_fd_halos_satisfy    :  2439        0.08s   0.000%  ------ ||
|| parallel_prepare_fd_halos_alloc      :  2439        0.08s   0.000%  ------ ||
|| ngwfs_initialise_from_radial         :     1        0.17s   0.000%  ------ ||
|| basis_extract_function_from_box      :  6708        0.24s   0.000%  ------ ||
|| restart_ngwfs_tightbox_input         :     1        0.91s   0.001%  ------ ||
|| pseudopotentials_nonlocal_mat        :    39        1.49s   0.002%  ------ ||
|| parallel_prepare_fd_halos_comms_imbal:  2439        3.66s   0.004%  ------ ||
|| density_init_guess_real              :     1        4.57s   0.005%  ------ ||
|| restart_kernel_read                  :     1        5.02s   0.006%  ------ ||
|| openbc_locps_radial                  :     1        5.21s   0.006%  ------ ||
|| parallel_prepare_fd_halos_clear      :  2439       17.52s   0.020%  ------ ||
|| restart_kernel_write                 :    21       21.14s   0.025%  ------ ||
|| sparse_init                          :     2       23.66s   0.028%  ------ ||
|| projectors_func_ovlp_box             :    39       31.26s   0.036%  ------ ||
|| parallel_prepare_fd_halos_comms_wait :  2439       31.34s   0.037%  ------ ||
|| projectors_init_fftbox_recip         :   259       35.55s   0.041%  ------ ||
|| function_ops_brappd_ketppd           :    39       36.52s   0.043%  ------ ||
|| palser_mano_kernel_optimise          :     1       50.45s   0.059%  ------ ||
|| parallel_prepare_fd_halos            :  2439       52.71s   0.061%  ------ ||
|| pseudo_make_structure_factor         :     2       57.37s   0.067%  ------ ||
|| ngwf_gradient_coeffs                 :    20       83.03s   0.097%  ------ ||
|| restart_ngwfs_tightbox_output        :    18      113.09s   0.132%  ------ ||
|| sparse_embed_hotelling_invert_embed  :    39      118.79s   0.138%  ------ ||
|| finite_difference_derivative         :  2439      135.40s   0.158%  ------ ||
|| basis_copy_function_to_box           : 208.8k     148.25s   0.173%  ------ ||
|| openbc_locps_on_grid                 :     2      194.50s   0.227%  ------ ||
|| integrals_kinetic                    :    39      243.33s   0.284%  ------ ||
|| projectors_gradient_batch            :   220      283.15s   0.330%  ------ ||
|| sparse_trace                         :  6044      318.92s   0.372%  ------ ||
|| fourier_apply_box_pair               : 58868      408.33s   0.476% 592.657 ||
|| kernel_purify                        :   621      460.10s   0.536%  ------ ||
|| basis_dot_function_with_box          : 24.53M     469.93s   0.548%  ------ ||
|| kernel_fix                           :   200      697.61s   0.813%  ------ ||
|| lnv_gradient_norm                    :   200      740.41s   0.863%  ------ ||
|| hamiltonian_energy_components        :     4      759.04s   0.884%  ------ ||
|| integrals_locpot_mat_els_batch       :  2299     1189.98s   1.387%  ------ ||
|| basis_add_function_to_box            : 65.98M    1260.50s   1.469%  ------ ||
|| ke_density_batch_grad_apply          :  4455     1353.82s   1.578%  ------ ||
|| ke_density_batch_row_sums            :  4455     1704.15s   1.986%  ------ ||
|| density_batch_row_sums               :  4455     1708.94s   1.991%  ------ ||
|| fourier_apply_cell_backward          : 10942     1824.08s   2.125%  82.858 ||
|| fourier_apply_cell_forward           : 10940     2065.72s   2.407%  73.152 ||
|| density_fftbox_deposit_to_cell       : 66420     2091.42s   2.437%  ------ ||
|| ke_density_fftbox_deposit_to_cell    : 66420     2235.76s   2.605%  ------ ||
|| cell_grid_deposit_box_real           : 135.3k    2485.40s   2.896%  ------ ||
|| sparse_product                       :  7974     2721.44s   3.171%  ------ ||
|| cell_grid_extract_box_real           : 165.2k    2732.09s   3.184%  ------ ||
|| multigrid_prepare_bound_cond         :   406     3175.37s   3.700%  ------ ||
|| ngwf_gradient_build_batch            :   220     3190.79s   3.718%  ------ ||
|| ngwf_gradient_batch                  :   220     3592.14s   4.186%  ------ ||
|| ngwf_gradient_lnv                    :    20     3836.22s   4.470%  ------ ||
|| potential_apply_to_ngwf_batch        :  2299     4312.01s   5.025%  ------ ||
|| density_fftbox_interpolate_multiply  : 66420     4933.47s   5.749%  ------ ||
|| xc_energy_potential                  :   406     5266.92s   6.137%  ------ ||
|| integrals_locpot_dbl_grid            :   209     5522.84s   6.435%  ------ ||
|| density_batch_interp_deposit         :  4455     7920.10s   9.229%  ------ ||
|| dl_mg_solver_calls                   :   406     8680.63s  10.115%  ------ ||
|| nlxc_vdw_energy                      :   810     8771.40s  10.221%  ------ ||
|| density_on_dbl_grid                  :   405    10159.27s  11.838%  ------ ||
|| potential_apply_to_fftbox_batch      :  6600    11710.40s  13.645%  ------ ||
|| multigrid_calculate_hartree          :   406    12053.80s  14.046%  ------ ||
|| integrals_div_locpot_grad_functions  :   200    17458.43s  20.343%  ------ ||
|| ke_density_fftbox_interpolate_multipl: 66420    19675.75s  22.927%  ------ ||
|| ke_density_batch_interp_deposit      :  4455    22800.16s  26.568%  ------ ||
|| fourier_apply_box                    : 1.506M   25543.78s  29.765% 801.858 ||
|| ke_density_on_dbl_grid               :   405    26454.37s  30.826%  ------ ||
|| hamiltonian_lhxc_calculate           :   401    53998.31s  62.921%  ------ ||
|| lnv_denskernel_optimise_cg           :    20    77091.93s  89.831%  ------ ||
|| ngwf_cg_optimise                     :     2    84987.20s  99.030%  ------ ||
|| total_time                           :     1    85819.30s 100.000%  ------ ||
================================================================================
Overhead of generating timer report: 
- 0 ms averaging over threads,
- 7 ms ensuring consistency across MPI ranks,
- 0 ms printing in order.

Job completed: 04-02-2020 23:52 (-0000)

