 +---------------------------------------------------------------+
 |                                                               |
 |        ####### #     # ####### ####### ####### ######         |
 |        #     # ##    # #          #    #       #     #        |
 |        #     # # #   # #          #    #       #     #        |
 |        #     # #  #  # #####      #    #####   ######         |
 |        #     # #   # # #          #    #       #              |
 |        #     # #    ## #          #    #       #              |
 |        ####### #     # #######    #    ####### #              |
 |                                                               |
 |        Linear-Scaling Ab Initio Total Energy Program          |
 |                                                               |
 |          Release for academic collaborators of ODG            |
 |                                             Version 5.3.2.6.  |
 |                                                               |
 +---------------------------------------------------------------+
 |                                                               |
 |  Authors:                                                     |
 |  Jacek Dziedzic, Peter D. Haynes, Nicholas D. M. Hine,        |
 |  Arash. A. Mostofi, Mike C. Payne and Chris-Kriton Skylaris   |
 |                                                               |
 |  Contributors:                                                |
 |  J. Aarons, L. Andrinopoulos, P. W. Avraam, R. A. Bell,       |
 |  A. Bhandari, G. A. Bramley, R. J. Charlton, S. J. Clark,     |
 |  R. J. Clements, G. C. Constantinescu, F. Corsetti,           |
 |  N. Corsini, O. Dieguez, S. M. M. Dubois, K. K. B. Duff,      |
 |  J. M. Escartin, A. Greco, H. Helal, Q. O. Hill, L. P. Lee,   |
 |  J.-H. Li, E. B. Linscott, G. Moynihan, D. D. O`Regan,        |
 |  O. K. Okan, M. J. S. Phipps, C. J. Pickard,                  |
 |  J. C. A. Prentice, M. I. J. Probert, L. E. Ratcliff,         |
 |  M. Robinson, A. Ruiz Serrano, J. S. Spencer, E. W. Tait,     |
 |  G. Teobaldi, D. Turban, V. Vitale, K. A. Wilkinson,          |
 |  C. Weber, J. C. Womack, N. Yeung and T. J. Zuehlsdorff       |
 |                                                               |
 |                                   Copyright (c) 2004-2019     |
 |                                                               |
 |  Please cite:                                                 |
 |  "Introducing ONETEP: Linear-scaling density functional       |
 |   simulations on parallel computers".                         |
 |   C.-K. Skylaris, P. D. Haynes, A. A. Mostofi, M. C. Payne.   |
 |   J. Chem. Phys. 122 084119 (2005).                           |
 |                                                               |
 |          in all publications arising from your use of ONETEP. |
 |                                                               |
 +---------------------------------------------------------------+
 |                                                               |
 |   ONETEP is based on developments described in the following  |
 |   publications:                                               |
 |                                                               |
 |  "Nonorthogonal generalized Wannier function pseudopotential  |
 |   plane-wave method".                                         |
 |   C.-K. Skylaris, A. A. Mostofi, P. D. Haynes, O. Dieguez,    |
 |   M. C. Payne.                                                |
 |   Phys. Rev. B 66 035119 (2002).                              |
 |                                                               |
 |  "Preconditioned iterative minimization for linear-scaling    |
 |   electronic structure calculations".                         |
 |   A. A. Mostofi, P. D. Haynes, C.-K. Skylaris, M. C. Payne.   |
 |   J. Chem. Phys. 119(17), pp.8842-8848 (2003).                |
 |                                                               |
 |  "Total-energy calculations on a real space grid with         |
 |   localized functions and a plane-wave basis".                |
 |   A. A. Mostofi, C.-K. Skylaris, P. D. Haynes, M. C. Payne.   |
 |   Comput. Phys. Commun. 147, pp.788-802 (2002).               |
 |                                                               |
 |  "Accurate kinetic energy evaluation in electronic structure  |
 |   calculations with localized functions on real space grids"  |
 |   C.-K. Skylaris, A. A. Mostofi, P. D. Haynes, C. J. Pickard, |
 |   M. C. Payne.                                                |
 |   Comput. Phys. Commun. 140, pp.315-322 (2001).               |
 |                                                               |
 |  "Accurate ionic forces and geometry optimization in linear-  |
 |   scaling density-functional theory with local orbitals"      |
 |   N. D. M. Hine, M. Robinson, P. D. Haynes, C.-K. Skylaris,   |
 |   M. C. Payne, and A. A. Mostofi.                             |
 |   Phys. Rev. B 83 195102 (2011).                              |
 |                                                               |
 +---------------------------------------------------------------+

Job started: 23-03-2020 21:42 (-0000)
 
Reading parameters from file "complex_11881.dat" ...... done

If your calculation crashes here, before "Checking processes and threads..."
is displayed, then your stack size is insufficient.
If so, use "ulimit -s unlimited" at runtime.
You can disable this check with "check_stack_size F".

Checking processes and threads...
   Determining the default number of threads...
      No default threads set at compilation time: defaulting to 1.
      OpenMP library call suggests 4 threads.
      Hybrid MPI-OpenMP compilation detected.
      Number of MPI processes > 1.
      OMP_NUM_THREADS environment variable present and
      its value matches the one obtained from the OpenMP library call.
      Using this value as default.
      Default threads: 4
      Default applies to threads_max and threads_num_fftboxes.
      Settings in the input file override this default.
   ... done

   Running with 40 MPI processes.
   There are 10 MPI processes running on the same node as the root process.
   Each MPI process is using: 
               1 threads for simulation cell FFTs.
               1 threads for parallel FFT box operations.
               4 threads for loops over batched FFT box operations.
               4 threads in other parallel regions.
... done

Basic input checks...... done

Reading geometry and species blocks from file "complex_11881.dat" ...
  <species_atomic_set> block not found: NGWF initialisation set to SOLVE
IS: Dielectric excluded regions:
    - NONE.
    
  Number of PPD points along a3 set to 1.  This is 
  the default value, it may have been provided also in the input file.
... done
 Writing xyz coordinates to file "complex_11881.xyz" ... done


--------------------------------------------------------------------------------
---------------------------------- INPUT FILE ----------------------------------
--------------------------------------------------------------------------------

cutoff_energy       : 800 eV                                                    
xc_functional B97M-V                                                            
task SINGLEPOINT                                                                
write_xyz true                                                                  
output_detail VERBOSE                                                           
ngwf_threshold_orig : 0.000002                                                  
kernel_cutoff       : 1000                                                      
k_zero              : 3.5                                                       
elec_cg_max 0                                                                   
occ_mix 1.0                                                                     
dispersion 0                                                                    
maxit_ngwf_cg 40                                                                
minit_lnv 10                                                                    
maxit_lnv 10                                                                    
write_denskern T                                                                
write_tightbox_ngwfs T                                                          
charge 9                                                                        
is_implicit_solvent T                                                           
is_auto_solvation T                                                             
is_include_apolar T                                                             
is_smeared_ion_rep T                                                            
is_solvent_surf_tension 4.7624E-5 Ha/bohr**2                                    
is_apolar_scaling_factor 0.281075                                               
is_solvation_beta 1.3                                                           
is_density_threshold 0.00035                                                    
is_bulk_permittivity 78.54                                                      
is_dielectric_model fix_initial                                                 
is_smeared_ion_width 0.8                                                        
mg_defco_fd_order 8                                                             
is_bc_coarseness 10                                                             
is_bc_surface_coarseness 1                                                      
fine_grid_scale 2.0                                                             
%block species                                                                  
N   N   7 4 8.0                                                                 
H   H   1 1 8.0                                                                 
C   C   6 4 8.0                                                                 
S   S  16 9 8.0                                                                 
O   O   8 4 8.0                                                                 
%endblock species                                                               
%block species_pot                                                              
N   N_00.recpot                                                                 
H   H_04.recpot                                                                 
C   C_01.recpot                                                                 
S   S_00.recpot                                                                 
O   O_02.recpot                                                                 
%endblock species_pot                                                           
%block lattice_cart                                                             
137.614   0.000   0.000                                                         
0.000 142.646   0.000                                                           
0.000   0.000   160.855                                                         
%endblock lattice_cart                                                          
%block positions_abs                                                            
     Hash =  -000000682139824910051691
%endblock positions_abs                                                         

--------------------------------------------------------------------------------
-------------------------------- END INPUT FILE --------------------------------
--------------------------------------------------------------------------------


 
 ESDF WARNING(1): "kernelcutoff" (esdf_physical) has no units. Assume "bohr".
 ESDF WARNING(2): "kzero" (esdf_physical) has no units. Assume "1/bohr".
 ESDF WARNING(3
 ): "issmearedionwidth" (esdf_physical) has no units. Assume "bohr".
<<<<<<<<<<<<<<<<<<<<<<<<<<<<<<<<< Full system >>>>>>>>>>>>>>>>>>>>>>>>>>>>>>>>>>
<<<<<<<<<<<<<<<<<<<<<<<<< Pseudopotential information >>>>>>>>>>>>>>>>>>>>>>>>>>
File: N_00.recpot [ 2001 points up to Gmax=  52.9 (1/bohr)]
  Atomic number:  7;  ionic charge:  5.000000
    Shell 1: l = 0; rc = 1.48 bohr
File: H_04.recpot [ 2001 points up to Gmax=  52.9 (1/bohr)]
  Atomic number:  1;  ionic charge:  1.000000
    Local potential
File: C_01.recpot [ 2001 points up to Gmax=  52.9 (1/bohr)]
  Atomic number:  6;  ionic charge:  4.000000
    Shell 1: l = 0; rc = 1.48 bohr
File: S_00.recpot [ 2001 points up to Gmax=  52.9 (1/bohr)]
  Atomic number: 16;  ionic charge:  6.000000
    Shell 1: l = 0; rc = 1.90 bohr
    Shell 2: l = 2; rc = 1.84 bohr
File: O_02.recpot [ 2001 points up to Gmax=  52.9 (1/bohr)]
  Atomic number:  8;  ionic charge:  6.000000
    Shell 1: l = 0; rc = 1.31 bohr
<<<<<<<<<<<<<<<<<<<<<<<<<<<<<<<<<<<<<<<<>>>>>>>>>>>>>>>>>>>>>>>>>>>>>>>>>>>>>>>>

-------------------------- Atom counting information ---------------------------
Symbol    Natoms    Nngwfs    Nprojs
  N        236       944       236
  H       1319      1319         0
  C        817      3268       817
  S          6        54        36
  O        240       960       240
.......   ......    ......    ......
Totals:   2618      6545      1329
--------------------------------------------------------------------------------

=============================== PSINC grid sizes ===============================
                      Simulation cell:  273 x 286 x 320
                              FFT-box:   99 x 105 x  99
                                  PPD:    7 x  11 x   1
Grid space d1=  0.504080586081a0 (KE cutoff=  29.89538Eh = 813.49465eV)
Grid space d2=  0.498762237762a0 (KE cutoff=  30.53633Eh = 830.93588eV)
Grid space d3=  0.502671875000a0 (KE cutoff=  30.06317Eh = 818.06059eV)
================================================================================

********************* Fourier parallelisation information **********************
       Coarse grid (whole simulation cell) dimensions:    273   286   320
          Real-space ('12') slabs/node (min max mean):      8     8     8
         Recip-space ('23') slabs/node (min max mean):      3     4     3
********************************************************************************

********************* Fourier parallelisation information **********************
       Double grid (whole simulation cell) dimensions:    546   572   640
          Real-space ('12') slabs/node (min max mean):     16    16    16
         Recip-space ('23') slabs/node (min max mean):      6     7     6
********************************************************************************
ONETEP fine grid is 546 x 572 x 640 gridpoints, 137.6140 x 142.6460 x 160.8550 bohr.
FD multigrid is     545 x 569 x 633 gridpoints, 137.3620 x 141.8979 x 159.0956 bohr.


Calculating local pseudopotential in open BC on a radial grid ...
Discrepancy between calculated realspace psloc and -Z/x on [5a0,255.264a0]:
max |rel. diff| # avg |rel. diff| #  avg rel. diff #  f # pseudopotential file
 0.000296759711    0.000009439468   0.000000085927   54  'N_00.recpot'
 0.000490027943    0.000021572324  -0.000000031900   54  'H_04.recpot'
 0.000320795249    0.000014598087   0.000000111901   54  'C_01.recpot'
 0.000388730920    0.000016096375   0.000000514750   54  'S_00.recpot'
 0.000828383344    0.000035421288   0.000000087443   54  'O_02.recpot'
... done
 WARNING: meta-GGA functionality under development.
          Using this functional is experimental.
          Minimum tau threshold, xc_min_tau =   1.00000000E-12
 WARNING: Using alternative XC functional PBE for 
          radial densities (xc_radial).

Atom SCF Calculation for N  : Z (AE atom) =   7 : Z (PS atom) =   5
Config String:
Orbitals (num,occ):  2     2.00 3.00
Orbitals   (num,l):  2        0    1
Real-space Grid (nr,dr,rmax): 1203    0.0066555740    8.0000000000
Spherical Bessel Basis (nsws,lmax,cutoff):   47    1  176.3951722778
Confining potential (l,width,scale):  0    3.0000000000  100.0000000000
Confining potential (l,width,scale):  1    3.0000000000  100.0000000000
  1         -4.7312375307   -3.4155304497    7.0523828109   -1.9351020946
  2         -9.7309464766   -2.0532547791    8.2966052865   -2.2494486027
  3         -9.6627394379   -2.1124926340    8.2327997121   -2.2369778124
  4         -9.6814993499   -2.1215521045    8.2229805960   -2.2365178421
  5         -9.6843326483   -2.1250939529    8.2191374534   -2.2362718126
  6         -9.6859628709   -2.1267894855    8.2172963573   -2.2362066344
  7         -9.6867347035   -2.1276425665    8.2163697352   -2.2361903369
  8         -9.6870802100   -2.1280764625    8.2158983890   -2.2361891460
  9         -9.6872290423   -2.1282977424    8.2156580222   -2.2361920435
 10         -9.6872901988   -2.1284107021    8.2155353368   -2.2361953393
 11         -9.6873135296   -2.1284684031    8.2154726809   -2.2361979819
 12         -9.6873212476   -2.1284978948    8.2154406648   -2.2361998431
 13         -9.6873229586   -2.1285129774    8.2154242957   -2.2362010676
 14         -9.6873226456   -2.1285206957    8.2154159216   -2.2362018403
 15         -9.6873218534   -2.1285246479    8.2154116349   -2.2362023142
 16         -9.6873212599   -2.1285262679    8.2154098784   -2.2362025420
 17         -9.6873207834   -2.1285272564    8.2154088068   -2.2362026955
 18         -9.6873204210   -2.1285278597    8.2154081529   -2.2362027982
 19         -9.6873201550   -2.1285282280    8.2154077538   -2.2362028667
 20         -9.6873199645   -2.1285284529    8.2154075102   -2.2362029121
 21         -9.6873198305   -2.1285285903    8.2154073614   -2.2362029421
 22         -9.6873197377   -2.1285286742    8.2154072705   -2.2362029618
Atom SCF converged after  22 iterations to a total energy of     -9.68731974

Atom SCF Calculation for H  : Z (AE atom) =   1 : Z (PS atom) =   1
Config String:
Orbitals (num,occ):  1     1.00
Orbitals   (num,l):  1        0
Real-space Grid (nr,dr,rmax): 1203    0.0066555740    8.0000000000
Spherical Bessel Basis (nsws,lmax,cutoff):   47    0  176.3951722778
Confining potential (l,width,scale):  0    3.0000000000  100.0000000000
  1         -0.3194257691   -0.2393854593    0.2820953124   -0.2424203209
  2         -0.3951823392   -0.2377116493    0.2886404059   -0.2475147891
  3         -0.4317044583   -0.2352244387    0.2921333887   -0.2514046172
  4         -0.4470703708   -0.2341892222    0.2934391879   -0.2531009782
  5         -0.4532132900   -0.2338556667    0.2938388426   -0.2537313520
  6         -0.4556579251   -0.2337612552    0.2939448584   -0.2539550462
  7         -0.4566418315   -0.2337377355    0.2939680120   -0.2540342273
  8         -0.4570437922   -0.2337331116    0.2939708287   -0.2540627372
  9         -0.4572102946   -0.2337328328    0.2939698291   -0.2540732650
 10         -0.4572800424   -0.2337332404    0.2939687193   -0.2540772588
 11         -0.4573095100   -0.2337335791    0.2939680317   -0.2540788122
 12         -0.4573220379   -0.2337337762    0.2939676699   -0.2540794294
 13         -0.4573273880   -0.2337338775    0.2939674931   -0.2540796787
 14         -0.4573296803   -0.2337339266    0.2939674099   -0.2540797808
 15         -0.4573306647   -0.2337339495    0.2939673718   -0.2540798230
 16         -0.4573310882   -0.2337339601    0.2939673545   -0.2540798406
 17         -0.4573312706   -0.2337339649    0.2939673467   -0.2540798479
 18         -0.4573313493   -0.2337339670    0.2939673433   -0.2540798510
Atom SCF converged after  18 iterations to a total energy of     -0.45733135

Atom SCF Calculation for C  : Z (AE atom) =   6 : Z (PS atom) =   4
Config String:
Orbitals (num,occ):  2     2.00 2.00
Orbitals   (num,l):  2        0    1
Real-space Grid (nr,dr,rmax): 1203    0.0066555740    8.0000000000
Spherical Bessel Basis (nsws,lmax,cutoff):   47    1  176.3951722778
Confining potential (l,width,scale):  0    3.0000000000  100.0000000000
Confining potential (l,width,scale):  1    3.0000000000  100.0000000000
  1         -5.2976922011   -1.3069684169    4.5135249990   -1.4493313817
  2         -5.3721716256   -1.3429755895    4.4750154450   -1.4361613026
  3         -5.3809959565   -1.3617365618    4.4541655428   -1.4305930207
  4         -5.3918938866   -1.3667928461    4.4484735100   -1.4294652294
  5         -5.3956096428   -1.3688539142    4.4461376126   -1.4290734646
  6         -5.3968271862   -1.3696852393    4.4451910874   -1.4289366866
  7         -5.3972028401   -1.3700178062    4.4448112275   -1.4288900460
  8         -5.3973067903   -1.3701500158    4.4446598370   -1.4288749220
  9         -5.3973286940   -1.3702023868    4.4445997329   -1.4288704293
 10         -5.3973289850   -1.3702230869    4.4445759233   -1.4288693188
 11         -5.3973254264   -1.3702312560    4.4445665049   -1.4288691775
 12         -5.3973224003   -1.3702344755    4.4445627836   -1.4288692549
 13         -5.3973208708   -1.3702354890    4.4445616088   -1.4288693270
 14         -5.3973198783   -1.3702360102    4.4445610034   -1.4288693814
 15         -5.3973192535   -1.3702362780    4.4445606917   -1.4288694190
 16         -5.3973188684   -1.3702364155    4.4445605313   -1.4288694437
 17         -5.3973186349   -1.3702364860    4.4445604489   -1.4288694595
 18         -5.3973184951   -1.3702365221    4.4445604065   -1.4288694693
 19         -5.3973184122   -1.3702365405    4.4445603848   -1.4288694753
Atom SCF converged after  19 iterations to a total energy of     -5.39731841

Atom SCF Calculation for S  : Z (AE atom) =  16 : Z (PS atom) =   6
Config String:
Orbitals (num,occ):  3     2.00 4.00 0.00
Orbitals   (num,l):  3        0    1    2
Real-space Grid (nr,dr,rmax): 1203    0.0066555740    8.0000000000
Spherical Bessel Basis (nsws,lmax,cutoff):   47    2  176.3951722778
Confining potential (l,width,scale):  0    3.0000000000  100.0000000000
Confining potential (l,width,scale):  1    3.0000000000  100.0000000000
Confining potential (l,width,scale):  2    3.0000000000  100.0000000000
  1        -12.4735062396   -1.0328741412   10.1554312477   -2.4512393157
  2         -9.9458301913   -2.4607392455    8.3041325857   -2.0306994528
  3        -10.1450417646   -2.2931184565    8.4831893826   -2.0812538287
  4        -10.1528335592   -2.2733105793    8.5050388867   -2.0896035179
  5        -10.1571940363   -2.2633716629    8.5160794258   -2.0939370707
  6        -10.1594380571   -2.2584938667    8.5215163935   -2.0961289008
  7        -10.1605856507   -2.2561081821    8.5241804044   -2.0972291378
  8        -10.1611799191   -2.2549395235    8.5254868240   -2.0977806248
  9        -10.1614918752   -2.2543658586    8.5261285885   -2.0980571586
 10        -10.1616572884   -2.2540839121    8.5264441898   -2.0981959233
 11        -10.1617455602   -2.2539453058    8.5265994231   -2.0982656006
 12        -10.1617928447   -2.2538772062    8.5266757320   -2.0983006047
 13        -10.1618182292   -2.2538437891    8.5267131983   -2.0983181961
 14        -10.1618318741   -2.2538274201    8.5267315620   -2.0983270391
 15        -10.1618392144   -2.2538194197    8.5267405433   -2.0983314852
 16        -10.1618431651   -2.2538155200    8.5267449245   -2.0983337210
 17        -10.1618452923   -2.2538136252    8.5267470551   -2.0983348455
 18        -10.1618464380   -2.2538127080    8.5267480875   -2.0983354110
 19        -10.1618470552   -2.2538122659    8.5267485856   -2.0983356955
 20        -10.1618473878   -2.2538120540    8.5267488248   -2.0983358386
 21        -10.1618475670   -2.2538119530    8.5267489389   -2.0983359106
 22        -10.1618476637   -2.2538119053    8.5267489929   -2.0983359468
Atom SCF converged after  22 iterations to a total energy of    -10.16184766

Atom SCF Calculation for O  : Z (AE atom) =   8 : Z (PS atom) =   6
Config String:
Orbitals (num,occ):  2     2.00 4.00
Orbitals   (num,l):  2        0    1
Real-space Grid (nr,dr,rmax): 1203    0.0066555740    8.0000000000
Spherical Bessel Basis (nsws,lmax,cutoff):   47    1  176.3951722778
Confining potential (l,width,scale):  0    3.0000000000  100.0000000000
Confining potential (l,width,scale):  1    3.0000000000  100.0000000000
  1         -1.8735052164   -7.5539365035   10.1554312477   -2.4512393157
  2        -16.0318313751   -3.1285771268   13.6395848164   -3.2358799643
  3        -15.9524020423   -3.0762819706   13.6967272503   -3.2536856837
  4        -15.8521515939   -3.0781493909   13.6951909330   -3.2561700440
  5        -15.8357139793   -3.0748501933   13.6988803334   -3.2580493133
  6        -15.8246052853   -3.0740779781   13.6997881576   -3.2588327446
  7        -15.8189019501   -3.0737449687   13.7001869911   -3.2592378801
  8        -15.8159785510   -3.0736026016   13.7003615168   -3.2594475790
  9        -15.8144776168   -3.0735437994   13.7004360379   -3.2595560735
 10        -15.8137058024   -3.0735207882   13.7004667348   -3.2596122456
 11        -15.8133083127   -3.0735125946   13.7004786868   -3.2596413656
 12        -15.8131032938   -3.0735102195   13.7004828997   -3.2596564858
 13        -15.8129973902   -3.0735099286   13.7004840891   -3.2596643505
 14        -15.8129426040   -3.0735102506   13.7004842061   -3.2596684489
 15        -15.8129142203   -3.0735106556   13.7004840157   -3.2596705887
 16        -15.8128994940   -3.0735109855   13.7004837906   -3.2596717080
 17        -15.8128918425   -3.0735112169   13.7004836103   -3.2596722946
 18        -15.8128878614   -3.0735113674   13.7004834848   -3.2596726026
 19        -15.8128857871   -3.0735114608   13.7004834035   -3.2596727646
 20        -15.8128847048   -3.0735115170   13.7004833533   -3.2596728500
 21        -15.8128841394   -3.0735115501   13.7004833231   -3.2596728951
 22        -15.8128838436   -3.0735115693   13.7004833054   -3.2596729190
 23        -15.8128836887   -3.0735115802   13.7004832951   -3.2596729316
 24        -15.8128836074   -3.0735115864   13.7004832893   -3.2596729383
Atom SCF converged after  24 iterations to a total energy of    -15.81288361

========================== Calculation in vacuum ==============================
= Adjusting the following parameters: 
= is_implicit_solvent: F
= is_include_apolar: F
= write_denskern: T
= write_tightbox_ngwfs: T
= restart read filename prefix: ""
= restart write filename prefix: "vacuum_"
===============================================================================

Determining parallel strategy ...
... using space-filling curve
... NGWF load balancing: max    164;  min    163;  average    164
... Projector load balancing: max     36;  min     32;  average     33
... done
Calculating direct Ion-Ion energy ...
Ion-Ion Energy        :    835651.18980354978703
Basis initialisation ...... NGWF spheres initialised
... Projector spheres initialised
... NGWF tight boxes initialised
... Tight-boxes gathered
... NGWF basis size (local,global):    1126676  44945315
... Nonlocal pseudopotential projector initialisation
... done

========================== Sparse matrix information ===========================
                        Overlap matrix filling:   6.79%
                        Density kernel filling: 100.00%
              NGWF-Proj overlap matrix filling:   1.78%
                    Hamiltonian matrix filling:   7.69%
                  NGWF diagonal matrix filling:   0.05%
                             KS matrix filling: 100.00% 
                           KSKS matrix filling: 100.00% 
================================================================================

Sparse matrix initialisation ... done

Generating smeared ion density ... done
Smeared ion self correction:     -14534.963309
Smeared ion non-self correction: -835602.825383
NGWF initialisation ...... done
============ Calculation of NGWF S^-1 using Hotelling algorithm ================ 
         Iteration  |  Frobenius norm and Maximum abs value    (of I-S*S_n^-1)   
               1       0.78761168E+02     0.98297142E+00
               2       0.76932780E+02     0.96635155E+00
               3       0.73961378E+02     0.93427314E+00
               4       0.69719273E+02     0.87437075E+00
               5       0.64417083E+02     0.77182582E+00
               6       0.58443598E+02     0.70325664E+00
               7       0.52418854E+02     0.66951506E+00
               8       0.46851922E+02     0.64317705E+00
               9       0.40814793E+02     0.60313846E+00
              10       0.32610218E+02     0.53351726E+00
              11       0.22066097E+02     0.42496559E+00
              12       0.11391160E+02     0.28298523E+00
              13       0.38069669E+01     0.12815527E+00
              14       0.61124445E+00     0.29275117E-01
              15       0.29296105E-01     0.19762488E-02
              16       0.15761142E-03     0.12755718E-04
              17       0.77612171E-08     0.78246065E-09
              18       0.94496663E-13     0.47739590E-14
================================================================================
Calculating local pseudopotential in open BC on the fine real space grid ...
... done

MG BCs: +ve charge blocks (gridpoints):     20679 (   16235433).
MG BCs: -ve charge blocks (gridpoints):      8181 (    1102279).
MG BCs:     Elided blocks (gridpoints):    179961 (  178958753).
MG BCs: Computational effort saved:  99.9853%.
MG BCs: Charge after coarse-graining:           -9.0002290.
MG DL_MG: Calling solver with defect correction order = 8
MG DL_MG: Solver finished
MG Hartree energy from (\int phi*rho dr):              1472.096600
MG Hartree energy from (\int eps (grad phi)^2 dr):     1471.484239
MG Discrepancy due to finite box and discretization:     -0.612361 (  -0.04160%)
MG Correction to account for finite box:                  0.464765
MG Remaining discrepancy, due to discretization:         -0.147596 (  -0.01003%)
 WARNING: xc_energy_potential using alternative initial XC functional PBE.
Up spin density kernel initialisation ... 
======= Optimisation of K by Palser-Manolopoulos canonical purification ======== 
         Iteration  |  Band structure energy |    c_n   
               1       -2599.97441792664949    0.5263670
               2       -2776.89328177235711    0.5168046
               3       -2957.59021020585988    0.5155852
               4       -3107.62201555218280    0.5295451
               5       -3199.18759352257803    0.5655343
               6       -3237.26418739714336    0.6091407
               7       -3250.27807406217835    0.6199291
               8       -3255.95314817963026    0.6197777
               9       -3258.67171061296040    0.6371330
              10       -3259.77581401514726    0.6594310
              11       -3260.21271539525969    0.6600555
              12       -3260.41851403101282    0.6349099
              13       -3260.52858248019857    0.5846285
              14       -3260.58718355276142    0.5321255
              15       -3260.61012516289975    0.5245965
              16       -3260.61452630602435    0.5539422
              17       -3260.61565330318444    0.5749405
              18       -3260.61619419796898    0.5552164
              19       -3260.61657794397524    0.5204979
              20       -3260.61687879913006    0.5027004
              21       -3260.61704331332066    0.5000449
              22       -3260.61708191262233    0.5000000
              23       -3260.61708360025841    0.5000010
              24       -3260.61708360327339    0.5000010
Termination criterion satisfied: band energy change below threshold.
Final occupancy bounds: [    0.00000000000000:    1.00000000000000]
Closest occupancy to 0.5:     1.00000000000000
================================================================================
... done

Writing density kernel to file "complex_11881.vacuum_dkn" ... done

>>> Optimising kernel for current NGWFs:
   Initial electron number for spin 1:    7234.00000000
     Final electron number for spin 1:    7234.00000000

=================== Penalty functional idempotency correction ==================
 RMS occupancy error at iteration   1:  0.000000 (step -0.5000 Ne1=   7234.0000)
            Final RMS occupancy error   :  0.000000 (Ne1=   7234.0000)
               Final occupancy bounds   : [  0.0000,  1.0000]
================================================================================

................................................................................
<<<<<<<<<<<<<< LNV (Original version) density kernel optimisation >>>>>>>>>>>>>>
~~~~~~~~~~~~~~~~~~~~~~~~~~~~~~~~~~~~~~~~~~~~~~~~~~~~~~~~~~~~~~~~~~~~~~~~~~~~~~~~
   iter  |      energy (Eh)       | rms gradient |  commutator  |   dE (Eh)
MG BCs: +ve charge blocks (gridpoints):     31344 (   17367168).
MG BCs: -ve charge blocks (gridpoints):      8519 (    1136521).
MG BCs:     Elided blocks (gridpoints):    169287 (  177792776).
MG BCs: Computational effort saved:  99.9797%.
MG BCs: Charge after coarse-graining:           -9.0009783.
MG DL_MG: Calling solver with defect correction order = 8
MG DL_MG: Solver finished
MG Hartree energy from (\int phi*rho dr):              1427.605255
MG Hartree energy from (\int eps (grad phi)^2 dr):     1426.937199
MG Discrepancy due to finite box and discretization:     -0.668056 (  -0.04680%)
MG Correction to account for finite box:                  0.478688
MG Remaining discrepancy, due to discretization:         -0.189368 (  -0.01326%)
      ideal mu1:      -0.736100446268
             Q0:  -11530.758617206942
             G0:    -128.551739299110
   RMS gradient:       0.001732324819
MG BCs: +ve charge blocks (gridpoints):     31328 (   17442945).
MG BCs: -ve charge blocks (gridpoints):      8405 (    1113117).
MG BCs:     Elided blocks (gridpoints):    169302 (  177740403).
MG BCs: Computational effort saved:  99.9798%.
MG BCs: Charge after coarse-graining:           -9.0009991.
MG DL_MG: Calling solver with defect correction order = 8
MG DL_MG: Solver finished
MG Hartree energy from (\int phi*rho dr):              1449.021288
MG Hartree energy from (\int eps (grad phi)^2 dr):     1448.369468
MG Discrepancy due to finite box and discretization:     -0.651820 (  -0.04498%)
MG Correction to account for finite box:                  0.477625
MG Remaining discrepancy, due to discretization:         -0.174195 (  -0.01202%)
     Trial step:       0.500000000000
             Q1:  -11543.376685369993
 Quadratic coef:      51.657801486504
 Linear coef   :     -64.275869649555
           Qmin:  -11550.752632149128
Quadratic minimum step length (  0.311065646427) accepted
    Initial Ne1:    7234.00000000
      Final Ne1:    7234.00000000

=================== Penalty functional idempotency correction ==================
 RMS occupancy error at iteration   1:  0.003278 (step -0.4888 Ne1=   7234.0000)
 RMS occupancy error at iteration   2:  0.000028 (step -0.5002 Ne1=   7234.0000)
            Final RMS occupancy error   :  0.000000 (Ne1=   7234.0000)
               Final occupancy bounds   : [  0.0000,  1.0000]
================================================================================

    1        -1.153075861721E+04     1.7323E-03     1.5673E-03
MG BCs: +ve charge blocks (gridpoints):     31339 (   17415581).
MG BCs: -ve charge blocks (gridpoints):      8451 (    1122478).
MG BCs:     Elided blocks (gridpoints):    169292 (  177758406).
MG BCs: Computational effort saved:  99.9797%.
MG BCs: Charge after coarse-graining:           -9.0009911.
MG DL_MG: Calling solver with defect correction order = 8
MG DL_MG: Solver finished
MG Hartree energy from (\int phi*rho dr):              1434.303180
MG Hartree energy from (\int eps (grad phi)^2 dr):     1433.646071
MG Discrepancy due to finite box and discretization:     -0.657109 (  -0.04581%)
MG Correction to account for finite box:                  0.477898
MG Remaining discrepancy, due to discretization:         -0.179210 (  -0.01249%)
      ideal mu1:      -0.780189038719
             Q0:  -11551.150945542147
             G0:     -11.693819231791
   RMS gradient:       0.000518604186
MG BCs: +ve charge blocks (gridpoints):     31325 (   17432074).
MG BCs: -ve charge blocks (gridpoints):      8420 (    1115365).
MG BCs:     Elided blocks (gridpoints):    169306 (  177749026).
MG BCs: Computational effort saved:  99.9798%.
MG BCs: Charge after coarse-graining:           -9.0009957.
MG DL_MG: Calling solver with defect correction order = 8
MG DL_MG: Solver finished
MG Hartree energy from (\int phi*rho dr):              1439.692719
MG Hartree energy from (\int eps (grad phi)^2 dr):     1439.039637
MG Discrepancy due to finite box and discretization:     -0.653082 (  -0.04536%)
MG Correction to account for finite box:                  0.476848
MG Remaining discrepancy, due to discretization:         -0.176233 (  -0.01224%)
     Trial step:       0.394376499317
             Q1:  -11553.827454630635
 Quadratic coef:       1.935258403792
 Linear coef   :      -4.611767492278
           Qmin:  -11553.898433857037
Quadratic minimum step length (  0.469904358949) accepted
    Initial Ne1:    7233.99980353
      Final Ne1:    7234.00000000

=================== Penalty functional idempotency correction ==================
 RMS occupancy error at iteration   1:  0.001593 (step -0.4938 Ne1=   7234.0000)
 RMS occupancy error at iteration   2:  0.000012 (step -0.5004 Ne1=   7234.0000)
            Final RMS occupancy error   :  0.000000 (Ne1=   7234.0000)
               Final occupancy bounds   : [  0.0000,  1.0000]
================================================================================

    2        -1.155115094554E+04     5.1860E-04     4.6921E-04    -2.0392E+01
MG BCs: +ve charge blocks (gridpoints):     31332 (   17435124).
MG BCs: -ve charge blocks (gridpoints):      8417 (    1114075).
MG BCs:     Elided blocks (gridpoints):    169299 (  177747266).
MG BCs: Computational effort saved:  99.9798%.
MG BCs: Charge after coarse-graining:           -9.0009967.
MG DL_MG: Calling solver with defect correction order = 8
MG DL_MG: Solver finished
MG Hartree energy from (\int phi*rho dr):              1440.755032
MG Hartree energy from (\int eps (grad phi)^2 dr):     1440.102674
MG Discrepancy due to finite box and discretization:     -0.652358 (  -0.04528%)
MG Correction to account for finite box:                  0.476658
MG Remaining discrepancy, due to discretization:         -0.175699 (  -0.01219%)
      ideal mu1:      -0.802399361504
             Q0:  -11553.935706960619
             G0:      -1.962655286164
   RMS gradient:       0.000212486522
MG BCs: +ve charge blocks (gridpoints):     31331 (   17436302).
MG BCs: -ve charge blocks (gridpoints):      8418 (    1113885).
MG BCs:     Elided blocks (gridpoints):    169300 (  177746278).
MG BCs: Computational effort saved:  99.9798%.
MG BCs: Charge after coarse-graining:           -9.0009969.
MG DL_MG: Calling solver with defect correction order = 8
MG DL_MG: Solver finished
MG Hartree energy from (\int phi*rho dr):              1440.042399
MG Hartree energy from (\int eps (grad phi)^2 dr):     1439.390731
MG Discrepancy due to finite box and discretization:     -0.651668 (  -0.04525%)
MG Correction to account for finite box:                  0.476156
MG Remaining discrepancy, due to discretization:         -0.175512 (  -0.01219%)
     Trial step:       0.430487207819
             Q1:  -11554.445093760965
 Quadratic coef:       0.335511193705
 Linear coef   :      -0.844897994052
           Qmin:  -11554.467621121566
Quadratic minimum step length (  0.542035236343) accepted
    Initial Ne1:    7233.99982611
      Final Ne1:    7234.00000000

=================== Penalty functional idempotency correction ==================
 RMS occupancy error at iteration   1:  0.000644 (step -0.4968 Ne1=   7234.0000)
 RMS occupancy error at iteration   2:  0.000004 (step -0.5000 Ne1=   7234.0000)
            Final RMS occupancy error   :  0.000000 (Ne1=   7234.0000)
               Final occupancy bounds   : [  0.0000,  1.0000]
================================================================================

    3        -1.155393570696E+04     2.1249E-04     1.9225E-04    -2.7848E+00
MG BCs: +ve charge blocks (gridpoints):     31332 (   17436532).
MG BCs: -ve charge blocks (gridpoints):      8418 (    1113932).
MG BCs:     Elided blocks (gridpoints):    169299 (  177746001).
MG BCs: Computational effort saved:  99.9798%.
MG BCs: Charge after coarse-graining:           -9.0009969.
MG DL_MG: Calling solver with defect correction order = 8
MG DL_MG: Solver finished
MG Hartree energy from (\int phi*rho dr):              1439.863043
MG Hartree energy from (\int eps (grad phi)^2 dr):     1439.211540
MG Discrepancy due to finite box and discretization:     -0.651503 (  -0.04525%)
MG Correction to account for finite box:                  0.476028
MG Remaining discrepancy, due to discretization:         -0.175475 (  -0.01219%)
      ideal mu1:      -0.805322262816
             Q0:  -11554.472930390039
             G0:      -0.468305532329
   RMS gradient:       0.000103999713
MG BCs: +ve charge blocks (gridpoints):     31330 (   17437133).
MG BCs: -ve charge blocks (gridpoints):      8409 (    1113816).
MG BCs:     Elided blocks (gridpoints):    169301 (  177745516).
MG BCs: Computational effort saved:  99.9798%.
MG BCs: Charge after coarse-graining:           -9.0009969.
MG DL_MG: Calling solver with defect correction order = 8
MG DL_MG: Solver finished
MG Hartree energy from (\int phi*rho dr):              1440.959084
MG Hartree energy from (\int eps (grad phi)^2 dr):     1440.307600
MG Discrepancy due to finite box and discretization:     -0.651484 (  -0.04521%)
MG Correction to account for finite box:                  0.475856
MG Remaining discrepancy, due to discretization:         -0.175629 (  -0.01219%)
     Trial step:       0.483052000754
             Q1:  -11554.597347613075
 Quadratic coef:       0.101798701320
 Linear coef   :      -0.226215924356
           Qmin:  -11554.598604008092
Quadratic minimum step length (  0.536716350236) accepted
    Initial Ne1:    7233.99995876
      Final Ne1:    7234.00000000

=================== Penalty functional idempotency correction ==================
 RMS occupancy error at iteration   1:  0.000287 (step -0.4953 Ne1=   7234.0000)
 RMS occupancy error at iteration   2:  0.000003 (step -0.5000 Ne1=   7234.0000)
            Final RMS occupancy error   :  0.000000 (Ne1=   7234.0000)
               Final occupancy bounds   : [  0.0000,  1.0000]
================================================================================

    4        -1.155447293039E+04     1.0400E-04     9.4094E-05    -5.3722E-01
MG BCs: +ve charge blocks (gridpoints):     31330 (   17437184).
MG BCs: -ve charge blocks (gridpoints):      8409 (    1113813).
MG BCs:     Elided blocks (gridpoints):    169301 (  177745468).
MG BCs: Computational effort saved:  99.9798%.
MG BCs: Charge after coarse-graining:           -9.0009969.
MG DL_MG: Calling solver with defect correction order = 8
MG DL_MG: Solver finished
MG Hartree energy from (\int phi*rho dr):              1441.081312
MG Hartree energy from (\int eps (grad phi)^2 dr):     1440.429829
MG Discrepancy due to finite box and discretization:     -0.651483 (  -0.04521%)
MG Correction to account for finite box:                  0.475837
MG Remaining discrepancy, due to discretization:         -0.175647 (  -0.01219%)
      ideal mu1:      -0.805011207156
             Q0:  -11554.599206851446
             G0:      -0.183351869970
   RMS gradient:       0.000065275495
MG BCs: +ve charge blocks (gridpoints):     31331 (   17436937).
MG BCs: -ve charge blocks (gridpoints):      8408 (    1114005).
MG BCs:     Elided blocks (gridpoints):    169300 (  177745523).
MG BCs: Computational effort saved:  99.9798%.
MG BCs: Charge after coarse-graining:           -9.0009965.
MG DL_MG: Calling solver with defect correction order = 8
MG DL_MG: Solver finished
MG Hartree energy from (\int phi*rho dr):              1440.728771
MG Hartree energy from (\int eps (grad phi)^2 dr):     1440.077153
MG Discrepancy due to finite box and discretization:     -0.651618 (  -0.04523%)
MG Correction to account for finite box:                  0.475813
MG Remaining discrepancy, due to discretization:         -0.175806 (  -0.01220%)
     Trial step:       0.509177677063
             Q1:  -11554.657295330428
 Quadratic coef:       0.035270200255
 Linear coef   :      -0.093358679237
           Qmin:  -11554.660985937799
Quadratic minimum step length (  0.673885533454) accepted
    Initial Ne1:    7233.99997940
      Final Ne1:    7234.00000000

=================== Penalty functional idempotency correction ==================
 RMS occupancy error at iteration   1:  0.000436 (step -0.4748 Ne1=   7234.0000)
 RMS occupancy error at iteration   2:  0.000010 (step -0.5000 Ne1=   7234.0000)
            Final RMS occupancy error   :  0.000000 (Ne1=   7234.0000)
               Final occupancy bounds   : [  0.0000,  1.0000]
================================================================================

    5        -1.155459920685E+04     6.5275E-05     5.9058E-05    -1.2628E-01
MG BCs: +ve charge blocks (gridpoints):     31328 (   17436823).
MG BCs: -ve charge blocks (gridpoints):      8409 (    1114107).
MG BCs:     Elided blocks (gridpoints):    169303 (  177745535).
MG BCs: Computational effort saved:  99.9798%.
MG BCs: Charge after coarse-graining:           -9.0009964.
MG DL_MG: Calling solver with defect correction order = 8
MG DL_MG: Solver finished
MG Hartree energy from (\int phi*rho dr):              1440.613832
MG Hartree energy from (\int eps (grad phi)^2 dr):     1439.962169
MG Discrepancy due to finite box and discretization:     -0.651663 (  -0.04524%)
MG Correction to account for finite box:                  0.475806
MG Remaining discrepancy, due to discretization:         -0.175858 (  -0.01221%)
      ideal mu1:      -0.804257244151
             Q0:  -11554.660523868632
             G0:      -0.162008621978
   RMS gradient:       0.000061814139
MG BCs: +ve charge blocks (gridpoints):     31327 (   17436275).
MG BCs: -ve charge blocks (gridpoints):      8415 (    1114397).
MG BCs:     Elided blocks (gridpoints):    169304 (  177745793).
MG BCs: Computational effort saved:  99.9798%.
MG BCs: Charge after coarse-graining:           -9.0009963.
MG DL_MG: Calling solver with defect correction order = 8
MG DL_MG: Solver finished
MG Hartree energy from (\int phi*rho dr):              1439.520456
MG Hartree energy from (\int eps (grad phi)^2 dr):     1438.868761
MG Discrepancy due to finite box and discretization:     -0.651695 (  -0.04527%)
MG Correction to account for finite box:                  0.475804
MG Remaining discrepancy, due to discretization:         -0.175891 (  -0.01222%)
     Trial step:       0.585770834483
             Q1:  -11554.735134807648
 Quadratic coef:       0.020288986672
 Linear coef   :      -0.094899925690
           Qmin:  -11554.771495353327
Quadratic minimum step length (  1.369945418205) accepted
    Initial Ne1:    7233.99993362
      Final Ne1:    7234.00000000

=================== Penalty functional idempotency correction ==================
 RMS occupancy error at iteration   1:  0.004648 (step -0.2985 Ne1=   7234.0000)
 RMS occupancy error at iteration   2:  0.000393 (step -0.4799 Ne1=   7234.0000)
 RMS occupancy error at iteration   3:  0.000010 (step -0.5002 Ne1=   7234.0000)
            Final RMS occupancy error   :  0.000000 (Ne1=   7234.0000)
               Final occupancy bounds   : [  0.0000,  1.0000]
================================================================================

    6        -1.155466052387E+04     6.1814E-05     5.5927E-05    -6.1317E-02
MG BCs: +ve charge blocks (gridpoints):     31335 (   17435529).
MG BCs: -ve charge blocks (gridpoints):      8419 (    1114842).
MG BCs:     Elided blocks (gridpoints):    169296 (  177746094).
MG BCs: Computational effort saved:  99.9797%.
MG BCs: Charge after coarse-graining:           -9.0009961.
MG DL_MG: Calling solver with defect correction order = 8
MG DL_MG: Solver finished
MG Hartree energy from (\int phi*rho dr):              1438.087693
MG Hartree energy from (\int eps (grad phi)^2 dr):     1437.435938
MG Discrepancy due to finite box and discretization:     -0.651755 (  -0.04532%)
MG Correction to account for finite box:                  0.475816
MG Remaining discrepancy, due to discretization:         -0.175939 (  -0.01223%)
      ideal mu1:      -0.803525479567
             Q0:  -11554.736693744897
             G0:      -0.385727687918
   RMS gradient:       0.000094892253
MG BCs: +ve charge blocks (gridpoints):     31325 (   17438800).
MG BCs: -ve charge blocks (gridpoints):      8405 (    1112692).
MG BCs:     Elided blocks (gridpoints):    169306 (  177744973).
MG BCs: Computational effort saved:  99.9798%.
MG BCs: Charge after coarse-graining:           -9.0009974.
MG DL_MG: Calling solver with defect correction order = 8
MG DL_MG: Solver finished
MG Hartree energy from (\int phi*rho dr):              1443.051655
MG Hartree energy from (\int eps (grad phi)^2 dr):     1442.400128
MG Discrepancy due to finite box and discretization:     -0.651527 (  -0.04515%)
MG Correction to account for finite box:                  0.475690
MG Remaining discrepancy, due to discretization:         -0.175837 (  -0.01219%)
     Trial step:       0.895809170983
             Q1:  -11554.827149893157
 Quadratic coef:       0.255082252079
 Linear coef   :      -0.345538400339
           Qmin:  -11554.853711672580
Quadratic minimum step length (  0.606738543014) accepted
    Initial Ne1:    7233.99992654
      Final Ne1:    7234.00000000

=================== Penalty functional idempotency correction ==================
 RMS occupancy error at iteration   1:  0.000191 (step -0.4867 Ne1=   7234.0000)
 RMS occupancy error at iteration   2:  0.000001 (step -0.5000 Ne1=   7234.0000)
            Final RMS occupancy error   :  0.000000 (Ne1=   7234.0000)
               Final occupancy bounds   : [  0.0000,  1.0000]
================================================================================

    7        -1.155473669374E+04     9.4892E-05     8.5854E-05    -7.6170E-02
MG BCs: +ve charge blocks (gridpoints):     31331 (   17437811).
MG BCs: -ve charge blocks (gridpoints):      8407 (    1113364).
MG BCs:     Elided blocks (gridpoints):    169300 (  177745290).
MG BCs: Computational effort saved:  99.9798%.
MG BCs: Charge after coarse-graining:           -9.0009969.
MG DL_MG: Calling solver with defect correction order = 8
MG DL_MG: Solver finished
MG Hartree energy from (\int phi*rho dr):              1441.443086
MG Hartree energy from (\int eps (grad phi)^2 dr):     1440.791490
MG Discrepancy due to finite box and discretization:     -0.651596 (  -0.04520%)
MG Correction to account for finite box:                  0.475728
MG Remaining discrepancy, due to discretization:         -0.175868 (  -0.01220%)
      ideal mu1:      -0.805210755163
             Q0:  -11554.854079919634
             G0:      -0.228356397837
   RMS gradient:       0.000072911068
MG BCs: +ve charge blocks (gridpoints):     31330 (   17437631).
MG BCs: -ve charge blocks (gridpoints):      8412 (    1113447).
MG BCs:     Elided blocks (gridpoints):    169301 (  177745387).
MG BCs: Computational effort saved:  99.9798%.
MG BCs: Charge after coarse-graining:           -9.0009971.
MG DL_MG: Calling solver with defect correction order = 8
MG DL_MG: Solver finished
MG Hartree energy from (\int phi*rho dr):              1440.882174
MG Hartree energy from (\int eps (grad phi)^2 dr):     1440.230699
MG Discrepancy due to finite box and discretization:     -0.651475 (  -0.04521%)
MG Correction to account for finite box:                  0.475821
MG Remaining discrepancy, due to discretization:         -0.175654 (  -0.01219%)
     Trial step:       0.737239412417
             Q1:  -11554.946709696902
 Quadratic coef:       0.075723559296
 Linear coef   :      -0.168353336563
           Qmin:  -11554.947653327288
Quadratic minimum step length (  0.819538305389) accepted
    Initial Ne1:    7233.99994103
      Final Ne1:    7234.00000000

=================== Penalty functional idempotency correction ==================
 RMS occupancy error at iteration   1:  0.001135 (step -0.4308 Ne1=   7234.0000)
 RMS occupancy error at iteration   2:  0.000037 (step -0.4982 Ne1=   7234.0000)
            Final RMS occupancy error   :  0.000000 (Ne1=   7234.0000)
               Final occupancy bounds   : [ -0.0000,  1.0000]
================================================================================

    8        -1.155485407992E+04     7.2911E-05     6.5967E-05    -1.1739E-01
MG BCs: +ve charge blocks (gridpoints):     31329 (   17437609).
MG BCs: -ve charge blocks (gridpoints):      8412 (    1113473).
MG BCs:     Elided blocks (gridpoints):    169302 (  177745383).
MG BCs: Computational effort saved:  99.9798%.
MG BCs: Charge after coarse-graining:           -9.0009971.
MG DL_MG: Calling solver with defect correction order = 8
MG DL_MG: Solver finished
MG Hartree energy from (\int phi*rho dr):              1440.821907
MG Hartree energy from (\int eps (grad phi)^2 dr):     1440.170447
MG Discrepancy due to finite box and discretization:     -0.651460 (  -0.04521%)
MG Correction to account for finite box:                  0.475829
MG Remaining discrepancy, due to discretization:         -0.175631 (  -0.01219%)
      ideal mu1:      -0.804541964170
             Q0:  -11554.947657829383
             G0:      -0.190758853978
   RMS gradient:       0.000066549169
MG BCs: +ve charge blocks (gridpoints):     31328 (   17436476).
MG BCs: -ve charge blocks (gridpoints):      8418 (    1114000).
MG BCs:     Elided blocks (gridpoints):    169303 (  177745989).
MG BCs: Computational effort saved:  99.9798%.
MG BCs: Charge after coarse-graining:           -9.0009970.
MG DL_MG: Calling solver with defect correction order = 8
MG DL_MG: Solver finished
MG Hartree energy from (\int phi*rho dr):              1439.286000
MG Hartree energy from (\int eps (grad phi)^2 dr):     1438.634459
MG Discrepancy due to finite box and discretization:     -0.651541 (  -0.04527%)
MG Correction to account for finite box:                  0.476026
MG Remaining discrepancy, due to discretization:         -0.175515 (  -0.01219%)
     Trial step:       0.777300417289
             Q1:  -11555.008816142916
 Quadratic coef:       0.087118623267
 Linear coef   :      -0.148276936799
           Qmin:  -11555.010750108513
Quadratic minimum step length (  0.661487294714) accepted
    Initial Ne1:    7234.00087392
      Final Ne1:    7234.00000000

=================== Penalty functional idempotency correction ==================
 RMS occupancy error at iteration   1:  0.002043 (step -0.3946 Ne1=   7234.0000)
 RMS occupancy error at iteration   2:  0.000092 (step -0.4962 Ne1=   7234.0000)
 RMS occupancy error at iteration   3:  0.000001 (step -0.5000 Ne1=   7234.0000)
            Final RMS occupancy error   :  0.000000 (Ne1=   7234.0000)
               Final occupancy bounds   : [  0.0000,  1.0000]
================================================================================

    9        -1.155494765783E+04     6.6549E-05     6.0211E-05    -9.3578E-02
MG BCs: +ve charge blocks (gridpoints):     31327 (   17436617).
MG BCs: -ve charge blocks (gridpoints):      8418 (    1113914).
MG BCs:     Elided blocks (gridpoints):    169304 (  177745934).
MG BCs: Computational effort saved:  99.9798%.
MG BCs: Charge after coarse-graining:           -9.0009970.
MG DL_MG: Calling solver with defect correction order = 8
MG DL_MG: Solver finished
MG Hartree energy from (\int phi*rho dr):              1439.512651
MG Hartree energy from (\int eps (grad phi)^2 dr):     1438.861114
MG Discrepancy due to finite box and discretization:     -0.651537 (  -0.04526%)
MG Correction to account for finite box:                  0.476007
MG Remaining discrepancy, due to discretization:         -0.175530 (  -0.01219%)
      ideal mu1:      -0.804007526435
   10        -1.155501341924E+04     5.3985E-05     4.8843E-05    -6.5761E-02
Finished density kernel iterations (  10)

Writing density kernel to file "complex_11881.vacuum_dkn" ... done


>>> Density kernel optimised for the current NGWF basis:
     ~~~~~~~~~~~~~~~~~~~~~~~~~~~~~~~~~~~~~~~~~~~~~~~~~~~~~~~~~~~
     Total energy                =  -1.15550134192418E+04  Eh
     Estimated bandgap           =  -5.1215E-01  Eh
     RMS occupancy error         =   6.7996E-11
     [H,K] commutator            =   4.8843E-05
     Occupancy bounds            = [  0.000:  1.000]
     ~~~~~~~~~~~~~~~~~~~~~~~~~~~~~~~~~~~~~~~~~~~~~~~~~~~~~~~~~~~




################################################################################
########################### NGWF CG iteration  001 #############################
################################################################################
****** Reciprocal space K.E. preconditioning with k_zero =  3.5000 a0^-1 *******

>>> Checking for convergence of NGWFs:   NOT CONVERGED
  ========================================================================
         NGWF RMS gradient =  1.6231E-03 >  2.0000E-06  | above tolerance
  ========================================================================

>>> Improving NGWFs using line search:
============ Calculation of NGWF S^-1 using Hotelling algorithm ================ 
         Iteration  |  Frobenius norm and Maximum abs value    (of I-S*S_n^-1)   
               1       0.23463908E+00     0.63600427E-02
               2       0.12699740E-02     0.55850799E-04
               3       0.62319863E-07     0.45486818E-08
               4       0.13313144E-12     0.78825835E-14
================================================================================
MG BCs: +ve charge blocks (gridpoints):     30851 (   17388614).
MG BCs: -ve charge blocks (gridpoints):      8418 (    1110707).
MG BCs:     Elided blocks (gridpoints):    169781 (  177797144).
MG BCs: Computational effort saved:  99.9800%.
MG BCs: Charge after coarse-graining:           -9.0009988.
MG DL_MG: Calling solver with defect correction order = 8
MG DL_MG: Solver finished
MG Hartree energy from (\int phi*rho dr):              1411.506827
MG Hartree energy from (\int eps (grad phi)^2 dr):     1410.856733
MG Discrepancy due to finite box and discretization:     -0.650094 (  -0.04606%)
MG Correction to account for finite box:                  0.475894
MG Remaining discrepancy, due to discretization:         -0.174201 (  -0.01234%)
============ Calculation of NGWF S^-1 using Hotelling algorithm ================ 
         Iteration  |  Frobenius norm and Maximum abs value    (of I-S*S_n^-1)   
               1       0.21792306E+01     0.47973334E-01
               2       0.97539707E-01     0.30886517E-02
               3       0.27020386E-03     0.14496064E-04
               4       0.35820211E-08     0.33417014E-09
               5       0.11710494E-12     0.48849813E-14
================================================================================
------------------------------- NGWF line search -------------------------------
RMS gradient                =       0.00162314344871
Trial step length           =               0.122474
Gradient along search dir.  =       -292.61993108832
Functional at step 0        =  -11555.01341924176086
Functional at step 1        =  -11588.08718297060113
Functional predicted        =  -11671.15537555051378
Selected quadratic step     =               0.793808
--------------------------- NGWF line search finished --------------------------
                                               
Writing NGWFs to file "complex_11881.vacuum_tightbox_ngwfs"....  done

>>> Optimising kernel for current NGWFs:
   Initial electron number for spin 1:    7280.09498049
     Final electron number for spin 1:    7234.00000000

=================== Penalty functional idempotency correction ==================
 RMS occupancy error at iteration   1:  0.005222 (step -0.4828 Ne1=   7234.0000)
 RMS occupancy error at iteration   2:  0.000094 (step -0.5003 Ne1=   7234.0000)
            Final RMS occupancy error   :  0.000000 (Ne1=   7234.0000)
               Final occupancy bounds   : [  0.0000,  1.0000]
================================================================================

................................................................................
<<<<<<<<<<<<<< LNV (Original version) density kernel optimisation >>>>>>>>>>>>>>
~~~~~~~~~~~~~~~~~~~~~~~~~~~~~~~~~~~~~~~~~~~~~~~~~~~~~~~~~~~~~~~~~~~~~~~~~~~~~~~~
   iter  |      energy (Eh)       | rms gradient |  commutator  |   dE (Eh)
MG BCs: +ve charge blocks (gridpoints):     25228 (   17150747).
MG BCs: -ve charge blocks (gridpoints):      8544 (    1080431).
MG BCs:     Elided blocks (gridpoints):    175412 (  178065287).
MG BCs: Computational effort saved:  99.9828%.
MG BCs: Charge after coarse-graining:           -9.0007376.
MG DL_MG: Calling solver with defect correction order = 8
MG DL_MG: Solver finished
MG Hartree energy from (\int phi*rho dr):              1280.245809
MG Hartree energy from (\int eps (grad phi)^2 dr):     1279.598915
MG Discrepancy due to finite box and discretization:     -0.646894 (  -0.05053%)
MG Correction to account for finite box:                  0.475368
MG Remaining discrepancy, due to discretization:         -0.171526 (  -0.01340%)
      ideal mu1:      -0.747418006077
             Q0:  -11670.502468993771
             G0:      -9.880803727083
   RMS gradient:       0.000480271135
MG BCs: +ve charge blocks (gridpoints):     25311 (   17165247).
MG BCs: -ve charge blocks (gridpoints):      8525 (    1076910).
MG BCs:     Elided blocks (gridpoints):    175329 (  178054308).
MG BCs: Computational effort saved:  99.9828%.
MG BCs: Charge after coarse-graining:           -9.0007337.
MG DL_MG: Calling solver with defect correction order = 8
MG DL_MG: Solver finished
MG Hartree energy from (\int phi*rho dr):              1294.135518
MG Hartree energy from (\int eps (grad phi)^2 dr):     1293.484482
MG Discrepancy due to finite box and discretization:     -0.651035 (  -0.05031%)
MG Correction to account for finite box:                  0.474391
MG Remaining discrepancy, due to discretization:         -0.176645 (  -0.01365%)
     Trial step:       0.717059516507
             Q1:  -11670.001665535732
 Quadratic coef:       7.585927801278
 Linear coef   :      -7.085124343240
           Qmin:  -11672.156814654387
Quadratic minimum step length (  0.334860545015) accepted
    Initial Ne1:    7233.99909432
      Final Ne1:    7234.00000000

=================== Penalty functional idempotency correction ==================
 RMS occupancy error at iteration   1:  0.000370 (step -0.4985 Ne1=   7234.0000)
 RMS occupancy error at iteration   2:  0.000000 (step -0.5000 Ne1=   7234.0000)
            Final RMS occupancy error   :  0.000000 (Ne1=   7234.0000)
               Final occupancy bounds   : [  0.0000,  1.0000]
================================================================================

    1        -1.167050246899E+04     4.8027E-04     4.3453E-04
MG BCs: +ve charge blocks (gridpoints):     25262 (   17157679).
MG BCs: -ve charge blocks (gridpoints):      8538 (    1078784).
MG BCs:     Elided blocks (gridpoints):    175378 (  178060002).
MG BCs: Computational effort saved:  99.9828%.
MG BCs: Charge after coarse-graining:           -9.0007357.
MG DL_MG: Calling solver with defect correction order = 8
MG DL_MG: Solver finished
MG Hartree energy from (\int phi*rho dr):              1285.782523
MG Hartree energy from (\int eps (grad phi)^2 dr):     1285.133797
MG Discrepancy due to finite box and discretization:     -0.648726 (  -0.05045%)
MG Correction to account for finite box:                  0.474881
MG Remaining discrepancy, due to discretization:         -0.173845 (  -0.01352%)
      ideal mu1:      -0.753332307107
             Q0:  -11672.136500278139
             G0:      -0.903923138398
   RMS gradient:       0.000145704775
MG BCs: +ve charge blocks (gridpoints):     25262 (   17157032).
MG BCs: -ve charge blocks (gridpoints):      8541 (    1079661).
MG BCs:     Elided blocks (gridpoints):    175378 (  178059772).
MG BCs: Computational effort saved:  99.9828%.
MG BCs: Charge after coarse-graining:           -9.0007357.
MG DL_MG: Calling solver with defect correction order = 8
MG DL_MG: Solver finished
MG Hartree energy from (\int phi*rho dr):              1286.294199
MG Hartree energy from (\int eps (grad phi)^2 dr):     1285.645321
MG Discrepancy due to finite box and discretization:     -0.648878 (  -0.05045%)
MG Correction to account for finite box:                  0.474746
MG Remaining discrepancy, due to discretization:         -0.174132 (  -0.01354%)
     Trial step:       0.490015245176
             Q1:  -11672.341343602864
 Quadratic coef:       0.238092793557
 Linear coef   :      -0.442936118283
           Qmin:  -11672.342504418319
Quadratic minimum step length (  0.455800125982) accepted
    Initial Ne1:    7233.99988652
      Final Ne1:    7234.00000000

=================== Penalty functional idempotency correction ==================
 RMS occupancy error at iteration   1:  0.000147 (step -0.4992 Ne1=   7234.0000)
 RMS occupancy error at iteration   2:  0.000000 (step -0.5000 Ne1=   7234.0000)
            Final RMS occupancy error   :  0.000000 (Ne1=   7234.0000)
               Final occupancy bounds   : [  0.0000,  1.0000]
================================================================================

    2        -1.167213650028E+04     1.4570E-04     1.3183E-04    -1.6340E+00
MG BCs: +ve charge blocks (gridpoints):     25261 (   17157030).
MG BCs: -ve charge blocks (gridpoints):      8541 (    1079631).
MG BCs:     Elided blocks (gridpoints):    175379 (  178059804).
MG BCs: Computational effort saved:  99.9828%.
MG BCs: Charge after coarse-graining:           -9.0007357.
MG DL_MG: Calling solver with defect correction order = 8
MG DL_MG: Solver finished
MG Hartree energy from (\int phi*rho dr):              1286.258837
MG Hartree energy from (\int eps (grad phi)^2 dr):     1285.609970
MG Discrepancy due to finite box and discretization:     -0.648867 (  -0.05045%)
MG Correction to account for finite box:                  0.474756
MG Remaining discrepancy, due to discretization:         -0.174111 (  -0.01354%)
      ideal mu1:      -0.754125488835
             Q0:  -11672.342918987502
             G0:      -0.191919790522
   RMS gradient:       0.000066866690
MG BCs: +ve charge blocks (gridpoints):     25259 (   17156359).
MG BCs: -ve charge blocks (gridpoints):      8543 (    1079995).
MG BCs:     Elided blocks (gridpoints):    175381 (  178060111).
MG BCs: Computational effort saved:  99.9828%.
MG BCs: Charge after coarse-graining:           -9.0007356.
MG DL_MG: Calling solver with defect correction order = 8
MG DL_MG: Solver finished
MG Hartree energy from (\int phi*rho dr):              1285.596520
MG Hartree energy from (\int eps (grad phi)^2 dr):     1284.947826
MG Discrepancy due to finite box and discretization:     -0.648694 (  -0.05046%)
MG Correction to account for finite box:                  0.474648
MG Remaining discrepancy, due to discretization:         -0.174046 (  -0.01354%)
     Trial step:       0.472598149049
             Q1:  -11672.402178662829
 Quadratic coef:       0.031441262439
 Linear coef   :      -0.090700937767
           Qmin:  -11672.408331915240
Quadratic minimum step length (  0.681669436591) accepted
    Initial Ne1:    7233.99996425
      Final Ne1:    7234.00000000

=================== Penalty functional idempotency correction ==================
 RMS occupancy error at iteration   1:  0.000161 (step -0.4937 Ne1=   7234.0000)
 RMS occupancy error at iteration   2:  0.000001 (step -0.5000 Ne1=   7234.0000)
            Final RMS occupancy error   :  0.000000 (Ne1=   7234.0000)
               Final occupancy bounds   : [  0.0000,  1.0000]
================================================================================

    3        -1.167234291899E+04     6.6867E-05     6.0498E-05    -2.0642E-01
MG BCs: +ve charge blocks (gridpoints):     25256 (   17156092).
MG BCs: -ve charge blocks (gridpoints):      8543 (    1080137).
MG BCs:     Elided blocks (gridpoints):    175384 (  178060236).
MG BCs: Computational effort saved:  99.9828%.
MG BCs: Charge after coarse-graining:           -9.0007356.
MG DL_MG: Calling solver with defect correction order = 8
MG DL_MG: Solver finished
MG Hartree energy from (\int phi*rho dr):              1285.303022
MG Hartree energy from (\int eps (grad phi)^2 dr):     1284.654405
MG Discrepancy due to finite box and discretization:     -0.648617 (  -0.05046%)
MG Correction to account for finite box:                  0.474599
MG Remaining discrepancy, due to discretization:         -0.174018 (  -0.01354%)
      ideal mu1:      -0.753420259928
             Q0:  -11672.408425258240
             G0:      -0.065584789211
   RMS gradient:       0.000039077314
MG BCs: +ve charge blocks (gridpoints):     25256 (   17155868).
MG BCs: -ve charge blocks (gridpoints):      8545 (    1080166).
MG BCs:     Elided blocks (gridpoints):    175384 (  178060431).
MG BCs: Computational effort saved:  99.9828%.
MG BCs: Charge after coarse-graining:           -9.0007357.
MG DL_MG: Calling solver with defect correction order = 8
MG DL_MG: Solver finished
MG Hartree energy from (\int phi*rho dr):              1285.333486
MG Hartree energy from (\int eps (grad phi)^2 dr):     1284.685055
MG Discrepancy due to finite box and discretization:     -0.648431 (  -0.05045%)
MG Correction to account for finite box:                  0.474512
MG Remaining discrepancy, due to discretization:         -0.173919 (  -0.01353%)
     Trial step:       0.567587626712
             Q1:  -11672.433161482215
 Quadratic coef:       0.012488890881
 Linear coef   :      -0.037225114856
           Qmin:  -11672.436164094082
Quadratic minimum step length (  0.845892353302) accepted
    Initial Ne1:    7233.99998460
      Final Ne1:    7234.00000000

=================== Penalty functional idempotency correction ==================
 RMS occupancy error at iteration   1:  0.000304 (step -0.4830 Ne1=   7234.0000)
 RMS occupancy error at iteration   2:  0.000002 (step -0.5000 Ne1=   7234.0000)
            Final RMS occupancy error   :  0.000000 (Ne1=   7234.0000)
               Final occupancy bounds   : [  0.0000,  1.0000]
================================================================================

    4        -1.167240842526E+04     3.9077E-05     3.5355E-05    -6.5506E-02
MG BCs: +ve charge blocks (gridpoints):     25255 (   17155743).
MG BCs: -ve charge blocks (gridpoints):      8546 (    1080207).
MG BCs:     Elided blocks (gridpoints):    175385 (  178060515).
MG BCs: Computational effort saved:  99.9828%.
MG BCs: Charge after coarse-graining:           -9.0007357.
MG DL_MG: Calling solver with defect correction order = 8
MG DL_MG: Solver finished
MG Hartree energy from (\int phi*rho dr):              1285.349549
MG Hartree energy from (\int eps (grad phi)^2 dr):     1284.701211
MG Discrepancy due to finite box and discretization:     -0.648337 (  -0.05044%)
MG Correction to account for finite box:                  0.474466
MG Remaining discrepancy, due to discretization:         -0.173871 (  -0.01353%)
      ideal mu1:      -0.754124068965
             Q0:  -11672.436070346390
             G0:      -0.066283247799
   RMS gradient:       0.000039360594
MG BCs: +ve charge blocks (gridpoints):     25258 (   17156889).
MG BCs: -ve charge blocks (gridpoints):      8544 (    1079837).
MG BCs:     Elided blocks (gridpoints):    175382 (  178059739).
MG BCs: Computational effort saved:  99.9828%.
MG BCs: Charge after coarse-graining:           -9.0007355.
MG DL_MG: Calling solver with defect correction order = 8
MG DL_MG: Solver finished
MG Hartree energy from (\int phi*rho dr):              1286.115195
MG Hartree energy from (\int eps (grad phi)^2 dr):     1285.467153
MG Discrepancy due to finite box and discretization:     -0.648042 (  -0.05039%)
MG Correction to account for finite box:                  0.474218
MG Remaining discrepancy, due to discretization:         -0.173824 (  -0.01352%)
     Trial step:       0.692905500963
             Q1:  -11672.463084199466
 Quadratic coef:       0.018914173947
 Linear coef   :      -0.045928027022
           Qmin:  -11672.463951337546
Quadratic minimum step length (  0.841268105647) accepted
    Initial Ne1:    7233.99998385
      Final Ne1:    7234.00000000

=================== Penalty functional idempotency correction ==================
 RMS occupancy error at iteration   1:  0.000995 (step -0.4471 Ne1=   7234.0000)
 RMS occupancy error at iteration   2:  0.000008 (step -0.5000 Ne1=   7234.0000)
            Final RMS occupancy error   :  0.000000 (Ne1=   7234.0000)
               Final occupancy bounds   : [ -0.0000,  1.0000]
================================================================================

    5        -1.167243607035E+04     3.9361E-05     3.5612E-05    -2.7645E-02
MG BCs: +ve charge blocks (gridpoints):     25260 (   17157170).
MG BCs: -ve charge blocks (gridpoints):      8545 (    1079744).
MG BCs:     Elided blocks (gridpoints):    175380 (  178059551).
MG BCs: Computational effort saved:  99.9828%.
MG BCs: Charge after coarse-graining:           -9.0007354.
MG DL_MG: Calling solver with defect correction order = 8
MG DL_MG: Solver finished
MG Hartree energy from (\int phi*rho dr):              1286.280944
MG Hartree energy from (\int eps (grad phi)^2 dr):     1285.632961
MG Discrepancy due to finite box and discretization:     -0.647983 (  -0.05038%)
MG Correction to account for finite box:                  0.474169
MG Remaining discrepancy, due to discretization:         -0.173814 (  -0.01351%)
      ideal mu1:      -0.755527569866
             Q0:  -11672.464074200718
             G0:      -0.062262667676
   RMS gradient:       0.000037610527
MG BCs: +ve charge blocks (gridpoints):     25258 (   17157200).
MG BCs: -ve charge blocks (gridpoints):      8547 (    1079868).
MG BCs:     Elided blocks (gridpoints):    175382 (  178059397).
MG BCs: Computational effort saved:  99.9828%.
MG BCs: Charge after coarse-graining:           -9.0007353.
MG DL_MG: Calling solver with defect correction order = 8
MG DL_MG: Solver finished
MG Hartree energy from (\int phi*rho dr):              1285.937665
MG Hartree energy from (\int eps (grad phi)^2 dr):     1285.290012
MG Discrepancy due to finite box and discretization:     -0.647653 (  -0.05036%)
MG Correction to account for finite box:                  0.473826
MG Remaining discrepancy, due to discretization:         -0.173827 (  -0.01352%)
     Trial step:       0.763491518085
             Q1:  -11672.492012750357
 Quadratic coef:       0.019598469024
 Linear coef   :      -0.047537018664
           Qmin:  -11672.492900025591
Quadratic minimum step length (  0.925942493294) accepted
    Initial Ne1:    7233.99999579
      Final Ne1:    7234.00000000

=================== Penalty functional idempotency correction ==================
 RMS occupancy error at iteration   1:  0.002281 (step -0.3937 Ne1=   7234.0000)
 RMS occupancy error at iteration   2:  0.000032 (step -0.4998 Ne1=   7234.0000)
            Final RMS occupancy error   :  0.000000 (Ne1=   7234.0000)
               Final occupancy bounds   : [ -0.0000,  1.0000]
================================================================================

    6        -1.167246407420E+04     3.7611E-05     3.4028E-05    -2.8004E-02
MG BCs: +ve charge blocks (gridpoints):     25258 (   17157186).
MG BCs: -ve charge blocks (gridpoints):      8546 (    1079896).
MG BCs:     Elided blocks (gridpoints):    175382 (  178059383).
MG BCs: Computational effort saved:  99.9828%.
MG BCs: Charge after coarse-graining:           -9.0007353.
MG DL_MG: Calling solver with defect correction order = 8
MG DL_MG: Solver finished
MG Hartree energy from (\int phi*rho dr):              1285.866866
MG Hartree energy from (\int eps (grad phi)^2 dr):     1285.219257
MG Discrepancy due to finite box and discretization:     -0.647609 (  -0.05036%)
MG Correction to account for finite box:                  0.473779
MG Remaining discrepancy, due to discretization:         -0.173830 (  -0.01352%)
      ideal mu1:      -0.755867918957
             Q0:  -11672.494550818810
             G0:      -0.051020453916
   RMS gradient:       0.000034511395
MG BCs: +ve charge blocks (gridpoints):     25257 (   17155975).
MG BCs: -ve charge blocks (gridpoints):      8550 (    1080130).
MG BCs:     Elided blocks (gridpoints):    175383 (  178060360).
MG BCs: Computational effort saved:  99.9828%.
MG BCs: Charge after coarse-graining:           -9.0007356.
MG DL_MG: Calling solver with defect correction order = 8
MG DL_MG: Solver finished
MG Hartree energy from (\int phi*rho dr):              1285.344416
MG Hartree energy from (\int eps (grad phi)^2 dr):     1284.696808
MG Discrepancy due to finite box and discretization:     -0.647608 (  -0.05038%)
MG Correction to account for finite box:                  0.473758
MG Remaining discrepancy, due to discretization:         -0.173850 (  -0.01353%)
     Trial step:       0.840802735405
             Q1:  -11672.509221940301
 Quadratic coef:       0.028227015722
 Linear coef   :      -0.042898137214
           Qmin:  -11672.510849479237
Quadratic minimum step length (  0.638906915776) accepted
    Initial Ne1:    7234.00004186
      Final Ne1:    7234.00000000

=================== Penalty functional idempotency correction ==================
 RMS occupancy error at iteration   1:  0.000030 (step -0.4981 Ne1=   7234.0000)
            Final RMS occupancy error   :  0.000000 (Ne1=   7234.0000)
               Final occupancy bounds   : [ -0.0000,  1.0000]
================================================================================

    7        -1.167249455082E+04     3.4511E-05     3.1224E-05    -3.0477E-02
MG BCs: +ve charge blocks (gridpoints):     25256 (   17156274).
MG BCs: -ve charge blocks (gridpoints):      8550 (    1080083).
MG BCs:     Elided blocks (gridpoints):    175384 (  178060108).
MG BCs: Computational effort saved:  99.9828%.
MG BCs: Charge after coarse-graining:           -9.0007355.
MG DL_MG: Calling solver with defect correction order = 8
MG DL_MG: Solver finished
MG Hartree energy from (\int phi*rho dr):              1285.469074
MG Hartree energy from (\int eps (grad phi)^2 dr):     1284.821465
MG Discrepancy due to finite box and discretization:     -0.647609 (  -0.05038%)
MG Correction to account for finite box:                  0.473764
MG Remaining discrepancy, due to discretization:         -0.173845 (  -0.01352%)
      ideal mu1:      -0.755443030298
             Q0:  -11672.510856207344
             G0:      -0.038484921434
   RMS gradient:       0.000029968971
MG BCs: +ve charge blocks (gridpoints):     25256 (   17156455).
MG BCs: -ve charge blocks (gridpoints):      8548 (    1079984).
MG BCs:     Elided blocks (gridpoints):    175384 (  178060026).
MG BCs: Computational effort saved:  99.9828%.
MG BCs: Charge after coarse-graining:           -9.0007356.
MG DL_MG: Calling solver with defect correction order = 8
MG DL_MG: Solver finished
MG Hartree energy from (\int phi*rho dr):              1285.416686
MG Hartree energy from (\int eps (grad phi)^2 dr):     1284.769186
MG Discrepancy due to finite box and discretization:     -0.647499 (  -0.05037%)
MG Correction to account for finite box:                  0.473611
MG Remaining discrepancy, due to discretization:         -0.173888 (  -0.01353%)
     Trial step:       0.732935660514
             Q1:  -11672.529308034107
 Quadratic coef:       0.009755144549
[...]
 RMS occupancy error at iteration   1:  0.000000 (step -0.5000 Ne1=   7234.0000)
            Final RMS occupancy error   :  0.000000 (Ne1=   7234.0000)
               Final occupancy bounds   : [  0.0000,  1.0000]
================================================================================

    7        -1.170896856310E+04     3.2775E-09     2.9654E-09     2.3283E-10

Reusing previously generated solute cavity.
MG BCs: +ve charge blocks (gridpoints):     29679 (   19324844).
MG BCs: -ve charge blocks (gridpoints):      8575 (    1057194).
MG BCs:     Elided blocks (gridpoints):    170961 (  175914427).
MG BCs: Computational effort saved:  99.9805%.
MG BCs: Charge after coarse-graining:           -9.0009872.
MG DL_MG: Calling solver with defect correction order = 8
MG DL_MG: Solver finished
MG Hartree energy from (\int phi*rho dr):              1236.803952
MG Hartree energy from (\int eps (grad phi)^2 dr):     1236.624146
MG Discrepancy due to finite box and discretization:     -0.179806 (  -0.01454%)
MG Correction to account for finite box:                  0.006378
MG Remaining discrepancy, due to discretization:         -0.173429 (  -0.01402%)
      ideal mu1:      -0.513851644814
             Q0:  -11708.968563099508
             G0:      -0.000000000576
   RMS gradient:       0.000000002716

Reusing previously generated solute cavity.
MG BCs: +ve charge blocks (gridpoints):     29679 (   19324844).
MG BCs: -ve charge blocks (gridpoints):      8575 (    1057194).
MG BCs:     Elided blocks (gridpoints):    170961 (  175914427).
MG BCs: Computational effort saved:  99.9805%.
MG BCs: Charge after coarse-graining:           -9.0009872.
MG DL_MG: Calling solver with defect correction order = 8
MG DL_MG: Solver finished
MG Hartree energy from (\int phi*rho dr):              1236.803959
MG Hartree energy from (\int eps (grad phi)^2 dr):     1236.624153
MG Discrepancy due to finite box and discretization:     -0.179806 (  -0.01454%)
MG Correction to account for finite box:                  0.006378
MG Remaining discrepancy, due to discretization:         -0.173429 (  -0.01402%)
     Trial step:       0.176026145178
             Q1:  -11708.968563099392
 Quadratic coef:       0.000000000218
 Linear coef   :      -0.000000000101
           Qmin:  -11708.968563099519
Quadratic minimum step length (  0.040870081773) accepted
    Initial Ne1:    7234.00000000
      Final Ne1:    7234.00000000

=================== Penalty functional idempotency correction ==================
 RMS occupancy error at iteration   1:  0.000000 (step -0.5000 Ne1=   7234.0000)
            Final RMS occupancy error   :  0.000000 (Ne1=   7234.0000)
               Final occupancy bounds   : [ -0.0000,  1.0000]
================================================================================

    8        -1.170896856310E+04     2.7163E-09     2.4576E-09     0.0000E+00

Reusing previously generated solute cavity.
MG BCs: +ve charge blocks (gridpoints):     29679 (   19324844).
MG BCs: -ve charge blocks (gridpoints):      8575 (    1057194).
MG BCs:     Elided blocks (gridpoints):    170961 (  175914427).
MG BCs: Computational effort saved:  99.9805%.
MG BCs: Charge after coarse-graining:           -9.0009872.
MG DL_MG: Calling solver with defect correction order = 8
MG DL_MG: Solver finished
MG Hartree energy from (\int phi*rho dr):              1236.803953
MG Hartree energy from (\int eps (grad phi)^2 dr):     1236.624147
MG Discrepancy due to finite box and discretization:     -0.179806 (  -0.01454%)
MG Correction to account for finite box:                  0.006378
MG Remaining discrepancy, due to discretization:         -0.173429 (  -0.01402%)
      ideal mu1:      -0.513851644884
             Q0:  -11708.968563099508
             G0:      -0.000000000688
   RMS gradient:       0.000000002466

Reusing previously generated solute cavity.
MG BCs: +ve charge blocks (gridpoints):     29679 (   19324844).
MG BCs: -ve charge blocks (gridpoints):      8575 (    1057194).
MG BCs:     Elided blocks (gridpoints):    170961 (  175914427).
MG BCs: Computational effort saved:  99.9805%.
MG BCs: Charge after coarse-graining:           -9.0009872.
MG DL_MG: Calling solver with defect correction order = 8
MG DL_MG: Solver finished
MG Hartree energy from (\int phi*rho dr):              1236.803958
MG Hartree energy from (\int eps (grad phi)^2 dr):     1236.624152
MG Discrepancy due to finite box and discretization:     -0.179806 (  -0.01454%)
MG Correction to account for finite box:                  0.006378
MG Remaining discrepancy, due to discretization:         -0.173429 (  -0.01402%)
     Trial step:       0.084818647405
             Q1:  -11708.968563099392
 Quadratic coef:       0.000000000175
 Linear coef   :      -0.000000000058
           Qmin:  -11708.968563099514
Quadratic minimum step length (  0.014179681235) accepted
    Initial Ne1:    7234.00000000
      Final Ne1:    7234.00000000

=================== Penalty functional idempotency correction ==================
 RMS occupancy error at iteration   1:  0.000000 (step -0.5000 Ne1=   7234.0000)
            Final RMS occupancy error   :  0.000000 (Ne1=   7234.0000)
               Final occupancy bounds   : [  0.0000,  1.0000]
================================================================================

    9        -1.170896856310E+04     2.4658E-09     2.2310E-09     0.0000E+00

Reusing previously generated solute cavity.
MG BCs: +ve charge blocks (gridpoints):     29679 (   19324844).
MG BCs: -ve charge blocks (gridpoints):      8575 (    1057194).
MG BCs:     Elided blocks (gridpoints):    170961 (  175914427).
MG BCs: Computational effort saved:  99.9805%.
MG BCs: Charge after coarse-graining:           -9.0009872.
MG DL_MG: Calling solver with defect correction order = 8
MG DL_MG: Solver finished
MG Hartree energy from (\int phi*rho dr):              1236.803954
MG Hartree energy from (\int eps (grad phi)^2 dr):     1236.624148
MG Discrepancy due to finite box and discretization:     -0.179806 (  -0.01454%)
MG Correction to account for finite box:                  0.006378
MG Remaining discrepancy, due to discretization:         -0.173429 (  -0.01402%)
      ideal mu1:      -0.513851644924
   10        -1.170896856310E+04     2.3578E-09     2.1333E-09     0.0000E+00
Finished density kernel iterations (  10)

Writing density kernel to file "complex_11881.dkn" ... done


>>> Density kernel optimised for the current NGWF basis:
     ~~~~~~~~~~~~~~~~~~~~~~~~~~~~~~~~~~~~~~~~~~~~~~~~~~~~~~~~~~~
     Total energy                =  -1.17089685630995E+04  Eh
     Estimated bandgap           =   1.1074E-01  Eh
     RMS occupancy error         =   7.9333E-16
     [H,K] commutator            =   2.1333E-09
     Occupancy bounds            = [  0.000:  1.000]
     ~~~~~~~~~~~~~~~~~~~~~~~~~~~~~~~~~~~~~~~~~~~~~~~~~~~~~~~~~~~




################################################################################
########################### NGWF CG iteration  005 #############################
################################################################################
****** Reciprocal space K.E. preconditioning with k_zero =  3.5000 a0^-1 *******

>>> Checking for convergence of NGWFs: 
           ........................................................
           |         *** NGWF optimisation converged ***          |
           | RMS NGWF gradient =    0.00000108020194              |
           | Criteria satisfied:                                  |
           | -> RMS NGWF gradient lower than set threshold.       |
           ========================================================

Reusing previously generated solute cavity.
MG BCs: +ve charge blocks (gridpoints):     29679 (   19324844).
MG BCs: -ve charge blocks (gridpoints):      8575 (    1057194).
MG BCs:     Elided blocks (gridpoints):    170961 (  175914427).
MG BCs: Computational effort saved:  99.9805%.
MG BCs: Charge after coarse-graining:           -9.0009872.
MG DL_MG: Calling solver with defect correction order = 8
MG DL_MG: Solver finished
MG Hartree energy from (\int phi*rho dr):              1236.803954
MG Hartree energy from (\int eps (grad phi)^2 dr):     1236.624148
MG Discrepancy due to finite box and discretization:     -0.179806 (  -0.01454%)
MG Correction to account for finite box:                  0.006378
MG Remaining discrepancy, due to discretization:         -0.173429 (  -0.01402%)

================================================================================
           ---------------- ENERGY COMPONENTS (Eh) ----------------
           | Kinetic                    :     8455.25226472286522 |
           | Pseudo. (local,OBC,corr'd) :    -5015.72455007519238 |
           | Pseudopotential (non-local):     1453.55464476361590 |
           | Hartree (molecular)        :     1236.80395417815885 |
           | Exchange-correlation       :    -3352.88801049710673 |
           | Ion-ion (open BC)          :   835651.18980354978703 |
           | Smeared ion non-self corr. :  -835602.82538291043602 |
           | Smeared ion self corr.     :   -14534.96330857569956 |
           | Solvent cavitation energy  :        2.24858754601272 |
           | Solute-solvent dis-rep en. :       -1.61656580151719 |
           | Total                      :   -11708.96856309951545 |
           --------------------------------------------------------
           ------ LOCAL ENERGY COMPONENTS FROM MATRIX TRACES ------
           | Pseudopotential (local)    :    -5015.72455007520148 |
           | Hartree                    :    -1996.03985361412401 |
           --------------------------------------------------------
           Integrated density           :     7233.99999999790089
           Integrated density tr(KS)    :     7234.00000000000000
================================================================================


                        <<<<< CALCULATION SUMMARY >>>>>                         
|ITER|    RMS GRADIENT   |     TOTAL ENERGY    |   step   |     Epredicted              
   0     0.00003966283229 -11708.91255205136258   0.555158 -11708.96105232238369        
   1     0.00001226253987 -11708.96745239337906   0.111739 -11708.96838548704363        
   2     0.00000541401379 -11708.96852422133088   0.020176 -11708.96855706288261        
   3     0.00000241888364 -11708.96856154350098   0.004095 -11708.96856287422452        
   4     0.00000108020194 -11708.96856309950817  <-- CG                                 

=================== Finished the calculation in solvent ========================
= Adjusting the following parameters: 
= read_denskern: F
= read_tightbox_ngwfs: F
= maxit_pen: 0 (restored to user-specified value)
= restart read filename prefix: ""
= restart write filename prefix: ""
================================================================================

================================================================================
IS: Calculation in solvent completed (NGWFs converged).      

Individual components of total energy in solvent:     hartree           kcal/mol
- Usual non-electrostatic DFT terms:    -12946.40453902216177    -8123991.327039
- Electrostatic fixed charge energy:      1236.80395417815885      776106.181968
- Apolar cavitation energy:                  2.24858754601272        1411.009958
- Apolar dispersion-repulsion energy:       -1.61656580151719       -1014.410334
 -------------------------------------------------------------------------------
- Total energy in solvent:              -11708.96856309950817    -7347488.545447

Components of total energy in solvent:                hartree           kcal/mol
- Usual non-electrostatic DFT terms:    -12946.40453902216177    -8123991.327039
- Electrostatic energy:                   1236.80395417815885      776106.181968
- Apolar energy terms:                       0.63202174449552         396.599624
 -------------------------------------------------------------------------------
- Total energy in solvent:              -11708.96856309950817    -7347488.545447

Calculation of free energy of solvation:              hartree           kcal/mol
- Total energy in solvent:         (+)  -11708.96856309950817    -7347488.545447
- Total energy in vacuum:          (-)  -11704.96204050513916    -7344974.414616
 -------------------------------------------------------------------------------
- Total free energy of solvation:           -4.00652259436902       -2514.130831

Components of polar term in f.e. of solvation:        hartree           kcal/mol
- Electrostatic:                            -4.86356013379054       -3051.929995
- Change in nonelectrostatic DFT terms:      0.22501579492746         141.199540
 -------------------------------------------------------------------------------
- Polar term in f.e. of solvation:          -4.63854433886308       -2910.730455

Components of free energy of solvation:               hartree           kcal/mol
- Polar term in f.e. of solvation: (+)      -4.63854433886308       -2910.730455
- Apolar (cavitation, dis., rep.): (+)       0.63202174449552         396.599624
 -------------------------------------------------------------------------------
- Total free energy of solvation:           -4.00652259436756       -2514.130831
================================================================================


------------------------------ TIMING INFORMATION ------------------------------
AVERAGE TIME:   77839.373s on     40 node(s)                                    
TOTAL TIME:     77839.373s on     40 node(s)                                    
================= AVERAGE TIMINGS FROM ALL NODES (CUMULATIVE) ==================
|| TAG                                    #calls    cpu time   %total  Gflops ||
|| work_imbalance                       :     1        0.00s   0.000%  ------ ||
|| parallel_prepare_fd_halos_request    :  2193        0.02s   0.000%  ------ ||
|| sparse_set_to_garbage                :   239        0.06s   0.000%  ------ ||
|| parallel_prepare_fd_halos_satisfy    :  2193        0.07s   0.000%  ------ ||
|| parallel_prepare_fd_halos_alloc      :  2193        0.08s   0.000%  ------ ||
|| ngwfs_initialise_from_radial         :     1        0.18s   0.000%  ------ ||
|| basis_extract_function_from_box      :  6054        0.21s   0.000%  ------ ||
|| pseudopotentials_nonlocal_mat        :    35        1.26s   0.002%  ------ ||
|| restart_ngwfs_tightbox_input         :     1        1.48s   0.002%  ------ ||
|| density_init_guess_real              :     1        3.02s   0.004%  ------ ||
|| parallel_prepare_fd_halos_comms_imbal:  2193        3.69s   0.005%  ------ ||
|| openbc_locps_radial                  :     1        4.42s   0.006%  ------ ||
|| restart_kernel_read                  :     1        7.72s   0.010%  ------ ||
|| parallel_prepare_fd_halos_clear      :  2193       15.73s   0.020%  ------ ||
|| sparse_init                          :     2       22.88s   0.029%  ------ ||
|| restart_kernel_write                 :    19       25.73s   0.033%  ------ ||
|| parallel_prepare_fd_halos_comms_wait :  2193       28.03s   0.036%  ------ ||
|| projectors_func_ovlp_box             :    35       28.89s   0.037%  ------ ||
|| projectors_init_fftbox_recip         :   233       31.61s   0.041%  ------ ||
|| function_ops_brappd_ketppd           :    35       34.46s   0.044%  ------ ||
|| palser_mano_kernel_optimise          :     1       42.30s   0.054%  ------ ||
|| parallel_prepare_fd_halos            :  2193       47.62s   0.061%  ------ ||
|| pseudo_make_structure_factor         :     2       54.10s   0.069%  ------ ||
|| ngwf_gradient_coeffs                 :    18       72.14s   0.093%  ------ ||
|| sparse_embed_hotelling_invert_embed  :    35      108.40s   0.139%  ------ ||
|| finite_difference_derivative         :  2193      120.54s   0.155%  ------ ||
|| restart_ngwfs_tightbox_output        :    16      131.24s   0.169%  ------ ||
|| basis_copy_function_to_box           : 187.8k     132.53s   0.170%  ------ ||
|| openbc_locps_on_grid                 :     2      191.81s   0.246%  ------ ||
|| integrals_kinetic                    :    35      214.82s   0.276%  ------ ||
|| projectors_gradient_batch            :   198      249.92s   0.321%  ------ ||
|| sparse_trace                         :  6070      323.94s   0.416%  ------ ||
|| fourier_apply_box_pair               : 52973      367.94s   0.473% 591.845 ||
|| kernel_purify                        :   558      399.93s   0.514%  ------ ||
|| basis_dot_function_with_box          : 21.71M     411.52s   0.529%  ------ ||
|| lnv_gradient_norm                    :   180      646.94s   0.831%  ------ ||
|| kernel_fix                           :   180      751.03s   0.965%  ------ ||
|| hamiltonian_energy_components        :     4      762.44s   0.980%  ------ ||
|| integrals_locpot_mat_els_batch       :  2079     1032.18s   1.326%  ------ ||
|| basis_add_function_to_box            : 58.16M    1091.49s   1.402%  ------ ||
|| ke_density_batch_grad_apply          :  4004     1214.99s   1.561%  ------ ||
|| ke_density_batch_row_sums            :  4004     1502.33s   1.930%  ------ ||
|| density_batch_row_sums               :  4004     1504.29s   1.933%  ------ ||
|| fourier_apply_cell_backward          :  9835     1699.44s   2.183%  79.938 ||
|| fourier_apply_cell_forward           :  9833     2004.31s   2.575%  67.765 ||
|| density_fftbox_deposit_to_cell       : 59696     2020.23s   2.595%  ------ ||
|| ke_density_fftbox_deposit_to_cell    : 59696     2145.04s   2.756%  ------ ||
|| cell_grid_deposit_box_real           : 121.7k    2406.06s   3.091%  ------ ||
|| sparse_product                       :  7546     2462.89s   3.164%  ------ ||
|| cell_grid_extract_box_real           : 148.8k    2541.95s   3.266%  ------ ||
|| ngwf_gradient_build_batch            :   198     2864.57s   3.680%  ------ ||
|| multigrid_prepare_bound_cond         :   365     2869.56s   3.687%  ------ ||
|| ngwf_gradient_batch                  :   198     3218.44s   4.135%  ------ ||
|| ngwf_gradient_lnv                    :    18     3418.41s   4.392%  ------ ||
|| potential_apply_to_ngwf_batch        :  2079     3973.31s   5.105%  ------ ||
|| density_fftbox_interpolate_multiply  : 59696     4390.29s   5.640%  ------ ||
|| xc_energy_potential                  :   365     4940.60s   6.347%  ------ ||
|| integrals_locpot_dbl_grid            :   189     5023.47s   6.454%  ------ ||
|| density_batch_interp_deposit         :  4004     7287.59s   9.362%  ------ ||
|| dl_mg_solver_calls                   :   365     7552.70s   9.703%  ------ ||
|| nlxc_vdw_energy                      :   728     8265.46s  10.619%  ------ ||
|| density_on_dbl_grid                  :   364     9337.41s  11.996%  ------ ||
|| multigrid_calculate_hartree          :   365    10597.58s  13.615%  ------ ||
|| potential_apply_to_fftbox_batch      :  5940    10667.82s  13.705%  ------ ||
|| integrals_div_locpot_grad_functions  :   180    15798.35s  20.296%  ------ ||
|| ke_density_fftbox_interpolate_multipl: 59696    17625.44s  22.643%  ------ ||
|| ke_density_batch_interp_deposit      :  4004    20643.01s  26.520%  ------ ||
|| fourier_apply_box                    : 1.354M   22972.04s  29.512% 802.047 ||
|| ke_density_on_dbl_grid               :   364    23963.96s  30.786%  ------ ||
|| hamiltonian_lhxc_calculate           :   360    48858.10s  62.768%  ------ ||
|| lnv_denskernel_optimise_cg           :    18    69836.87s  89.719%  ------ ||
|| ngwf_cg_optimise                     :     2    77015.15s  98.941%  ------ ||
|| total_time                           :     1    77839.37s 100.000%  ------ ||
================================================================================
Overhead of generating timer report: 
- 0 ms averaging over threads,
- 7 ms ensuring consistency across MPI ranks,
- 2 ms printing in order.

Job completed: 24-03-2020 19:20 (-0000)

