 +---------------------------------------------------------------+
 |                                                               |
 |        ####### #     # ####### ####### ####### ######         |
 |        #     # ##    # #          #    #       #     #        |
 |        #     # # #   # #          #    #       #     #        |
 |        #     # #  #  # #####      #    #####   ######         |
 |        #     # #   # # #          #    #       #              |
 |        #     # #    ## #          #    #       #              |
 |        ####### #     # #######    #    ####### #              |
 |                                                               |
 |        Linear-Scaling Ab Initio Total Energy Program          |
 |                                                               |
 |          Release for academic collaborators of ODG            |
 |                                             Version 5.3.2.6.  |
 |                                                               |
 +---------------------------------------------------------------+
 |                                                               |
 |  Authors:                                                     |
 |  Jacek Dziedzic, Peter D. Haynes, Nicholas D. M. Hine,        |
 |  Arash. A. Mostofi, Mike C. Payne and Chris-Kriton Skylaris   |
 |                                                               |
 |  Contributors:                                                |
 |  J. Aarons, L. Andrinopoulos, P. W. Avraam, R. A. Bell,       |
 |  A. Bhandari, G. A. Bramley, R. J. Charlton, S. J. Clark,     |
 |  R. J. Clements, G. C. Constantinescu, F. Corsetti,           |
 |  N. Corsini, O. Dieguez, S. M. M. Dubois, K. K. B. Duff,      |
 |  J. M. Escartin, A. Greco, H. Helal, Q. O. Hill, L. P. Lee,   |
 |  J.-H. Li, E. B. Linscott, G. Moynihan, D. D. O`Regan,        |
 |  O. K. Okan, M. J. S. Phipps, C. J. Pickard,                  |
 |  J. C. A. Prentice, M. I. J. Probert, L. E. Ratcliff,         |
 |  M. Robinson, A. Ruiz Serrano, J. S. Spencer, E. W. Tait,     |
 |  G. Teobaldi, D. Turban, V. Vitale, K. A. Wilkinson,          |
 |  C. Weber, J. C. Womack, N. Yeung and T. J. Zuehlsdorff       |
 |                                                               |
 |                                   Copyright (c) 2004-2019     |
 |                                                               |
 |  Please cite:                                                 |
 |  "Introducing ONETEP: Linear-scaling density functional       |
 |   simulations on parallel computers".                         |
 |   C.-K. Skylaris, P. D. Haynes, A. A. Mostofi, M. C. Payne.   |
 |   J. Chem. Phys. 122 084119 (2005).                           |
 |                                                               |
 |          in all publications arising from your use of ONETEP. |
 |                                                               |
 +---------------------------------------------------------------+
 |                                                               |
 |   ONETEP is based on developments described in the following  |
 |   publications:                                               |
 |                                                               |
 |  "Nonorthogonal generalized Wannier function pseudopotential  |
 |   plane-wave method".                                         |
 |   C.-K. Skylaris, A. A. Mostofi, P. D. Haynes, O. Dieguez,    |
 |   M. C. Payne.                                                |
 |   Phys. Rev. B 66 035119 (2002).                              |
 |                                                               |
 |  "Preconditioned iterative minimization for linear-scaling    |
 |   electronic structure calculations".                         |
 |   A. A. Mostofi, P. D. Haynes, C.-K. Skylaris, M. C. Payne.   |
 |   J. Chem. Phys. 119(17), pp.8842-8848 (2003).                |
 |                                                               |
 |  "Total-energy calculations on a real space grid with         |
 |   localized functions and a plane-wave basis".                |
 |   A. A. Mostofi, C.-K. Skylaris, P. D. Haynes, M. C. Payne.   |
 |   Comput. Phys. Commun. 147, pp.788-802 (2002).               |
 |                                                               |
 |  "Accurate kinetic energy evaluation in electronic structure  |
 |   calculations with localized functions on real space grids"  |
 |   C.-K. Skylaris, A. A. Mostofi, P. D. Haynes, C. J. Pickard, |
 |   M. C. Payne.                                                |
 |   Comput. Phys. Commun. 140, pp.315-322 (2001).               |
 |                                                               |
 |  "Accurate ionic forces and geometry optimization in linear-  |
 |   scaling density-functional theory with local orbitals"      |
 |   N. D. M. Hine, M. Robinson, P. D. Haynes, C.-K. Skylaris,   |
 |   M. C. Payne, and A. A. Mostofi.                             |
 |   Phys. Rev. B 83 195102 (2011).                              |
 |                                                               |
 +---------------------------------------------------------------+

Job started: 15-02-2020 06:25 (-0000)
 
Reading parameters from file "complex_20241.dat" ...... done

If your calculation crashes here, before "Checking processes and threads..."
is displayed, then your stack size is insufficient.
If so, use "ulimit -s unlimited" at runtime.
You can disable this check with "check_stack_size F".

Checking processes and threads...
   Determining the default number of threads...
      No default threads set at compilation time: defaulting to 1.
      OpenMP library call suggests 4 threads.
      Hybrid MPI-OpenMP compilation detected.
      Number of MPI processes > 1.
      OMP_NUM_THREADS environment variable present and
      its value matches the one obtained from the OpenMP library call.
      Using this value as default.
      Default threads: 4
      Default applies to threads_max and threads_num_fftboxes.
      Settings in the input file override this default.
   ... done

   Running with 40 MPI processes.
   There are 10 MPI processes running on the same node as the root process.
   Each MPI process is using: 
               1 threads for simulation cell FFTs.
               1 threads for parallel FFT box operations.
               4 threads for loops over batched FFT box operations.
               4 threads in other parallel regions.
... done

Basic input checks...... done

Reading geometry and species blocks from file "complex_20241.dat" ...
  <species_atomic_set> block not found: NGWF initialisation set to SOLVE
IS: Dielectric excluded regions:
    - NONE.
    
  Number of PPD points along a3 set to 1.  This is 
  the default value, it may have been provided also in the input file.
... done
 Writing xyz coordinates to file "complex_20241.xyz" ... done


--------------------------------------------------------------------------------
---------------------------------- INPUT FILE ----------------------------------
--------------------------------------------------------------------------------

cutoff_energy       : 800 eV                                                    
xc_functional B97M-V                                                            
task SINGLEPOINT                                                                
write_xyz true                                                                  
output_detail VERBOSE                                                           
ngwf_threshold_orig : 0.000002                                                  
kernel_cutoff       : 1000                                                      
k_zero              : 3.5                                                       
elec_cg_max 0                                                                   
occ_mix 1.0                                                                     
dispersion 0                                                                    
maxit_ngwf_cg 40                                                                
minit_lnv 10                                                                    
maxit_lnv 10                                                                    
write_denskern T                                                                
write_tightbox_ngwfs T                                                          
charge 9                                                                        
is_implicit_solvent T                                                           
is_auto_solvation T                                                             
is_include_apolar T                                                             
is_smeared_ion_rep T                                                            
is_solvent_surf_tension 4.7624E-5 Ha/bohr**2                                    
is_apolar_scaling_factor 0.281075                                               
is_solvation_beta 1.3                                                           
is_density_threshold 0.00035                                                    
is_bulk_permittivity 78.54                                                      
is_dielectric_model fix_initial                                                 
is_smeared_ion_width 0.8                                                        
mg_defco_fd_order 8                                                             
is_bc_coarseness 10                                                             
is_bc_surface_coarseness 1                                                      
fine_grid_scale 2.0                                                             
%block species                                                                  
N   N   7 4 8.0                                                                 
H   H   1 1 8.0                                                                 
C   C   6 4 8.0                                                                 
S   S  16 9 8.0                                                                 
O   O   8 4 8.0                                                                 
%endblock species                                                               
%block species_pot                                                              
N   N_00.recpot                                                                 
H   H_04.recpot                                                                 
C   C_01.recpot                                                                 
S   S_00.recpot                                                                 
O   O_02.recpot                                                                 
%endblock species_pot                                                           
%block lattice_cart                                                             
137.614   0.000   0.000                                                         
0.000 142.646   0.000                                                           
0.000   0.000   160.855                                                         
%endblock lattice_cart                                                          
%block positions_abs                                                            
     Hash =   000007247344285542077589
%endblock positions_abs                                                         

--------------------------------------------------------------------------------
-------------------------------- END INPUT FILE --------------------------------
--------------------------------------------------------------------------------


 
 ESDF WARNING(1): "kernelcutoff" (esdf_physical) has no units. Assume "bohr".
 ESDF WARNING(2): "kzero" (esdf_physical) has no units. Assume "1/bohr".
 ESDF WARNING(3
 ): "issmearedionwidth" (esdf_physical) has no units. Assume "bohr".
<<<<<<<<<<<<<<<<<<<<<<<<<<<<<<<<< Full system >>>>>>>>>>>>>>>>>>>>>>>>>>>>>>>>>>
<<<<<<<<<<<<<<<<<<<<<<<<< Pseudopotential information >>>>>>>>>>>>>>>>>>>>>>>>>>
File: N_00.recpot [ 2001 points up to Gmax=  52.9 (1/bohr)]
  Atomic number:  7;  ionic charge:  5.000000
    Shell 1: l = 0; rc = 1.48 bohr
File: H_04.recpot [ 2001 points up to Gmax=  52.9 (1/bohr)]
  Atomic number:  1;  ionic charge:  1.000000
    Local potential
File: C_01.recpot [ 2001 points up to Gmax=  52.9 (1/bohr)]
  Atomic number:  6;  ionic charge:  4.000000
    Shell 1: l = 0; rc = 1.48 bohr
File: S_00.recpot [ 2001 points up to Gmax=  52.9 (1/bohr)]
  Atomic number: 16;  ionic charge:  6.000000
    Shell 1: l = 0; rc = 1.90 bohr
    Shell 2: l = 2; rc = 1.84 bohr
File: O_02.recpot [ 2001 points up to Gmax=  52.9 (1/bohr)]
  Atomic number:  8;  ionic charge:  6.000000
    Shell 1: l = 0; rc = 1.31 bohr
<<<<<<<<<<<<<<<<<<<<<<<<<<<<<<<<<<<<<<<<>>>>>>>>>>>>>>>>>>>>>>>>>>>>>>>>>>>>>>>>

-------------------------- Atom counting information ---------------------------
Symbol    Natoms    Nngwfs    Nprojs
  N        236       944       236
  H       1319      1319         0
  C        817      3268       817
  S          6        54        36
  O        240       960       240
.......   ......    ......    ......
Totals:   2618      6545      1329
--------------------------------------------------------------------------------

=============================== PSINC grid sizes ===============================
                      Simulation cell:  273 x 286 x 320
                              FFT-box:   99 x 105 x  99
                                  PPD:    7 x  11 x   1
Grid space d1=  0.504080586081a0 (KE cutoff=  29.89538Eh = 813.49465eV)
Grid space d2=  0.498762237762a0 (KE cutoff=  30.53633Eh = 830.93588eV)
Grid space d3=  0.502671875000a0 (KE cutoff=  30.06317Eh = 818.06059eV)
================================================================================

********************* Fourier parallelisation information **********************
       Coarse grid (whole simulation cell) dimensions:    273   286   320
          Real-space ('12') slabs/node (min max mean):      8     8     8
         Recip-space ('23') slabs/node (min max mean):      3     4     3
********************************************************************************

********************* Fourier parallelisation information **********************
       Double grid (whole simulation cell) dimensions:    546   572   640
          Real-space ('12') slabs/node (min max mean):     16    16    16
         Recip-space ('23') slabs/node (min max mean):      6     7     6
********************************************************************************
ONETEP fine grid is 546 x 572 x 640 gridpoints, 137.6140 x 142.6460 x 160.8550 bohr.
FD multigrid is     545 x 569 x 633 gridpoints, 137.3620 x 141.8979 x 159.0956 bohr.


Calculating local pseudopotential in open BC on a radial grid ...
Discrepancy between calculated realspace psloc and -Z/x on [5a0,255.264a0]:
max |rel. diff| # avg |rel. diff| #  avg rel. diff #  f # pseudopotential file
 0.000296759711    0.000009439468   0.000000085927   54  'N_00.recpot'
 0.000490027943    0.000021572324  -0.000000031900   54  'H_04.recpot'
 0.000320795249    0.000014598087   0.000000111901   54  'C_01.recpot'
 0.000388730920    0.000016096375   0.000000514750   54  'S_00.recpot'
 0.000828383344    0.000035421288   0.000000087443   54  'O_02.recpot'
... done
 WARNING: meta-GGA functionality under development.
          Using this functional is experimental.
          Minimum tau threshold, xc_min_tau =   1.00000000E-12
 WARNING: Using alternative XC functional PBE for 
          radial densities (xc_radial).

Atom SCF Calculation for N  : Z (AE atom) =   7 : Z (PS atom) =   5
Config String:
Orbitals (num,occ):  2     2.00 3.00
Orbitals   (num,l):  2        0    1
Real-space Grid (nr,dr,rmax): 1203    0.0066555740    8.0000000000
Spherical Bessel Basis (nsws,lmax,cutoff):   47    1  176.3951722778
Confining potential (l,width,scale):  0    3.0000000000  100.0000000000
Confining potential (l,width,scale):  1    3.0000000000  100.0000000000
  1         -4.7312375307   -3.4155304497    7.0523828109   -1.9351020946
  2         -9.7309464766   -2.0532547791    8.2966052865   -2.2494486027
  3         -9.6627394379   -2.1124926340    8.2327997121   -2.2369778124
  4         -9.6814993499   -2.1215521045    8.2229805960   -2.2365178421
  5         -9.6843326483   -2.1250939529    8.2191374534   -2.2362718126
  6         -9.6859628709   -2.1267894855    8.2172963573   -2.2362066344
  7         -9.6867347035   -2.1276425665    8.2163697352   -2.2361903369
  8         -9.6870802100   -2.1280764625    8.2158983890   -2.2361891460
  9         -9.6872290423   -2.1282977424    8.2156580222   -2.2361920435
 10         -9.6872901988   -2.1284107021    8.2155353368   -2.2361953393
 11         -9.6873135296   -2.1284684031    8.2154726809   -2.2361979819
 12         -9.6873212476   -2.1284978948    8.2154406648   -2.2361998431
 13         -9.6873229586   -2.1285129774    8.2154242957   -2.2362010676
 14         -9.6873226456   -2.1285206957    8.2154159216   -2.2362018403
 15         -9.6873218534   -2.1285246479    8.2154116349   -2.2362023142
 16         -9.6873212599   -2.1285262679    8.2154098784   -2.2362025420
 17         -9.6873207834   -2.1285272564    8.2154088068   -2.2362026955
 18         -9.6873204210   -2.1285278597    8.2154081529   -2.2362027982
 19         -9.6873201550   -2.1285282280    8.2154077538   -2.2362028667
 20         -9.6873199645   -2.1285284529    8.2154075102   -2.2362029121
 21         -9.6873198305   -2.1285285903    8.2154073614   -2.2362029421
 22         -9.6873197377   -2.1285286742    8.2154072705   -2.2362029618
Atom SCF converged after  22 iterations to a total energy of     -9.68731974

Atom SCF Calculation for H  : Z (AE atom) =   1 : Z (PS atom) =   1
Config String:
Orbitals (num,occ):  1     1.00
Orbitals   (num,l):  1        0
Real-space Grid (nr,dr,rmax): 1203    0.0066555740    8.0000000000
Spherical Bessel Basis (nsws,lmax,cutoff):   47    0  176.3951722778
Confining potential (l,width,scale):  0    3.0000000000  100.0000000000
  1         -0.3194257691   -0.2393854593    0.2820953124   -0.2424203209
  2         -0.3951823392   -0.2377116493    0.2886404059   -0.2475147891
  3         -0.4317044583   -0.2352244387    0.2921333887   -0.2514046172
  4         -0.4470703708   -0.2341892222    0.2934391879   -0.2531009782
  5         -0.4532132900   -0.2338556667    0.2938388426   -0.2537313520
  6         -0.4556579251   -0.2337612552    0.2939448584   -0.2539550462
  7         -0.4566418315   -0.2337377355    0.2939680120   -0.2540342273
  8         -0.4570437922   -0.2337331116    0.2939708287   -0.2540627372
  9         -0.4572102946   -0.2337328328    0.2939698291   -0.2540732650
 10         -0.4572800424   -0.2337332404    0.2939687193   -0.2540772588
 11         -0.4573095100   -0.2337335791    0.2939680317   -0.2540788122
 12         -0.4573220379   -0.2337337762    0.2939676699   -0.2540794294
 13         -0.4573273880   -0.2337338775    0.2939674931   -0.2540796787
 14         -0.4573296803   -0.2337339266    0.2939674099   -0.2540797808
 15         -0.4573306647   -0.2337339495    0.2939673718   -0.2540798230
 16         -0.4573310882   -0.2337339601    0.2939673545   -0.2540798406
 17         -0.4573312706   -0.2337339649    0.2939673467   -0.2540798479
 18         -0.4573313493   -0.2337339670    0.2939673433   -0.2540798510
Atom SCF converged after  18 iterations to a total energy of     -0.45733135

Atom SCF Calculation for C  : Z (AE atom) =   6 : Z (PS atom) =   4
Config String:
Orbitals (num,occ):  2     2.00 2.00
Orbitals   (num,l):  2        0    1
Real-space Grid (nr,dr,rmax): 1203    0.0066555740    8.0000000000
Spherical Bessel Basis (nsws,lmax,cutoff):   47    1  176.3951722778
Confining potential (l,width,scale):  0    3.0000000000  100.0000000000
Confining potential (l,width,scale):  1    3.0000000000  100.0000000000
  1         -5.2976922011   -1.3069684169    4.5135249990   -1.4493313817
  2         -5.3721716256   -1.3429755895    4.4750154450   -1.4361613026
  3         -5.3809959565   -1.3617365618    4.4541655428   -1.4305930207
  4         -5.3918938866   -1.3667928461    4.4484735100   -1.4294652294
  5         -5.3956096428   -1.3688539142    4.4461376126   -1.4290734646
  6         -5.3968271862   -1.3696852393    4.4451910874   -1.4289366866
  7         -5.3972028401   -1.3700178062    4.4448112275   -1.4288900460
  8         -5.3973067903   -1.3701500158    4.4446598370   -1.4288749220
  9         -5.3973286940   -1.3702023868    4.4445997329   -1.4288704293
 10         -5.3973289850   -1.3702230869    4.4445759233   -1.4288693188
 11         -5.3973254264   -1.3702312560    4.4445665049   -1.4288691775
 12         -5.3973224003   -1.3702344755    4.4445627836   -1.4288692549
 13         -5.3973208708   -1.3702354890    4.4445616088   -1.4288693270
 14         -5.3973198783   -1.3702360102    4.4445610034   -1.4288693814
 15         -5.3973192535   -1.3702362780    4.4445606917   -1.4288694190
 16         -5.3973188684   -1.3702364155    4.4445605313   -1.4288694437
 17         -5.3973186349   -1.3702364860    4.4445604489   -1.4288694595
 18         -5.3973184951   -1.3702365221    4.4445604065   -1.4288694693
 19         -5.3973184122   -1.3702365405    4.4445603848   -1.4288694753
Atom SCF converged after  19 iterations to a total energy of     -5.39731841

Atom SCF Calculation for S  : Z (AE atom) =  16 : Z (PS atom) =   6
Config String:
Orbitals (num,occ):  3     2.00 4.00 0.00
Orbitals   (num,l):  3        0    1    2
Real-space Grid (nr,dr,rmax): 1203    0.0066555740    8.0000000000
Spherical Bessel Basis (nsws,lmax,cutoff):   47    2  176.3951722778
Confining potential (l,width,scale):  0    3.0000000000  100.0000000000
Confining potential (l,width,scale):  1    3.0000000000  100.0000000000
Confining potential (l,width,scale):  2    3.0000000000  100.0000000000
  1        -12.4735062396   -1.0328741412   10.1554312477   -2.4512393157
  2         -9.9458301913   -2.4607392455    8.3041325857   -2.0306994528
  3        -10.1450417646   -2.2931184565    8.4831893826   -2.0812538287
  4        -10.1528335592   -2.2733105793    8.5050388867   -2.0896035179
  5        -10.1571940363   -2.2633716629    8.5160794258   -2.0939370707
  6        -10.1594380571   -2.2584938667    8.5215163935   -2.0961289008
  7        -10.1605856507   -2.2561081821    8.5241804044   -2.0972291378
  8        -10.1611799191   -2.2549395235    8.5254868240   -2.0977806248
  9        -10.1614918752   -2.2543658586    8.5261285885   -2.0980571586
 10        -10.1616572884   -2.2540839121    8.5264441898   -2.0981959233
 11        -10.1617455602   -2.2539453058    8.5265994231   -2.0982656006
 12        -10.1617928447   -2.2538772062    8.5266757320   -2.0983006047
 13        -10.1618182292   -2.2538437891    8.5267131983   -2.0983181961
 14        -10.1618318741   -2.2538274201    8.5267315620   -2.0983270391
 15        -10.1618392144   -2.2538194197    8.5267405433   -2.0983314852
 16        -10.1618431651   -2.2538155200    8.5267449245   -2.0983337210
 17        -10.1618452923   -2.2538136252    8.5267470551   -2.0983348455
 18        -10.1618464380   -2.2538127080    8.5267480875   -2.0983354110
 19        -10.1618470552   -2.2538122659    8.5267485856   -2.0983356955
 20        -10.1618473878   -2.2538120540    8.5267488248   -2.0983358386
 21        -10.1618475670   -2.2538119530    8.5267489389   -2.0983359106
 22        -10.1618476637   -2.2538119053    8.5267489929   -2.0983359468
Atom SCF converged after  22 iterations to a total energy of    -10.16184766

Atom SCF Calculation for O  : Z (AE atom) =   8 : Z (PS atom) =   6
Config String:
Orbitals (num,occ):  2     2.00 4.00
Orbitals   (num,l):  2        0    1
Real-space Grid (nr,dr,rmax): 1203    0.0066555740    8.0000000000
Spherical Bessel Basis (nsws,lmax,cutoff):   47    1  176.3951722778
Confining potential (l,width,scale):  0    3.0000000000  100.0000000000
Confining potential (l,width,scale):  1    3.0000000000  100.0000000000
  1         -1.8735052164   -7.5539365035   10.1554312477   -2.4512393157
  2        -16.0318313751   -3.1285771268   13.6395848164   -3.2358799643
  3        -15.9524020423   -3.0762819706   13.6967272503   -3.2536856837
  4        -15.8521515939   -3.0781493909   13.6951909330   -3.2561700440
  5        -15.8357139793   -3.0748501933   13.6988803334   -3.2580493133
  6        -15.8246052853   -3.0740779781   13.6997881576   -3.2588327446
  7        -15.8189019501   -3.0737449687   13.7001869911   -3.2592378801
  8        -15.8159785510   -3.0736026016   13.7003615168   -3.2594475790
  9        -15.8144776168   -3.0735437994   13.7004360379   -3.2595560735
 10        -15.8137058024   -3.0735207882   13.7004667348   -3.2596122456
 11        -15.8133083127   -3.0735125946   13.7004786868   -3.2596413656
 12        -15.8131032938   -3.0735102195   13.7004828997   -3.2596564858
 13        -15.8129973902   -3.0735099286   13.7004840891   -3.2596643505
 14        -15.8129426040   -3.0735102506   13.7004842061   -3.2596684489
 15        -15.8129142203   -3.0735106556   13.7004840157   -3.2596705887
 16        -15.8128994940   -3.0735109855   13.7004837906   -3.2596717080
 17        -15.8128918425   -3.0735112169   13.7004836103   -3.2596722946
 18        -15.8128878614   -3.0735113674   13.7004834848   -3.2596726026
 19        -15.8128857871   -3.0735114608   13.7004834035   -3.2596727646
 20        -15.8128847048   -3.0735115170   13.7004833533   -3.2596728500
 21        -15.8128841394   -3.0735115501   13.7004833231   -3.2596728951
 22        -15.8128838436   -3.0735115693   13.7004833054   -3.2596729190
 23        -15.8128836887   -3.0735115802   13.7004832951   -3.2596729316
 24        -15.8128836074   -3.0735115864   13.7004832893   -3.2596729383
Atom SCF converged after  24 iterations to a total energy of    -15.81288361

========================== Calculation in vacuum ==============================
= Adjusting the following parameters: 
= is_implicit_solvent: F
= is_include_apolar: F
= write_denskern: T
= write_tightbox_ngwfs: T
= restart read filename prefix: ""
= restart write filename prefix: "vacuum_"
===============================================================================

Determining parallel strategy ...
... using space-filling curve
... NGWF load balancing: max    164;  min    163;  average    164
... Projector load balancing: max     36;  min     32;  average     33
... done
Calculating direct Ion-Ion energy ...
Ion-Ion Energy        :    837527.63638613815419
Basis initialisation ...... NGWF spheres initialised
... Projector spheres initialised
... NGWF tight boxes initialised
... Tight-boxes gathered
... NGWF basis size (local,global):    1125220  44950659
... Nonlocal pseudopotential projector initialisation
... done

========================== Sparse matrix information ===========================
                        Overlap matrix filling:   6.73%
                        Density kernel filling: 100.00%
              NGWF-Proj overlap matrix filling:   1.75%
                    Hamiltonian matrix filling:   7.59%
                  NGWF diagonal matrix filling:   0.05%
                             KS matrix filling: 100.00% 
                           KSKS matrix filling: 100.00% 
================================================================================

Sparse matrix initialisation ... done

Generating smeared ion density ... done
Smeared ion self correction:     -14534.963309
Smeared ion non-self correction: -837479.285589
NGWF initialisation ...... done
============ Calculation of NGWF S^-1 using Hotelling algorithm ================ 
         Iteration  |  Frobenius norm and Maximum abs value    (of I-S*S_n^-1)   
               1       0.78752277E+02     0.98284152E+00
               2       0.76917528E+02     0.96614235E+00
               3       0.73938063E+02     0.93403543E+00
               4       0.69688579E+02     0.87446534E+00
               5       0.64381961E+02     0.77164437E+00
               6       0.58407715E+02     0.70621955E+00
               7       0.52385813E+02     0.67256037E+00
               8       0.46819719E+02     0.64292664E+00
               9       0.40771017E+02     0.60200116E+00
              10       0.32542260E+02     0.53288489E+00
              11       0.21977065E+02     0.43632678E+00
              12       0.11318704E+02     0.30031671E+00
              13       0.37907300E+01     0.14521271E+00
              14       0.62629775E+00     0.34879174E-01
              15       0.34200684E-01     0.33890606E-02
              16       0.24915782E-03     0.37650264E-04
              17       0.23099540E-07     0.47616696E-08
              18       0.99177986E-13     0.53290705E-14
================================================================================
Calculating local pseudopotential in open BC on the fine real space grid ...
... done

MG BCs: +ve charge blocks (gridpoints):     20672 (   16300268).
MG BCs: -ve charge blocks (gridpoints):      8159 (    1103036).
MG BCs:     Elided blocks (gridpoints):    179968 (  178893161).
MG BCs: Computational effort saved:  99.9853%.
MG BCs: Charge after coarse-graining:           -9.0002267.
MG DL_MG: Calling solver with defect correction order = 8
MG DL_MG: Solver finished
MG Hartree energy from (\int phi*rho dr):              1472.014354
MG Hartree energy from (\int eps (grad phi)^2 dr):     1471.402771
MG Discrepancy due to finite box and discretization:     -0.611582 (  -0.04155%)
MG Correction to account for finite box:                  0.464149
MG Remaining discrepancy, due to discretization:         -0.147433 (  -0.01002%)
 WARNING: xc_energy_potential using alternative initial XC functional PBE.
Up spin density kernel initialisation ... 
======= Optimisation of K by Palser-Manolopoulos canonical purification ======== 
         Iteration  |  Band structure energy |    c_n   
               1       -2587.45184693474812    0.5279790
               2       -2763.99360757973409    0.5177562
               3       -2946.48835860682357    0.5152349
               4       -3100.82120731542364    0.5277381
               5       -3197.41779871744211    0.5627647
               6       -3238.48139505561176    0.6087491
               7       -3252.35990833324286    0.6212553
               8       -3258.31965412687077    0.6181485
               9       -3261.23408279897012    0.6289596
              10       -3262.44691930198132    0.6415356
              11       -3262.93054256939786    0.6315839
              12       -3263.15025922042423    0.5950807
              13       -3263.25612826467568    0.5323734
              14       -3263.30070314178056    0.4759095
              15       -3263.30931085043676    0.4991335
              16       -3263.31141149886298    0.5766305
              17       -3263.31213371191006    0.6448680
              18       -3263.31229169263770    0.6587665
              19       -3263.31234475129349    0.6519419
              20       -3263.31240214953323    0.6403543
              21       -3263.31247365799982    0.6224309
              22       -3263.31256186407791    0.5960402
              23       -3263.31266242063339    0.5617149
              24       -3263.31275716047230    0.5269077
              25       -3263.31281637713619    0.5053650
              26       -3263.31283250104525    0.5002149
              27       -3263.31283342092775    0.5000009
              28       -3263.31283342372535    0.5000009
Termination criterion satisfied: band energy change below threshold.
Final occupancy bounds: [    0.00000000000000:    1.00000000000000]
Closest occupancy to 0.5:     1.00000000000000
================================================================================
... done

Writing density kernel to file "complex_20241.vacuum_dkn" ... done

>>> Optimising kernel for current NGWFs:
   Initial electron number for spin 1:    7234.00000000
     Final electron number for spin 1:    7234.00000000

=================== Penalty functional idempotency correction ==================
 RMS occupancy error at iteration   1:  0.000000 (step -0.5000 Ne1=   7234.0000)
            Final RMS occupancy error   :  0.000000 (Ne1=   7234.0000)
               Final occupancy bounds   : [  0.0000,  1.0000]
================================================================================

................................................................................
<<<<<<<<<<<<<< LNV (Original version) density kernel optimisation >>>>>>>>>>>>>>
~~~~~~~~~~~~~~~~~~~~~~~~~~~~~~~~~~~~~~~~~~~~~~~~~~~~~~~~~~~~~~~~~~~~~~~~~~~~~~~~
   iter  |      energy (Eh)       | rms gradient |  commutator  |   dE (Eh)
MG BCs: +ve charge blocks (gridpoints):     31141 (   17410121).
MG BCs: -ve charge blocks (gridpoints):      8484 (    1136549).
MG BCs:     Elided blocks (gridpoints):    169492 (  177749795).
MG BCs: Computational effort saved:  99.9798%.
MG BCs: Charge after coarse-graining:           -9.0009618.
MG DL_MG: Calling solver with defect correction order = 8
MG DL_MG: Solver finished
MG Hartree energy from (\int phi*rho dr):              1428.464615
MG Hartree energy from (\int eps (grad phi)^2 dr):     1427.805468
MG Discrepancy due to finite box and discretization:     -0.659146 (  -0.04614%)
MG Correction to account for finite box:                  0.470068
MG Remaining discrepancy, due to discretization:         -0.189078 (  -0.01324%)
      ideal mu1:      -0.706872235791
             Q0:  -11529.068785264157
             G0:    -131.359607726887
   RMS gradient:       0.001751141621
MG BCs: +ve charge blocks (gridpoints):     31121 (   17488955).
MG BCs: -ve charge blocks (gridpoints):      8380 (    1113116).
MG BCs:     Elided blocks (gridpoints):    169508 (  177694394).
MG BCs: Computational effort saved:  99.9799%.
MG BCs: Charge after coarse-graining:           -9.0009845.
MG DL_MG: Calling solver with defect correction order = 8
MG DL_MG: Solver finished
MG Hartree energy from (\int phi*rho dr):              1449.541257
MG Hartree energy from (\int eps (grad phi)^2 dr):     1448.898252
MG Discrepancy due to finite box and discretization:     -0.643005 (  -0.04436%)
MG Correction to account for finite box:                  0.469134
MG Remaining discrepancy, due to discretization:         -0.173870 (  -0.01199%)
     Trial step:       0.500000000000
             Q1:  -11542.324330719304
 Quadratic coef:      52.424258408295
 Linear coef   :     -65.679803863443
           Qmin:  -11549.640543294299
Quadratic minimum step length (  0.313212842001) accepted
    Initial Ne1:    7234.00000000
      Final Ne1:    7234.00000000

=================== Penalty functional idempotency correction ==================
 RMS occupancy error at iteration   1:  0.003400 (step -0.4881 Ne1=   7234.0000)
 RMS occupancy error at iteration   2:  0.000035 (step -0.5006 Ne1=   7234.0000)
            Final RMS occupancy error   :  0.000000 (Ne1=   7234.0000)
               Final occupancy bounds   : [  0.0000,  1.0000]
================================================================================

    1        -1.152906878526E+04     1.7511E-03     1.5844E-03
MG BCs: +ve charge blocks (gridpoints):     31121 (   17461055).
MG BCs: -ve charge blocks (gridpoints):      8429 (    1122094).
MG BCs:     Elided blocks (gridpoints):    169510 (  177713316).
MG BCs: Computational effort saved:  99.9799%.
MG BCs: Charge after coarse-graining:           -9.0009760.
MG DL_MG: Calling solver with defect correction order = 8
MG DL_MG: Solver finished
MG Hartree energy from (\int phi*rho dr):              1434.991920
MG Hartree energy from (\int eps (grad phi)^2 dr):     1434.343708
MG Discrepancy due to finite box and discretization:     -0.648212 (  -0.04517%)
MG Correction to account for finite box:                  0.469384
MG Remaining discrepancy, due to discretization:         -0.178827 (  -0.01246%)
      ideal mu1:      -0.758001432221
             Q0:  -11550.056366851903
             G0:     -12.199171845070
   RMS gradient:       0.000529585025
MG BCs: +ve charge blocks (gridpoints):     31116 (   17477538).
MG BCs: -ve charge blocks (gridpoints):      8394 (    1115165).
MG BCs:     Elided blocks (gridpoints):    169514 (  177703762).
MG BCs: Computational effort saved:  99.9799%.
MG BCs: Charge after coarse-graining:           -9.0009809.
MG DL_MG: Calling solver with defect correction order = 8
MG DL_MG: Solver finished
MG Hartree energy from (\int phi*rho dr):              1440.162135
MG Hartree energy from (\int eps (grad phi)^2 dr):     1439.517367
MG Discrepancy due to finite box and discretization:     -0.644768 (  -0.04477%)
MG Correction to account for finite box:                  0.468878
MG Remaining discrepancy, due to discretization:         -0.175890 (  -0.01221%)
     Trial step:       0.395735291578
             Q1:  -11552.839030674542
 Quadratic coef:       2.044979004482
 Linear coef   :      -4.827642827122
           Qmin:  -11552.905556894340
Quadratic minimum step length (  0.467112043116) accepted
    Initial Ne1:    7233.99942147
      Final Ne1:    7234.00000000

=================== Penalty functional idempotency correction ==================
 RMS occupancy error at iteration   1:  0.001671 (step -0.4930 Ne1=   7234.0000)
 RMS occupancy error at iteration   2:  0.000017 (step -0.5006 Ne1=   7234.0000)
            Final RMS occupancy error   :  0.000000 (Ne1=   7234.0000)
               Final occupancy bounds   : [  0.0000,  1.0000]
================================================================================

    2        -1.155005636685E+04     5.2959E-04     4.7914E-04    -2.0988E+01
MG BCs: +ve charge blocks (gridpoints):     31111 (   17480499).
MG BCs: -ve charge blocks (gridpoints):      8379 (    1113977).
MG BCs:     Elided blocks (gridpoints):    169519 (  177701989).
MG BCs: Computational effort saved:  99.9799%.
MG BCs: Charge after coarse-graining:           -9.0009818.
MG DL_MG: Calling solver with defect correction order = 8
MG DL_MG: Solver finished
MG Hartree energy from (\int phi*rho dr):              1441.131928
MG Hartree energy from (\int eps (grad phi)^2 dr):     1440.487738
MG Discrepancy due to finite box and discretization:     -0.644190 (  -0.04470%)
MG Correction to account for finite box:                  0.468794
MG Remaining discrepancy, due to discretization:         -0.175396 (  -0.01217%)
      ideal mu1:      -0.785063201809
             Q0:  -11552.945845759241
             G0:      -2.042357805593
   RMS gradient:       0.000216682506
MG BCs: +ve charge blocks (gridpoints):     31111 (   17481233).
MG BCs: -ve charge blocks (gridpoints):      8389 (    1114014).
MG BCs:     Elided blocks (gridpoints):    169518 (  177701218).
MG BCs: Computational effort saved:  99.9799%.
MG BCs: Charge after coarse-graining:           -9.0009821.
MG DL_MG: Calling solver with defect correction order = 8
MG DL_MG: Solver finished
MG Hartree energy from (\int phi*rho dr):              1440.318814
MG Hartree energy from (\int eps (grad phi)^2 dr):     1439.675001
MG Discrepancy due to finite box and discretization:     -0.643813 (  -0.04470%)
MG Correction to account for finite box:                  0.468615
MG Remaining discrepancy, due to discretization:         -0.175198 (  -0.01216%)
     Trial step:       0.429945020418
             Q1:  -11553.480687130475
 Quadratic coef:       0.343260197193
 Linear coef   :      -0.878101568427
           Qmin:  -11553.507418562307
Quadratic minimum step length (  0.549925974311) accepted
    Initial Ne1:    7233.99963797
      Final Ne1:    7234.00000000

=================== Penalty functional idempotency correction ==================
 RMS occupancy error at iteration   1:  0.000696 (step -0.4962 Ne1=   7234.0000)
 RMS occupancy error at iteration   2:  0.000005 (step -0.5000 Ne1=   7234.0000)
            Final RMS occupancy error   :  0.000000 (Ne1=   7234.0000)
               Final occupancy bounds   : [  0.0000,  1.0000]
================================================================================

    3        -1.155294584576E+04     2.1668E-04     1.9604E-04    -2.8895E+00
MG BCs: +ve charge blocks (gridpoints):     31106 (   17481514).
MG BCs: -ve charge blocks (gridpoints):      8390 (    1114056).
MG BCs:     Elided blocks (gridpoints):    169523 (  177700895).
MG BCs: Computational effort saved:  99.9799%.
MG BCs: Charge after coarse-graining:           -9.0009822.
MG DL_MG: Calling solver with defect correction order = 8
MG DL_MG: Solver finished
MG Hartree energy from (\int phi*rho dr):              1440.098403
MG Hartree energy from (\int eps (grad phi)^2 dr):     1439.454681
MG Discrepancy due to finite box and discretization:     -0.643722 (  -0.04470%)
MG Correction to account for finite box:                  0.468566
MG Remaining discrepancy, due to discretization:         -0.175156 (  -0.01216%)
      ideal mu1:      -0.788464682217
             Q0:  -11553.513273356366
             G0:      -0.520469128061
   RMS gradient:       0.000109608303
MG BCs: +ve charge blocks (gridpoints):     31103 (   17481914).
MG BCs: -ve charge blocks (gridpoints):      8391 (    1113998).
MG BCs:     Elided blocks (gridpoints):    169527 (  177700553).
MG BCs: Computational effort saved:  99.9799%.
MG BCs: Charge after coarse-graining:           -9.0009822.
MG DL_MG: Calling solver with defect correction order = 8
MG DL_MG: Solver finished
MG Hartree energy from (\int phi*rho dr):              1441.263443
MG Hartree energy from (\int eps (grad phi)^2 dr):     1440.619632
MG Discrepancy due to finite box and discretization:     -0.643810 (  -0.04467%)
MG Correction to account for finite box:                  0.468507
MG Remaining discrepancy, due to discretization:         -0.175304 (  -0.01216%)
     Trial step:       0.486248839848
             Q1:  -11553.655901665916
 Quadratic coef:       0.110449200147
 Linear coef   :      -0.253077509696
           Qmin:  -11553.658245492490
Quadratic minimum step length (  0.557082556133) accepted
    Initial Ne1:    7233.99990619
      Final Ne1:    7234.00000000

=================== Penalty functional idempotency correction ==================
 RMS occupancy error at iteration   1:  0.000349 (step -0.4948 Ne1=   7234.0000)
 RMS occupancy error at iteration   2:  0.000004 (step -0.5000 Ne1=   7234.0000)
            Final RMS occupancy error   :  0.000000 (Ne1=   7234.0000)
               Final occupancy bounds   : [  0.0000,  1.0000]
================================================================================

    4        -1.155351327336E+04     1.0961E-04     9.9169E-05    -5.6743E-01
MG BCs: +ve charge blocks (gridpoints):     31103 (   17481967).
MG BCs: -ve charge blocks (gridpoints):      8391 (    1113997).
MG BCs:     Elided blocks (gridpoints):    169527 (  177700501).
MG BCs: Computational effort saved:  99.9799%.
MG BCs: Charge after coarse-graining:           -9.0009823.
MG DL_MG: Calling solver with defect correction order = 8
MG DL_MG: Solver finished
MG Hartree energy from (\int phi*rho dr):              1441.433711
MG Hartree energy from (\int eps (grad phi)^2 dr):     1440.789886
MG Discrepancy due to finite box and discretization:     -0.643825 (  -0.04467%)
MG Correction to account for finite box:                  0.468498
MG Remaining discrepancy, due to discretization:         -0.175327 (  -0.01216%)
      ideal mu1:      -0.788409080709
             Q0:  -11553.659037303180
             G0:      -0.242292123012
   RMS gradient:       0.000075008827
MG BCs: +ve charge blocks (gridpoints):     31103 (   17481355).
MG BCs: -ve charge blocks (gridpoints):      8387 (    1114214).
MG BCs:     Elided blocks (gridpoints):    169528 (  177700896).
MG BCs: Computational effort saved:  99.9799%.
MG BCs: Charge after coarse-graining:           -9.0009820.
MG DL_MG: Calling solver with defect correction order = 8
MG DL_MG: Solver finished
MG Hartree energy from (\int phi*rho dr):              1441.073652
MG Hartree energy from (\int eps (grad phi)^2 dr):     1440.429666
MG Discrepancy due to finite box and discretization:     -0.643985 (  -0.04469%)
MG Correction to account for finite box:                  0.468488
MG Remaining discrepancy, due to discretization:         -0.175497 (  -0.01218%)
     Trial step:       0.520462051085
             Q1:  -11553.744762621704
 Quadratic coef:       0.040378536780
 Linear coef   :      -0.126103855304
           Qmin:  -11553.757494203743
Quadratic minimum step length (  0.812712351852) accepted
    Initial Ne1:    7233.99993544
      Final Ne1:    7234.00000000

=================== Penalty functional idempotency correction ==================
 RMS occupancy error at iteration   1:  0.000782 (step -0.4676 Ne1=   7234.0000)
 RMS occupancy error at iteration   2:  0.000023 (step -0.5002 Ne1=   7234.0000)
            Final RMS occupancy error   :  0.000000 (Ne1=   7234.0000)
               Final occupancy bounds   : [  0.0000,  1.0000]
================================================================================

    5        -1.155365903730E+04     7.5009E-05     6.7865E-05    -1.4576E-01
MG BCs: +ve charge blocks (gridpoints):     31106 (   17481128).
MG BCs: -ve charge blocks (gridpoints):      8386 (    1114293).
MG BCs:     Elided blocks (gridpoints):    169525 (  177701044).
MG BCs: Computational effort saved:  99.9799%.
MG BCs: Charge after coarse-graining:           -9.0009818.
MG DL_MG: Calling solver with defect correction order = 8
MG DL_MG: Solver finished
MG Hartree energy from (\int phi*rho dr):              1440.865685
MG Hartree energy from (\int eps (grad phi)^2 dr):     1440.221606
MG Discrepancy due to finite box and discretization:     -0.644078 (  -0.04470%)
MG Correction to account for finite box:                  0.468484
MG Remaining discrepancy, due to discretization:         -0.175594 (  -0.01219%)
      ideal mu1:      -0.787287079825
             Q0:  -11553.755389598315
             G0:      -0.336051793306
   RMS gradient:       0.000089852056
MG BCs: +ve charge blocks (gridpoints):     31111 (   17480316).
MG BCs: -ve charge blocks (gridpoints):      8392 (    1114799).
MG BCs:     Elided blocks (gridpoints):    169520 (  177701350).
MG BCs: Computational effort saved:  99.9799%.
MG BCs: Charge after coarse-graining:           -9.0009815.
MG DL_MG: Calling solver with defect correction order = 8
MG DL_MG: Solver finished
MG Hartree energy from (\int phi*rho dr):              1439.054857
MG Hartree energy from (\int eps (grad phi)^2 dr):     1438.410679
MG Discrepancy due to finite box and discretization:     -0.644179 (  -0.04476%)
MG Correction to account for finite box:                  0.468512
MG Remaining discrepancy, due to discretization:         -0.175666 (  -0.01221%)
     Trial step:       0.650373690725
             Q1:  -11553.925891028135
 Quadratic coef:       0.048057815266
 Linear coef   :      -0.218559245087
           Qmin:  -11554.003882706818
Quadratic minimum step length (  1.478897678594) accepted
========================= Kernel Line Step Protection ==========================
|  Iter |  Trial Step |   RMS Occupancy Error |   Occupancy Bounds | Accepted? |
    0        0.000000                0.000000    [ 1.0000:  0.0000]
    1        1.478898                0.012108    [ 1.3843: -0.3912]        No
    2        0.739449                0.003807    [ 1.1446: -0.1476]       Yes
================================================================================
    Initial Ne1:    7233.99967284
      Final Ne1:    7234.00000000

=================== Penalty functional idempotency correction ==================
 RMS occupancy error at iteration   1:  0.003807 (step -0.3593 Ne1=   7234.0000)
 RMS occupancy error at iteration   2:  0.000310 (step -0.4974 Ne1=   7234.0000)
 RMS occupancy error at iteration   3:  0.000007 (step -0.5004 Ne1=   7234.0000)
            Final RMS occupancy error   :  0.000000 (Ne1=   7234.0000)
               Final occupancy bounds   : [  0.0000,  1.0000]
================================================================================

    6        -1.155375538960E+04     8.9852E-05     8.1294E-05    -9.6352E-02
MG BCs: +ve charge blocks (gridpoints):     31112 (   17480171).
MG BCs: -ve charge blocks (gridpoints):      8393 (    1114913).
MG BCs:     Elided blocks (gridpoints):    169519 (  177701381).
MG BCs: Computational effort saved:  99.9799%.
MG BCs: Charge after coarse-graining:           -9.0009814.
MG DL_MG: Calling solver with defect correction order = 8
MG DL_MG: Solver finished
MG Hartree energy from (\int phi*rho dr):              1438.847176
MG Hartree energy from (\int eps (grad phi)^2 dr):     1438.202974
MG Discrepancy due to finite box and discretization:     -0.644203 (  -0.04477%)
MG Correction to account for finite box:                  0.468521
MG Remaining discrepancy, due to discretization:         -0.175682 (  -0.01221%)
      ideal mu1:      -0.787435422184
             Q0:  -11553.924255440361
             G0:      -0.801796032616
   RMS gradient:       0.000117354617
========================= Kernel Line Step Protection ==========================
|  Iter |  Trial Step |   RMS Occupancy Error |   Occupancy Bounds | Accepted? |
    0        0.000000                0.000000    [ 1.0000:  0.0000]
    1        0.980732                0.028151    [ 1.6997: -0.7162]        No
    2        0.490366                0.009786    [ 1.3147: -0.3218]       Yes
================================================================================
MG BCs: +ve charge blocks (gridpoints):     31114 (   17480961).
MG BCs: -ve charge blocks (gridpoints):      8401 (    1114647).
MG BCs:     Elided blocks (gridpoints):    169517 (  177700857).
MG BCs: Computational effort saved:  99.9799%.
MG BCs: Charge after coarse-graining:           -9.0009816.
MG DL_MG: Calling solver with defect correction order = 8
MG DL_MG: Solver finished
MG Hartree energy from (\int phi*rho dr):              1438.124920
MG Hartree energy from (\int eps (grad phi)^2 dr):     1437.480808
MG Discrepancy due to finite box and discretization:     -0.644112 (  -0.04479%)
MG Correction to account for finite box:                  0.468513
MG Remaining discrepancy, due to discretization:         -0.175599 (  -0.01221%)
     Trial step:       0.490366225752
             Q1:  -11554.111128786462
 Quadratic coef:       0.206300348234
 Linear coef   :      -0.393173694337
           Qmin:  -11554.111586139559
Quadratic minimum step length (  0.467277690529) accepted
    Initial Ne1:    7233.99964167
      Final Ne1:    7234.00000000

=================== Penalty functional idempotency correction ==================
 RMS occupancy error at iteration   1:  0.009133 (step -0.2645 Ne1=   7234.0000)
 RMS occupancy error at iteration   2:  0.001017 (step -0.4838 Ne1=   7234.0000)
 RMS occupancy error at iteration   3:  0.000078 (step -0.5048 Ne1=   7234.0000)
            Final RMS occupancy error   :  0.000000 (Ne1=   7234.0000)
               Final occupancy bounds   : [  0.0000,  1.0000]
================================================================================

    7        -1.155392425544E+04     1.1735E-04     1.0618E-04    -1.6887E-01
MG BCs: +ve charge blocks (gridpoints):     31112 (   17480829).
MG BCs: -ve charge blocks (gridpoints):      8401 (    1114721).
MG BCs:     Elided blocks (gridpoints):    169519 (  177700915).
MG BCs: Computational effort saved:  99.9799%.
MG BCs: Charge after coarse-graining:           -9.0009816.
MG DL_MG: Calling solver with defect correction order = 8
MG DL_MG: Solver finished
MG Hartree energy from (\int phi*rho dr):              1438.209378
MG Hartree energy from (\int eps (grad phi)^2 dr):     1437.565161
MG Discrepancy due to finite box and discretization:     -0.644218 (  -0.04479%)
MG Correction to account for finite box:                  0.468614
MG Remaining discrepancy, due to discretization:         -0.175603 (  -0.01221%)
      ideal mu1:      -0.789028377028
             Q0:  -11554.114730720408
             G0:      -0.848096521832
   RMS gradient:       0.000124883344
========================= Kernel Line Step Protection ==========================
|  Iter |  Trial Step |   RMS Occupancy Error |   Occupancy Bounds | Accepted? |
    0        0.000000                0.000000    [ 1.0000:  0.0000]
    1        0.478683                0.016380    [ 1.4458: -0.4593]        No
    2        0.239341                0.006617    [ 1.2150: -0.2209]       Yes
================================================================================
MG BCs: +ve charge blocks (gridpoints):     31116 (   17482014).
MG BCs: -ve charge blocks (gridpoints):      8400 (    1114152).
MG BCs:     Elided blocks (gridpoints):    169515 (  177700299).
MG BCs: Computational effort saved:  99.9799%.
MG BCs: Charge after coarse-graining:           -9.0009819.
MG DL_MG: Calling solver with defect correction order = 8
MG DL_MG: Solver finished
MG Hartree energy from (\int phi*rho dr):              1439.014984
MG Hartree energy from (\int eps (grad phi)^2 dr):     1438.370852
MG Discrepancy due to finite box and discretization:     -0.644132 (  -0.04476%)
MG Correction to account for finite box:                  0.468593
MG Remaining discrepancy, due to discretization:         -0.175539 (  -0.01220%)
     Trial step:       0.239341386665
             Q1:  -11554.243585024029
 Quadratic coef:       0.074130293940
 Linear coef   :      -0.202984597561
           Qmin:  -11554.253684529494
Quadratic minimum step length (  0.327683949903) accepted
    Initial Ne1:    7233.99895349
      Final Ne1:    7234.00000000

=================== Penalty functional idempotency correction ==================
 RMS occupancy error at iteration   1:  0.009853 (step -0.2605 Ne1=   7234.0000)
 RMS occupancy error at iteration   2:  0.001002 (step -0.4773 Ne1=   7234.0000)
 RMS occupancy error at iteration   3:  0.000072 (step -0.5045 Ne1=   7234.0000)
            Final RMS occupancy error   :  0.000000 (Ne1=   7234.0000)
               Final occupancy bounds   : [  0.0000,  1.0000]
================================================================================

    8        -1.155411473072E+04     1.2488E-04     1.1299E-04    -1.9048E-01
MG BCs: +ve charge blocks (gridpoints):     31116 (   17482373).
MG BCs: -ve charge blocks (gridpoints):      8397 (    1113905).
MG BCs:     Elided blocks (gridpoints):    169515 (  177700187).
MG BCs: Computational effort saved:  99.9799%.
MG BCs: Charge after coarse-graining:           -9.0009820.
MG DL_MG: Calling solver with defect correction order = 8
MG DL_MG: Solver finished
MG Hartree energy from (\int phi*rho dr):              1439.343330
MG Hartree energy from (\int eps (grad phi)^2 dr):     1438.699127
MG Discrepancy due to finite box and discretization:     -0.644203 (  -0.04476%)
MG Correction to account for finite box:                  0.468691
MG Remaining discrepancy, due to discretization:         -0.175512 (  -0.01219%)
      ideal mu1:      -0.790403059089
             Q0:  -11554.279561647796
             G0:      -0.865830516445
   RMS gradient:       0.000117171065
MG BCs: +ve charge blocks (gridpoints):     31113 (   17483515).
MG BCs: -ve charge blocks (gridpoints):      8393 (    1113189).
MG BCs:     Elided blocks (gridpoints):    169518 (  177699761).
MG BCs: Computational effort saved:  99.9799%.
MG BCs: Charge after coarse-graining:           -9.0009825.
MG DL_MG: Calling solver with defect correction order = 8
MG DL_MG: Solver finished
MG Hartree energy from (\int phi*rho dr):              1440.684136
MG Hartree energy from (\int eps (grad phi)^2 dr):     1440.040178
MG Discrepancy due to finite box and discretization:     -0.643958 (  -0.04470%)
MG Correction to account for finite box:                  0.468507
MG Remaining discrepancy, due to discretization:         -0.175452 (  -0.01218%)
     Trial step:       0.280050586426
             Q1:  -11554.404072105070
 Quadratic coef:       0.117965886602
 Linear coef   :      -0.242476343876
           Qmin:  -11554.404162875815
Quadratic minimum step length (  0.287818979931) accepted
    Initial Ne1:    7233.99832745
      Final Ne1:    7234.00000000

=================== Penalty functional idempotency correction ==================
 RMS occupancy error at iteration   1:  0.008563 (step -0.2806 Ne1=   7234.0000)
 RMS occupancy error at iteration   2:  0.000766 (step -0.4791 Ne1=   7234.0000)
 RMS occupancy error at iteration   3:  0.000037 (step -0.5020 Ne1=   7234.0000)
            Final RMS occupancy error   :  0.000000 (Ne1=   7234.0000)
               Final occupancy bounds   : [  0.0000,  1.0000]
================================================================================

    9        -1.155427956165E+04     1.1717E-04     1.0601E-04    -1.6483E-01
MG BCs: +ve charge blocks (gridpoints):     31111 (   17483447).
MG BCs: -ve charge blocks (gridpoints):      8393 (    1113194).
MG BCs:     Elided blocks (gridpoints):    169520 (  177699824).
MG BCs: Computational effort saved:  99.9799%.
MG BCs: Charge after coarse-graining:           -9.0009825.
MG DL_MG: Calling solver with defect correction order = 8
MG DL_MG: Solver finished
MG Hartree energy from (\int phi*rho dr):              1440.706091
MG Hartree energy from (\int eps (grad phi)^2 dr):     1440.061926
MG Discrepancy due to finite box and discretization:     -0.644166 (  -0.04471%)
MG Correction to account for finite box:                  0.468735
MG Remaining discrepancy, due to discretization:         -0.175431 (  -0.01218%)
      ideal mu1:      -0.790735888777
   10        -1.155444074835E+04     9.6873E-05     8.7646E-05    -1.6119E-01
Finished density kernel iterations (  10)

Writing density kernel to file "complex_20241.vacuum_dkn" ... done


>>> Density kernel optimised for the current NGWF basis:
     ~~~~~~~~~~~~~~~~~~~~~~~~~~~~~~~~~~~~~~~~~~~~~~~~~~~~~~~~~~~
     Total energy                =  -1.15544407483523E+04  Eh
     Estimated bandgap           =  -4.4974E-01  Eh
     RMS occupancy error         =   7.2810E-08
     [H,K] commutator            =   8.7646E-05
     Occupancy bounds            = [  0.000:  1.000]
     ~~~~~~~~~~~~~~~~~~~~~~~~~~~~~~~~~~~~~~~~~~~~~~~~~~~~~~~~~~~




################################################################################
########################### NGWF CG iteration  001 #############################
################################################################################
****** Reciprocal space K.E. preconditioning with k_zero =  3.5000 a0^-1 *******

>>> Checking for convergence of NGWFs:   NOT CONVERGED
  ========================================================================
         NGWF RMS gradient =  1.6223E-03 >  2.0000E-06  | above tolerance
  ========================================================================

>>> Improving NGWFs using line search:
============ Calculation of NGWF S^-1 using Hotelling algorithm ================ 
         Iteration  |  Frobenius norm and Maximum abs value    (of I-S*S_n^-1)   
               1       0.23455382E+00     0.63281205E-02
               2       0.12739989E-02     0.57175846E-04
               3       0.62832685E-07     0.48801522E-08
               4       0.13398890E-12     0.51070259E-14
================================================================================
MG BCs: +ve charge blocks (gridpoints):     30655 (   17433904).
MG BCs: -ve charge blocks (gridpoints):      8395 (    1110084).
MG BCs:     Elided blocks (gridpoints):    169980 (  177752477).
MG BCs: Computational effort saved:  99.9801%.
MG BCs: Charge after coarse-graining:           -9.0009858.
MG DL_MG: Calling solver with defect correction order = 8
MG DL_MG: Solver finished
MG Hartree energy from (\int phi*rho dr):              1412.571133
MG Hartree energy from (\int eps (grad phi)^2 dr):     1411.928240
MG Discrepancy due to finite box and discretization:     -0.642893 (  -0.04551%)
MG Correction to account for finite box:                  0.468696
MG Remaining discrepancy, due to discretization:         -0.174196 (  -0.01233%)
============ Calculation of NGWF S^-1 using Hotelling algorithm ================ 
         Iteration  |  Frobenius norm and Maximum abs value    (of I-S*S_n^-1)   
               1       0.21808900E+01     0.49437134E-01
               2       0.97797094E-01     0.32345501E-02
               3       0.27232351E-03     0.16184038E-04
               4       0.37091157E-08     0.42473280E-09
               5       0.11785315E-12     0.57731597E-14
================================================================================
------------------------------- NGWF line search -------------------------------
RMS gradient                =       0.00162234205735
Trial step length           =               0.122474
Gradient along search dir.  =       -292.33105311557
Functional at step 0        =  -11554.44074835232459
Functional at step 1        =  -11587.48224277293775
Functional predicted        =  -11670.48407708895320
Selected quadratic step     =               0.793917
--------------------------- NGWF line search finished --------------------------
                                               
Writing NGWFs to file "complex_20241.vacuum_tightbox_ngwfs"....  done

>>> Optimising kernel for current NGWFs:
   Initial electron number for spin 1:    7279.86171602
     Final electron number for spin 1:    7234.00000000

=================== Penalty functional idempotency correction ==================
 RMS occupancy error at iteration   1:  0.005161 (step -0.4832 Ne1=   7234.0000)
 RMS occupancy error at iteration   2:  0.000092 (step -0.5003 Ne1=   7234.0000)
            Final RMS occupancy error   :  0.000000 (Ne1=   7234.0000)
               Final occupancy bounds   : [  0.0000,  1.0000]
================================================================================

................................................................................
<<<<<<<<<<<<<< LNV (Original version) density kernel optimisation >>>>>>>>>>>>>>
~~~~~~~~~~~~~~~~~~~~~~~~~~~~~~~~~~~~~~~~~~~~~~~~~~~~~~~~~~~~~~~~~~~~~~~~~~~~~~~~
   iter  |      energy (Eh)       | rms gradient |  commutator  |   dE (Eh)
MG BCs: +ve charge blocks (gridpoints):     25162 (   17202371).
MG BCs: -ve charge blocks (gridpoints):      8528 (    1079485).
MG BCs:     Elided blocks (gridpoints):    175478 (  178014609).
MG BCs: Computational effort saved:  99.9828%.
MG BCs: Charge after coarse-graining:           -9.0007287.
MG DL_MG: Calling solver with defect correction order = 8
MG DL_MG: Solver finished
MG Hartree energy from (\int phi*rho dr):              1280.608066
MG Hartree energy from (\int eps (grad phi)^2 dr):     1279.967611
MG Discrepancy due to finite box and discretization:     -0.640455 (  -0.05001%)
MG Correction to account for finite box:                  0.468525
MG Remaining discrepancy, due to discretization:         -0.171930 (  -0.01343%)
      ideal mu1:      -0.735465701622
             Q0:  -11669.834561485914
             G0:      -9.711182417364
   RMS gradient:       0.000476130942
MG BCs: +ve charge blocks (gridpoints):     25188 (   17206140).
MG BCs: -ve charge blocks (gridpoints):      8521 (    1078667).
MG BCs:     Elided blocks (gridpoints):    175452 (  178011658).
MG BCs: Computational effort saved:  99.9828%.
MG BCs: Charge after coarse-graining:           -9.0007274.
MG DL_MG: Calling solver with defect correction order = 8
MG DL_MG: Solver finished
MG Hartree energy from (\int phi*rho dr):              1284.195458
MG Hartree energy from (\int eps (grad phi)^2 dr):     1283.553427
MG Discrepancy due to finite box and discretization:     -0.642031 (  -0.04999%)
MG Correction to account for finite box:                  0.468283
MG Remaining discrepancy, due to discretization:         -0.173747 (  -0.01353%)
     Trial step:       0.283908214242
             Q1:  -11671.440068649943
 Quadratic coef:       1.151577294268
 Linear coef   :      -2.757084458296
           Qmin:  -11671.484801280501
Quadratic minimum step length (  0.339863823717) accepted
    Initial Ne1:    7233.99909825
      Final Ne1:    7234.00000000

=================== Penalty functional idempotency correction ==================
 RMS occupancy error at iteration   1:  0.000377 (step -0.4983 Ne1=   7234.0000)
 RMS occupancy error at iteration   2:  0.000001 (step -0.5000 Ne1=   7234.0000)
            Final RMS occupancy error   :  0.000000 (Ne1=   7234.0000)
               Final occupancy bounds   : [  0.0000,  1.0000]
================================================================================

    1        -1.166983456149E+04     4.7613E-04     4.3078E-04
MG BCs: +ve charge blocks (gridpoints):     25193 (   17206830).
MG BCs: -ve charge blocks (gridpoints):      8520 (    1078519).
MG BCs:     Elided blocks (gridpoints):    175447 (  178011116).
MG BCs: Computational effort saved:  99.9828%.
MG BCs: Charge after coarse-graining:           -9.0007272.
MG DL_MG: Calling solver with defect correction order = 8
MG DL_MG: Solver finished
MG Hartree energy from (\int phi*rho dr):              1285.051177
MG Hartree energy from (\int eps (grad phi)^2 dr):     1284.408820
MG Discrepancy due to finite box and discretization:     -0.642357 (  -0.04999%)
MG Correction to account for finite box:                  0.468239
MG Remaining discrepancy, due to discretization:         -0.174118 (  -0.01355%)
      ideal mu1:      -0.739483884543
             Q0:  -11671.488915307680
             G0:      -1.211271192143
   RMS gradient:       0.000167493578
MG BCs: +ve charge blocks (gridpoints):     25193 (   17205942).
MG BCs: -ve charge blocks (gridpoints):      8521 (    1079168).
MG BCs:     Elided blocks (gridpoints):    175447 (  178011355).
MG BCs: Computational effort saved:  99.9828%.
MG BCs: Charge after coarse-graining:           -9.0007273.
MG DL_MG: Calling solver with defect correction order = 8
MG DL_MG: Solver finished
MG Hartree energy from (\int phi*rho dr):              1285.299205
MG Hartree energy from (\int eps (grad phi)^2 dr):     1284.656743
MG Discrepancy due to finite box and discretization:     -0.642463 (  -0.04999%)
MG Correction to account for finite box:                  0.468183
MG Remaining discrepancy, due to discretization:         -0.174280 (  -0.01356%)
     Trial step:       0.310628606662
             Q1:  -11671.761433175649
 Quadratic coef:       0.103737614738
 Linear coef   :      -0.376255482706
           Qmin:  -11671.830084199561
Quadratic minimum step length (  0.563323711641) accepted
    Initial Ne1:    7233.99981500
      Final Ne1:    7234.00000000

=================== Penalty functional idempotency correction ==================
 RMS occupancy error at iteration   1:  0.000357 (step -0.4908 Ne1=   7234.0000)
 RMS occupancy error at iteration   2:  0.000006 (step -0.5002 Ne1=   7234.0000)
            Final RMS occupancy error   :  0.000000 (Ne1=   7234.0000)
               Final occupancy bounds   : [  0.0000,  1.0000]
================================================================================

    2        -1.167148891531E+04     1.6749E-04     1.5154E-04    -1.6544E+00
MG BCs: +ve charge blocks (gridpoints):     25193 (   17205253).
MG BCs: -ve charge blocks (gridpoints):      8522 (    1079753).
MG BCs:     Elided blocks (gridpoints):    175447 (  178011459).
MG BCs: Computational effort saved:  99.9828%.
MG BCs: Charge after coarse-graining:           -9.0007272.
MG DL_MG: Calling solver with defect correction order = 8
MG DL_MG: Solver finished
MG Hartree energy from (\int phi*rho dr):              1285.494913
MG Hartree energy from (\int eps (grad phi)^2 dr):     1284.852356
MG Discrepancy due to finite box and discretization:     -0.642557 (  -0.04999%)
MG Correction to account for finite box:                  0.468138
MG Remaining discrepancy, due to discretization:         -0.174419 (  -0.01357%)
      ideal mu1:      -0.739480591540
             Q0:  -11671.830360671156
             G0:      -0.441897663203
   RMS gradient:       0.000101510978
MG BCs: +ve charge blocks (gridpoints):     25191 (   17204434).
MG BCs: -ve charge blocks (gridpoints):      8523 (    1080150).
MG BCs:     Elided blocks (gridpoints):    175449 (  178011881).
MG BCs: Computational effort saved:  99.9828%.
MG BCs: Charge after coarse-graining:           -9.0007272.
MG DL_MG: Calling solver with defect correction order = 8
MG DL_MG: Solver finished
MG Hartree energy from (\int phi*rho dr):              1284.758794
MG Hartree energy from (\int eps (grad phi)^2 dr):     1284.116436
MG Discrepancy due to finite box and discretization:     -0.642358 (  -0.05000%)
MG Correction to account for finite box:                  0.468106
MG Remaining discrepancy, due to discretization:         -0.174252 (  -0.01356%)
     Trial step:       0.418311438580
             Q1:  -11671.964000981185
 Quadratic coef:       0.051210537171
 Linear coef   :      -0.184850847200
           Qmin:  -11671.997171241783
Quadratic minimum step length (  0.754973762107) accepted
    Initial Ne1:    7233.99985875
      Final Ne1:    7234.00000000

=================== Penalty functional idempotency correction ==================
 RMS occupancy error at iteration   1:  0.000753 (step -0.4633 Ne1=   7234.0000)
 RMS occupancy error at iteration   2:  0.000027 (step -0.5001 Ne1=   7234.0000)
            Final RMS occupancy error   :  0.000000 (Ne1=   7234.0000)
               Final occupancy bounds   : [  0.0000,  1.0000]
================================================================================

    3        -1.167183036067E+04     1.0151E-04     9.1843E-05    -3.4145E-01
MG BCs: +ve charge blocks (gridpoints):     25188 (   17203755).
MG BCs: -ve charge blocks (gridpoints):      8524 (    1080459).
MG BCs:     Elided blocks (gridpoints):    175452 (  178012251).
MG BCs: Computational effort saved:  99.9828%.
MG BCs: Charge after coarse-graining:           -9.0007273.
MG DL_MG: Calling solver with defect correction order = 8
MG DL_MG: Solver finished
MG Hartree energy from (\int phi*rho dr):              1284.161591
MG Hartree energy from (\int eps (grad phi)^2 dr):     1283.519393
MG Discrepancy due to finite box and discretization:     -0.642197 (  -0.05001%)
MG Correction to account for finite box:                  0.468076
MG Remaining discrepancy, due to discretization:         -0.174121 (  -0.01356%)
      ideal mu1:      -0.737695437712
             Q0:  -11671.997920952505
             G0:      -0.182403107472
   RMS gradient:       0.000064918649
MG BCs: +ve charge blocks (gridpoints):     25186 (   17203736).
MG BCs: -ve charge blocks (gridpoints):      8526 (    1080381).
MG BCs:     Elided blocks (gridpoints):    175454 (  178012348).
MG BCs: Computational effort saved:  99.9828%.
MG BCs: Charge after coarse-graining:           -9.0007273.
MG DL_MG: Calling solver with defect correction order = 8
MG DL_MG: Solver finished
MG Hartree energy from (\int phi*rho dr):              1284.294781
MG Hartree energy from (\int eps (grad phi)^2 dr):     1283.652774
MG Discrepancy due to finite box and discretization:     -0.642006 (  -0.04999%)
MG Correction to account for finite box:                  0.468055
MG Remaining discrepancy, due to discretization:         -0.173951 (  -0.01354%)
     Trial step:       0.561973451791
             Q1:  -11672.063420461724
 Quadratic coef:       0.037006194703
 Linear coef   :      -0.102505703923
           Qmin:  -11672.068905144617
Quadratic minimum step length (  0.778322179892) accepted
    Initial Ne1:    7233.99970793
      Final Ne1:    7234.00000000

=================== Penalty functional idempotency correction ==================
 RMS occupancy error at iteration   1:  0.000886 (step -0.4573 Ne1=   7234.0000)
 RMS occupancy error at iteration   2:  0.000028 (step -0.5001 Ne1=   7234.0000)
            Final RMS occupancy error   :  0.000000 (Ne1=   7234.0000)
               Final occupancy bounds   : [  0.0000,  1.0000]
================================================================================

    4        -1.167199792095E+04     6.4919E-05     5.8735E-05    -1.6756E-01
MG BCs: +ve charge blocks (gridpoints):     25185 (   17203735).
MG BCs: -ve charge blocks (gridpoints):      8526 (    1080330).
MG BCs:     Elided blocks (gridpoints):    175455 (  178012400).
MG BCs: Computational effort saved:  99.9828%.
MG BCs: Charge after coarse-graining:           -9.0007273.
MG DL_MG: Calling solver with defect correction order = 8
MG DL_MG: Solver finished
MG Hartree energy from (\int phi*rho dr):              1284.347977
MG Hartree energy from (\int eps (grad phi)^2 dr):     1283.706047
MG Discrepancy due to finite box and discretization:     -0.641929 (  -0.04998%)
MG Correction to account for finite box:                  0.468043
MG Remaining discrepancy, due to discretization:         -0.173887 (  -0.01354%)
      ideal mu1:      -0.738340477843
             Q0:  -11672.069796221447
             G0:      -0.156112278178
   RMS gradient:       0.000059650211
MG BCs: +ve charge blocks (gridpoints):     25187 (   17205315).
MG BCs: -ve charge blocks (gridpoints):      8522 (    1079771).
MG BCs:     Elided blocks (gridpoints):    175453 (  178011379).
MG BCs: Computational effort saved:  99.9828%.
MG BCs: Charge after coarse-graining:           -9.0007270.
MG DL_MG: Calling solver with defect correction order = 8
MG DL_MG: Solver finished
MG Hartree energy from (\int phi*rho dr):              1285.387460
MG Hartree energy from (\int eps (grad phi)^2 dr):     1284.745710
MG Discrepancy due to finite box and discretization:     -0.641750 (  -0.04993%)
MG Correction to account for finite box:                  0.467870
MG Remaining discrepancy, due to discretization:         -0.173880 (  -0.01353%)
     Trial step:       0.661359510432
             Q1:  -11672.137457248289
 Quadratic coef:       0.035585313026
 Linear coef   :      -0.103246339868
           Qmin:  -11672.144685310441
Quadratic minimum step length (  0.959425996049) accepted
    Initial Ne1:    7233.99952580
      Final Ne1:    7234.00000000

=================== Penalty functional idempotency correction ==================
 RMS occupancy error at iteration   1:  0.002366 (step -0.4074 Ne1=   7234.0000)
 RMS occupancy error at iteration   2:  0.000087 (step -0.4984 Ne1=   7234.0000)
 RMS occupancy error at iteration   3:  0.000000 (step -0.5000 Ne1=   7234.0000)
            Final RMS occupancy error   :  0.000000 (Ne1=   7234.0000)
               Final occupancy bounds   : [  0.0000,  1.0000]
================================================================================

    5        -1.167206979622E+04     5.9650E-05     5.3969E-05    -7.1875E-02
MG BCs: +ve charge blocks (gridpoints):     25190 (   17206025).
MG BCs: -ve charge blocks (gridpoints):      8521 (    1079517).
MG BCs:     Elided blocks (gridpoints):    175450 (  178010923).
MG BCs: Computational effort saved:  99.9828%.
MG BCs: Charge after coarse-graining:           -9.0007269.
MG DL_MG: Calling solver with defect correction order = 8
MG DL_MG: Solver finished
MG Hartree energy from (\int phi*rho dr):              1285.862843
MG Hartree energy from (\int eps (grad phi)^2 dr):     1285.221162
MG Discrepancy due to finite box and discretization:     -0.641681 (  -0.04990%)
MG Correction to account for finite box:                  0.467804
MG Remaining discrepancy, due to discretization:         -0.173877 (  -0.01352%)
      ideal mu1:      -0.741203131020
             Q0:  -11672.145479864208
             G0:      -0.230301047353
   RMS gradient:       0.000071702786
MG BCs: +ve charge blocks (gridpoints):     25189 (   17205670).
MG BCs: -ve charge blocks (gridpoints):      8523 (    1079791).
MG BCs:     Elided blocks (gridpoints):    175451 (  178011004).
MG BCs: Computational effort saved:  99.9828%.
MG BCs: Charge after coarse-graining:           -9.0007269.
MG DL_MG: Calling solver with defect correction order = 8
MG DL_MG: Solver finished
MG Hartree energy from (\int phi*rho dr):              1285.316372
MG Hartree energy from (\int eps (grad phi)^2 dr):     1284.675223
MG Discrepancy due to finite box and discretization:     -0.641149 (  -0.04988%)
MG Correction to account for finite box:                  0.467176
MG Remaining discrepancy, due to discretization:         -0.173973 (  -0.01354%)
     Trial step:       0.796571093527
             Q1:  -11672.230708453688
 Quadratic coef:       0.098222567651
 Linear coef   :      -0.183451157131
           Qmin:  -11672.231138200825
Quadratic minimum step length (  0.743881433461) accepted
    Initial Ne1:    7233.99946873
      Final Ne1:    7234.00000000

=================== Penalty functional idempotency correction ==================
 RMS occupancy error at iteration   1:  0.005877 (step -0.3139 Ne1=   7234.0000)
 RMS occupancy error at iteration   2:  0.000505 (step -0.4974 Ne1=   7234.0000)
 RMS occupancy error at iteration   3:  0.000020 (step -0.5012 Ne1=   7234.0000)
            Final RMS occupancy error   :  0.000000 (Ne1=   7234.0000)
               Final occupancy bounds   : [ -0.0000,  1.0000]
================================================================================

    6        -1.167214547986E+04     7.1703E-05     6.4873E-05    -7.5684E-02
MG BCs: +ve charge blocks (gridpoints):     25190 (   17205677).
MG BCs: -ve charge blocks (gridpoints):      8523 (    1079743).
MG BCs:     Elided blocks (gridpoints):    175450 (  178011045).
MG BCs: Computational effort saved:  99.9828%.
MG BCs: Charge after coarse-graining:           -9.0007269.
MG DL_MG: Calling solver with defect correction order = 8
MG DL_MG: Solver finished
MG Hartree energy from (\int phi*rho dr):              1285.345115
MG Hartree energy from (\int eps (grad phi)^2 dr):     1284.703826
MG Discrepancy due to finite box and discretization:     -0.641289 (  -0.04989%)
MG Correction to account for finite box:                  0.467335
MG Remaining discrepancy, due to discretization:         -0.173955 (  -0.01353%)
      ideal mu1:      -0.743225443842
             Q0:  -11672.248296002042
             G0:      -0.251458717034
   RMS gradient:       0.000076616745
MG BCs: +ve charge blocks (gridpoints):     25186 (   17202809).
MG BCs: -ve charge blocks (gridpoints):      8524 (    1080675).
MG BCs:     Elided blocks (gridpoints):    175454 (  178012981).
MG BCs: Computational effort saved:  99.9828%.
MG BCs: Charge after coarse-graining:           -9.0007274.
MG DL_MG: Calling solver with defect correction order = 8
MG DL_MG: Solver finished
MG Hartree energy from (\int phi*rho dr):              1283.634194
MG Hartree energy from (\int eps (grad phi)^2 dr):     1282.993278
MG Discrepancy due to finite box and discretization:     -0.640916 (  -0.04993%)
MG Correction to account for finite box:                  0.466978
MG Remaining discrepancy, due to discretization:         -0.173938 (  -0.01355%)
     Trial step:       0.769775582171
             Q1:  -11672.372674412327
 Quadratic coef:       0.069188370013
 Linear coef   :      -0.193566780297
           Qmin:  -11672.383680382494
Quadratic minimum step length (  1.076792103675) accepted
    Initial Ne1:    7233.99998627
      Final Ne1:    7234.00000000

=================== Penalty functional idempotency correction ==================
 RMS occupancy error at iteration   1:  0.001008 (step -0.4289 Ne1=   7234.0000)
 RMS occupancy error at iteration   2:  0.000018 (step -0.4992 Ne1=   7234.0000)
[...]
 RMS occupancy error at iteration   1:  0.000000 (step -0.5000 Ne1=   7234.0000)
            Final RMS occupancy error   :  0.000000 (Ne1=   7234.0000)
               Final occupancy bounds   : [ -0.0000,  1.0000]
================================================================================

    7        -1.170899724181E+04     7.4655E-09     6.7544E-09    -2.3283E-10

Reusing previously generated solute cavity.
MG BCs: +ve charge blocks (gridpoints):     29284 (   19329562).
MG BCs: -ve charge blocks (gridpoints):      8550 (    1057464).
MG BCs:     Elided blocks (gridpoints):    171356 (  175909439).
MG BCs: Computational effort saved:  99.9807%.
MG BCs: Charge after coarse-graining:           -9.0009763.
MG DL_MG: Calling solver with defect correction order = 8
MG DL_MG: Solver finished
MG Hartree energy from (\int phi*rho dr):              1236.418671
MG Hartree energy from (\int eps (grad phi)^2 dr):     1236.239156
MG Discrepancy due to finite box and discretization:     -0.179515 (  -0.01452%)
MG Correction to account for finite box:                  0.006298
MG Remaining discrepancy, due to discretization:         -0.173217 (  -0.01401%)
      ideal mu1:      -0.513479558706
             Q0:  -11708.997241810313
             G0:      -0.000000002798
   RMS gradient:       0.000000006028

Reusing previously generated solute cavity.
MG BCs: +ve charge blocks (gridpoints):     29284 (   19329560).
MG BCs: -ve charge blocks (gridpoints):      8550 (    1057464).
MG BCs:     Elided blocks (gridpoints):    171356 (  175909441).
MG BCs: Computational effort saved:  99.9807%.
MG BCs: Charge after coarse-graining:           -9.0009763.
MG DL_MG: Calling solver with defect correction order = 8
MG DL_MG: Solver finished
MG Hartree energy from (\int phi*rho dr):              1236.418679
MG Hartree energy from (\int eps (grad phi)^2 dr):     1236.239164
MG Discrepancy due to finite box and discretization:     -0.179515 (  -0.01452%)
MG Correction to account for finite box:                  0.006298
MG Remaining discrepancy, due to discretization:         -0.173217 (  -0.01401%)
     Trial step:       0.238013900445
             Q1:  -11708.997241809964
 Quadratic coef:       0.000000001015
 Linear coef   :      -0.000000000666
           Qmin:  -11708.997241810423
Quadratic minimum step length (  0.078077698898) accepted
    Initial Ne1:    7234.00000000
      Final Ne1:    7234.00000000

=================== Penalty functional idempotency correction ==================
 RMS occupancy error at iteration   1:  0.000000 (step -0.5000 Ne1=   7234.0000)
            Final RMS occupancy error   :  0.000000 (Ne1=   7234.0000)
               Final occupancy bounds   : [  0.0000,  1.0000]
================================================================================

    8        -1.170899724181E+04     6.0284E-09     5.4542E-09     1.1642E-10

Reusing previously generated solute cavity.
MG BCs: +ve charge blocks (gridpoints):     29284 (   19329562).
MG BCs: -ve charge blocks (gridpoints):      8550 (    1057464).
MG BCs:     Elided blocks (gridpoints):    171356 (  175909439).
MG BCs: Computational effort saved:  99.9807%.
MG BCs: Charge after coarse-graining:           -9.0009763.
MG DL_MG: Calling solver with defect correction order = 8
MG DL_MG: Solver finished
MG Hartree energy from (\int phi*rho dr):              1236.418674
MG Hartree energy from (\int eps (grad phi)^2 dr):     1236.239159
MG Discrepancy due to finite box and discretization:     -0.179515 (  -0.01452%)
MG Correction to account for finite box:                  0.006298
MG Remaining discrepancy, due to discretization:         -0.173217 (  -0.01401%)
      ideal mu1:      -0.513479557580
             Q0:  -11708.997241810313
             G0:      -0.000000002775
   RMS gradient:       0.000000005100

Reusing previously generated solute cavity.
MG BCs: +ve charge blocks (gridpoints):     29284 (   19329560).
MG BCs: -ve charge blocks (gridpoints):      8550 (    1057464).
MG BCs:     Elided blocks (gridpoints):    171356 (  175909441).
MG BCs: Computational effort saved:  99.9807%.
MG BCs: Charge after coarse-graining:           -9.0009763.
MG DL_MG: Calling solver with defect correction order = 8
MG DL_MG: Solver finished
MG Hartree energy from (\int phi*rho dr):              1236.418678
MG Hartree energy from (\int eps (grad phi)^2 dr):     1236.239163
MG Discrepancy due to finite box and discretization:     -0.179515 (  -0.01452%)
MG Correction to account for finite box:                  0.006298
MG Remaining discrepancy, due to discretization:         -0.173217 (  -0.01401%)
     Trial step:       0.136321596428
             Q1:  -11708.997241810081
 Quadratic coef:       0.000000000611
 Linear coef   :      -0.000000000378
           Qmin:  -11708.997241810372
Quadratic minimum step length (  0.042189784033) accepted
    Initial Ne1:    7234.00000000
      Final Ne1:    7234.00000000

=================== Penalty functional idempotency correction ==================
 RMS occupancy error at iteration   1:  0.000000 (step -0.5000 Ne1=   7234.0000)
            Final RMS occupancy error   :  0.000000 (Ne1=   7234.0000)
               Final occupancy bounds   : [ -0.0000,  1.0000]
================================================================================

    9        -1.170899724181E+04     5.1001E-09     4.6143E-09     0.0000E+00

Reusing previously generated solute cavity.
MG BCs: +ve charge blocks (gridpoints):     29284 (   19329561).
MG BCs: -ve charge blocks (gridpoints):      8550 (    1057464).
MG BCs:     Elided blocks (gridpoints):    171356 (  175909440).
MG BCs: Computational effort saved:  99.9807%.
MG BCs: Charge after coarse-graining:           -9.0009763.
MG DL_MG: Calling solver with defect correction order = 8
MG DL_MG: Solver finished
MG Hartree energy from (\int phi*rho dr):              1236.418675
MG Hartree energy from (\int eps (grad phi)^2 dr):     1236.239160
MG Discrepancy due to finite box and discretization:     -0.179515 (  -0.01452%)
MG Correction to account for finite box:                  0.006298
MG Remaining discrepancy, due to discretization:         -0.173217 (  -0.01401%)
      ideal mu1:      -0.513479556704
   10        -1.170899724181E+04     4.5762E-09     4.1404E-09     1.1642E-10
Finished density kernel iterations (  10)

Writing density kernel to file "complex_20241.dkn" ... done


>>> Density kernel optimised for the current NGWF basis:
     ~~~~~~~~~~~~~~~~~~~~~~~~~~~~~~~~~~~~~~~~~~~~~~~~~~~~~~~~~~~
     Total energy                =  -1.17089972418102E+04  Eh
     Estimated bandgap           =   1.2702E-01  Eh
     RMS occupancy error         =   3.4626E-16
     [H,K] commutator            =   4.1404E-09
     Occupancy bounds            = [ -0.000:  1.000]
     ~~~~~~~~~~~~~~~~~~~~~~~~~~~~~~~~~~~~~~~~~~~~~~~~~~~~~~~~~~~




################################################################################
########################### NGWF CG iteration  005 #############################
################################################################################
****** Reciprocal space K.E. preconditioning with k_zero =  3.5000 a0^-1 *******

>>> Checking for convergence of NGWFs: 
           ........................................................
           |         *** NGWF optimisation converged ***          |
           | RMS NGWF gradient =    0.00000106855643              |
           | Criteria satisfied:                                  |
           | -> RMS NGWF gradient lower than set threshold.       |
           ========================================================

Reusing previously generated solute cavity.
MG BCs: +ve charge blocks (gridpoints):     29284 (   19329561).
MG BCs: -ve charge blocks (gridpoints):      8550 (    1057464).
MG BCs:     Elided blocks (gridpoints):    171356 (  175909440).
MG BCs: Computational effort saved:  99.9807%.
MG BCs: Charge after coarse-graining:           -9.0009763.
MG DL_MG: Calling solver with defect correction order = 8
MG DL_MG: Solver finished
MG Hartree energy from (\int phi*rho dr):              1236.418675
MG Hartree energy from (\int eps (grad phi)^2 dr):     1236.239160
MG Discrepancy due to finite box and discretization:     -0.179515 (  -0.01452%)
MG Correction to account for finite box:                  0.006298
MG Remaining discrepancy, due to discretization:         -0.173217 (  -0.01401%)

================================================================================
           ---------------- ENERGY COMPONENTS (Eh) ----------------
           | Kinetic                    :     8455.85308644603720 |
           | Pseudo. (local,OBC,corr'd) :    -5016.06901824752913 |
           | Pseudopotential (non-local):     1453.78890102766263 |
           | Hartree (molecular)        :     1236.41867491426410 |
           | Exchange-correlation       :    -3353.02129173900448 |
           | Ion-ion (open BC)          :   837527.63638613815419 |
           | Smeared ion non-self corr. :  -837479.28558938018978 |
           | Smeared ion self corr.     :   -14534.96330857569956 |
           | Solvent cavitation energy  :        2.29446804627576 |
           | Solute-solvent dis-rep en. :       -1.64955044016880 |
           | Total                      :   -11708.99724181011698 |
           --------------------------------------------------------
           ------ LOCAL ENERGY COMPONENTS FROM MATRIX TRACES ------
           | Pseudopotential (local)    :    -5016.06901824755550 |
           | Hartree                    :    -1994.84988626044674 |
           --------------------------------------------------------
           Integrated density           :     7233.99999999802367
           Integrated density tr(KS)    :     7233.99999999999909
================================================================================


                        <<<<< CALCULATION SUMMARY >>>>>                         
|ITER|    RMS GRADIENT   |     TOTAL ENERGY    |   step   |     Epredicted              
   0     0.00003763410786 -11708.94840237195604   0.536167 -11708.99057425834690        
   1     0.00001244803313 -11708.99605668697041   0.116052 -11708.99705533686029        
   2     0.00000545892884 -11708.99720138520934   0.020674 -11708.99723559857921        
   3     0.00000242167366 -11708.99724023847375   0.004137 -11708.99724158589197        
   4     0.00000106855643 -11708.99724181019701  <-- CG                                 

=================== Finished the calculation in solvent ========================
= Adjusting the following parameters: 
= read_denskern: F
= read_tightbox_ngwfs: F
= maxit_pen: 0 (restored to user-specified value)
= restart read filename prefix: ""
= restart write filename prefix: ""
================================================================================

================================================================================
IS: Calculation in solvent completed (NGWFs converged).      

Individual components of total energy in solvent:     hartree           kcal/mol
- Usual non-electrostatic DFT terms:    -12946.06083433056847    -8123775.649094
- Electrostatic fixed charge energy:      1236.41867491426410      775864.415585
- Apolar cavitation energy:                  2.29446804627576        1439.800406
- Apolar dispersion-repulsion energy:       -1.64955044016880       -1035.108507
 -------------------------------------------------------------------------------
- Total energy in solvent:              -11708.99724181019701    -7347506.541610

Components of total energy in solvent:                hartree           kcal/mol
- Usual non-electrostatic DFT terms:    -12946.06083433056847    -8123775.649094
- Electrostatic energy:                   1236.41867491426410      775864.415585
- Apolar energy terms:                       0.64491760610696         404.691899
 -------------------------------------------------------------------------------
- Total energy in solvent:              -11708.99724181019701    -7347506.541610

Calculation of free energy of solvation:              hartree           kcal/mol
- Total energy in solvent:         (+)  -11708.99724181019701    -7347506.541610
- Total energy in vacuum:          (-)  -11705.03547416697256    -7345020.494933
 -------------------------------------------------------------------------------
- Total free energy of solvation:           -3.96176764322445       -2486.046676

Components of polar term in f.e. of solvation:        hartree           kcal/mol
- Electrostatic:                            -4.93986099123867       -3099.809505
- Change in nonelectrostatic DFT terms:      0.33317574190733         209.070930
 -------------------------------------------------------------------------------
- Polar term in f.e. of solvation:          -4.60668524933135       -2890.738575

Components of free energy of solvation:               hartree           kcal/mol
- Polar term in f.e. of solvation: (+)      -4.60668524933135       -2890.738575
- Apolar (cavitation, dis., rep.): (+)       0.64491760610696         404.691899
 -------------------------------------------------------------------------------
- Total free energy of solvation:           -3.96176764322439       -2486.046676
================================================================================


------------------------------ TIMING INFORMATION ------------------------------
AVERAGE TIME:   76477.040s on     40 node(s)                                    
TOTAL TIME:     76477.040s on     40 node(s)                                    
================= AVERAGE TIMINGS FROM ALL NODES (CUMULATIVE) ==================
|| TAG                                    #calls    cpu time   %total  Gflops ||
|| work_imbalance                       :     1        0.00s   0.000%  ------ ||
|| parallel_prepare_fd_halos_request    :  2187        0.02s   0.000%  ------ ||
|| sparse_set_to_garbage                :   232        0.06s   0.000%  ------ ||
|| parallel_prepare_fd_halos_satisfy    :  2187        0.07s   0.000%  ------ ||
|| parallel_prepare_fd_halos_alloc      :  2187        0.08s   0.000%  ------ ||
|| ngwfs_initialise_from_radial         :     1        0.17s   0.000%  ------ ||
|| basis_extract_function_from_box      :  6054        0.21s   0.000%  ------ ||
|| restart_ngwfs_tightbox_input         :     1        0.93s   0.001%  ------ ||
|| pseudopotentials_nonlocal_mat        :    34        1.36s   0.002%  ------ ||
|| parallel_prepare_fd_halos_comms_imbal:  2187        3.88s   0.005%  ------ ||
|| openbc_locps_radial                  :     1        5.16s   0.007%  ------ ||
|| density_init_guess_real              :     1        6.24s   0.008%  ------ ||
|| restart_kernel_read                  :     1       10.13s   0.013%  ------ ||
|| parallel_prepare_fd_halos_clear      :  2187       15.61s   0.020%  ------ ||
|| restart_kernel_write                 :    19       17.01s   0.022%  ------ ||
|| sparse_init                          :     2       23.40s   0.031%  ------ ||
|| projectors_func_ovlp_box             :    34       27.15s   0.035%  ------ ||
|| parallel_prepare_fd_halos_comms_wait :  2187       27.73s   0.036%  ------ ||
|| function_ops_brappd_ketppd           :    34       29.72s   0.039%  ------ ||
|| projectors_init_fftbox_recip         :   232       31.61s   0.041%  ------ ||
|| parallel_prepare_fd_halos            :  2187       47.40s   0.062%  ------ ||
|| palser_mano_kernel_optimise          :     1       48.88s   0.064%  ------ ||
|| pseudo_make_structure_factor         :     2       55.09s   0.072%  ------ ||
|| ngwf_gradient_coeffs                 :    18       72.40s   0.095%  ------ ||
|| restart_ngwfs_tightbox_output        :    16       96.35s   0.126%  ------ ||
|| sparse_embed_hotelling_invert_embed  :    34      106.55s   0.139%  ------ ||
|| finite_difference_derivative         :  2187      121.50s   0.159%  ------ ||
|| basis_copy_function_to_box           : 187.4k     132.22s   0.173%  ------ ||
|| openbc_locps_on_grid                 :     2      190.90s   0.250%  ------ ||
|| integrals_kinetic                    :    34      200.84s   0.263%  ------ ||
|| projectors_gradient_batch            :   198      246.18s   0.322%  ------ ||
|| sparse_trace                         :  6040      305.71s   0.400%  ------ ||
|| fourier_apply_box_pair               : 52891      366.02s   0.479% 594.032 ||
|| basis_dot_function_with_box          : 21.48M     404.08s   0.528%  ------ ||
|| kernel_purify                        :   557      405.19s   0.530%  ------ ||
|| lnv_gradient_norm                    :   180      643.79s   0.842%  ------ ||
|| kernel_fix                           :   180      746.42s   0.976%  ------ ||
|| hamiltonian_energy_components        :     4      750.08s   0.981%  ------ ||
|| integrals_locpot_mat_els_batch       :  2079     1037.66s   1.357%  ------ ||
|| basis_add_function_to_box            : 57.52M    1079.65s   1.412%  ------ ||
|| ke_density_batch_grad_apply          :  3993     1212.60s   1.586%  ------ ||
|| ke_density_batch_row_sums            :  3993     1416.06s   1.852%  ------ ||
|| density_batch_row_sums               :  3993     1417.54s   1.854%  ------ ||
|| fourier_apply_cell_backward          :  9808     1589.90s   2.079%  85.211 ||
|| density_fftbox_deposit_to_cell       : 59532     1861.53s   2.434%  ------ ||
|| fourier_apply_cell_forward           :  9806     1900.67s   2.485%  71.264 ||
|| ke_density_fftbox_deposit_to_cell    : 59532     2033.17s   2.659%  ------ ||
|| cell_grid_deposit_box_real           : 121.3k    2261.59s   2.957%  ------ ||
|| cell_grid_extract_box_real           : 148.8k    2472.49s   3.233%  ------ ||
|| sparse_product                       :  7539     2488.09s   3.253%  ------ ||
|| multigrid_prepare_bound_cond         :   364     2839.14s   3.712%  ------ ||
|| ngwf_gradient_build_batch            :   198     2860.24s   3.740%  ------ ||
|| ngwf_gradient_batch                  :   198     3203.80s   4.189%  ------ ||
|| ngwf_gradient_lnv                    :    18     3408.62s   4.457%  ------ ||
|| potential_apply_to_ngwf_batch        :  2079     3883.97s   5.079%  ------ ||
|| density_fftbox_interpolate_multiply  : 59532     4402.15s   5.756%  ------ ||
|| xc_energy_potential                  :   364     4728.04s   6.182%  ------ ||
|| integrals_locpot_dbl_grid            :   189     4939.66s   6.459%  ------ ||
|| density_batch_interp_deposit         :  3993     7026.01s   9.187%  ------ ||
|| dl_mg_solver_calls                   :   364     7634.65s   9.983%  ------ ||
|| nlxc_vdw_energy                      :   726     7913.53s  10.348%  ------ ||
|| density_on_dbl_grid                  :   363     8912.81s  11.654%  ------ ||
|| potential_apply_to_fftbox_batch      :  5940    10492.58s  13.720%  ------ ||
|| multigrid_calculate_hartree          :   364    10651.56s  13.928%  ------ ||
|| integrals_div_locpot_grad_functions  :   180    15665.34s  20.484%  ------ ||
|| ke_density_fftbox_interpolate_multipl: 59532    17562.13s  22.964%  ------ ||
|| ke_density_batch_interp_deposit      :  3993    20357.66s  26.619%  ------ ||
|| fourier_apply_box                    : 1.352M   22855.65s  29.886% 804.733 ||
|| ke_density_on_dbl_grid               :   363    23519.32s  30.753%  ------ ||
|| hamiltonian_lhxc_calculate           :   359    47800.56s  62.503%  ------ ||
|| lnv_denskernel_optimise_cg           :    18    68735.89s  89.878%  ------ ||
|| ngwf_cg_optimise                     :     2    75649.13s  98.917%  ------ ||
|| total_time                           :     1    76477.04s 100.000%  ------ ||
================================================================================
Overhead of generating timer report: 
- 0 ms averaging over threads,
- 7 ms ensuring consistency across MPI ranks,
- 2 ms printing in order.

Job completed: 16-02-2020 03:40 (-0000)

