 +---------------------------------------------------------------+
 |                                                               |
 |        ####### #     # ####### ####### ####### ######         |
 |        #     # ##    # #          #    #       #     #        |
 |        #     # # #   # #          #    #       #     #        |
 |        #     # #  #  # #####      #    #####   ######         |
 |        #     # #   # # #          #    #       #              |
 |        #     # #    ## #          #    #       #              |
 |        ####### #     # #######    #    ####### #              |
 |                                                               |
 |        Linear-Scaling Ab Initio Total Energy Program          |
 |                                                               |
 |          Release for academic collaborators of ODG            |
 |                                             Version 5.3.2.6.  |
 |                                                               |
 +---------------------------------------------------------------+
 |                                                               |
 |  Authors:                                                     |
 |  Jacek Dziedzic, Peter D. Haynes, Nicholas D. M. Hine,        |
 |  Arash. A. Mostofi, Mike C. Payne and Chris-Kriton Skylaris   |
 |                                                               |
 |  Contributors:                                                |
 |  J. Aarons, L. Andrinopoulos, P. W. Avraam, R. A. Bell,       |
 |  A. Bhandari, G. A. Bramley, R. J. Charlton, S. J. Clark,     |
 |  R. J. Clements, G. C. Constantinescu, F. Corsetti,           |
 |  N. Corsini, O. Dieguez, S. M. M. Dubois, K. K. B. Duff,      |
 |  J. M. Escartin, A. Greco, H. Helal, Q. O. Hill, L. P. Lee,   |
 |  J.-H. Li, E. B. Linscott, G. Moynihan, D. D. O`Regan,        |
 |  O. K. Okan, M. J. S. Phipps, C. J. Pickard,                  |
 |  J. C. A. Prentice, M. I. J. Probert, L. E. Ratcliff,         |
 |  M. Robinson, A. Ruiz Serrano, J. S. Spencer, E. W. Tait,     |
 |  G. Teobaldi, D. Turban, V. Vitale, K. A. Wilkinson,          |
 |  C. Weber, J. C. Womack, N. Yeung and T. J. Zuehlsdorff       |
 |                                                               |
 |                                   Copyright (c) 2004-2019     |
 |                                                               |
 |  Please cite:                                                 |
 |  "Introducing ONETEP: Linear-scaling density functional       |
 |   simulations on parallel computers".                         |
 |   C.-K. Skylaris, P. D. Haynes, A. A. Mostofi, M. C. Payne.   |
 |   J. Chem. Phys. 122 084119 (2005).                           |
 |                                                               |
 |          in all publications arising from your use of ONETEP. |
 |                                                               |
 +---------------------------------------------------------------+
 |                                                               |
 |   ONETEP is based on developments described in the following  |
 |   publications:                                               |
 |                                                               |
 |  "Nonorthogonal generalized Wannier function pseudopotential  |
 |   plane-wave method".                                         |
 |   C.-K. Skylaris, A. A. Mostofi, P. D. Haynes, O. Dieguez,    |
 |   M. C. Payne.                                                |
 |   Phys. Rev. B 66 035119 (2002).                              |
 |                                                               |
 |  "Preconditioned iterative minimization for linear-scaling    |
 |   electronic structure calculations".                         |
 |   A. A. Mostofi, P. D. Haynes, C.-K. Skylaris, M. C. Payne.   |
 |   J. Chem. Phys. 119(17), pp.8842-8848 (2003).                |
 |                                                               |
 |  "Total-energy calculations on a real space grid with         |
 |   localized functions and a plane-wave basis".                |
 |   A. A. Mostofi, C.-K. Skylaris, P. D. Haynes, M. C. Payne.   |
 |   Comput. Phys. Commun. 147, pp.788-802 (2002).               |
 |                                                               |
 |  "Accurate kinetic energy evaluation in electronic structure  |
 |   calculations with localized functions on real space grids"  |
 |   C.-K. Skylaris, A. A. Mostofi, P. D. Haynes, C. J. Pickard, |
 |   M. C. Payne.                                                |
 |   Comput. Phys. Commun. 140, pp.315-322 (2001).               |
 |                                                               |
 |  "Accurate ionic forces and geometry optimization in linear-  |
 |   scaling density-functional theory with local orbitals"      |
 |   N. D. M. Hine, M. Robinson, P. D. Haynes, C.-K. Skylaris,   |
 |   M. C. Payne, and A. A. Mostofi.                             |
 |   Phys. Rev. B 83 195102 (2011).                              |
 |                                                               |
 +---------------------------------------------------------------+

Job started: 14-02-2020 12:18 (-0000)
 
Reading parameters from file "host_18721.dat" ...... done

If your calculation crashes here, before "Checking processes and threads..."
is displayed, then your stack size is insufficient.
If so, use "ulimit -s unlimited" at runtime.
You can disable this check with "check_stack_size F".

Checking processes and threads...
   Determining the default number of threads...
      No default threads set at compilation time: defaulting to 1.
      OpenMP library call suggests 4 threads.
      Hybrid MPI-OpenMP compilation detected.
      Number of MPI processes > 1.
      OMP_NUM_THREADS environment variable present and
      its value matches the one obtained from the OpenMP library call.
      Using this value as default.
      Default threads: 4
      Default applies to threads_max and threads_num_fftboxes.
      Settings in the input file override this default.
   ... done

   Running with 40 MPI processes.
   There are 10 MPI processes running on the same node as the root process.
   Each MPI process is using: 
               1 threads for simulation cell FFTs.
               1 threads for parallel FFT box operations.
               4 threads for loops over batched FFT box operations.
               4 threads in other parallel regions.
... done

Basic input checks...... done

Reading geometry and species blocks from file "host_18721.dat" ...
  <species_atomic_set> block not found: NGWF initialisation set to SOLVE
IS: Dielectric excluded regions:
    - NONE.
    
  Number of PPD points along a3 set to 1.  This is 
  the default value, it may have been provided also in the input file.
... done
 Writing xyz coordinates to file "host_18721.xyz" ... done


--------------------------------------------------------------------------------
---------------------------------- INPUT FILE ----------------------------------
--------------------------------------------------------------------------------

cutoff_energy       : 800 eV                                                    
xc_functional B97M-V                                                            
task SINGLEPOINT                                                                
write_xyz true                                                                  
output_detail VERBOSE                                                           
ngwf_threshold_orig : 0.000002                                                  
kernel_cutoff       : 1000                                                      
k_zero              : 3.5                                                       
elec_cg_max 0                                                                   
occ_mix 1.0                                                                     
dispersion 0                                                                    
maxit_ngwf_cg 40                                                                
minit_lnv 10                                                                    
maxit_lnv 10                                                                    
write_denskern T                                                                
write_tightbox_ngwfs T                                                          
charge 9                                                                        
is_implicit_solvent T                                                           
is_auto_solvation T                                                             
is_include_apolar T                                                             
is_smeared_ion_rep T                                                            
is_solvent_surf_tension 4.7624E-5 Ha/bohr**2                                    
is_apolar_scaling_factor 0.281075                                               
is_solvation_beta 1.3                                                           
is_density_threshold 0.00035                                                    
is_bulk_permittivity 78.54                                                      
is_dielectric_model fix_initial                                                 
is_smeared_ion_width 0.8                                                        
mg_defco_fd_order 8                                                             
is_bc_coarseness 10                                                             
is_bc_surface_coarseness 1                                                      
fine_grid_scale 2.0                                                             
%block species                                                                  
N   N   7 4 8.0                                                                 
H   H   1 1 8.0                                                                 
C   C   6 4 8.0                                                                 
S   S  16 9 8.0                                                                 
O   O   8 4 8.0                                                                 
%endblock species                                                               
%block species_pot                                                              
N   N_00.recpot                                                                 
H   H_04.recpot                                                                 
C   C_01.recpot                                                                 
S   S_00.recpot                                                                 
O   O_02.recpot                                                                 
%endblock species_pot                                                           
%block lattice_cart                                                             
137.614   0.000   0.000                                                         
0.000 142.646   0.000                                                           
0.000   0.000   160.855                                                         
%endblock lattice_cart                                                          
%block positions_abs                                                            
     Hash =  -000000818188880944944902
%endblock positions_abs                                                         

--------------------------------------------------------------------------------
-------------------------------- END INPUT FILE --------------------------------
--------------------------------------------------------------------------------


 
 ESDF WARNING(1): "kernelcutoff" (esdf_physical) has no units. Assume "bohr".
 ESDF WARNING(2): "kzero" (esdf_physical) has no units. Assume "1/bohr".
 ESDF WARNING(3
 ): "issmearedionwidth" (esdf_physical) has no units. Assume "bohr".
<<<<<<<<<<<<<<<<<<<<<<<<<<<<<<<<< Full system >>>>>>>>>>>>>>>>>>>>>>>>>>>>>>>>>>
<<<<<<<<<<<<<<<<<<<<<<<<< Pseudopotential information >>>>>>>>>>>>>>>>>>>>>>>>>>
File: N_00.recpot [ 2001 points up to Gmax=  52.9 (1/bohr)]
  Atomic number:  7;  ionic charge:  5.000000
    Shell 1: l = 0; rc = 1.48 bohr
File: H_04.recpot [ 2001 points up to Gmax=  52.9 (1/bohr)]
  Atomic number:  1;  ionic charge:  1.000000
    Local potential
File: C_01.recpot [ 2001 points up to Gmax=  52.9 (1/bohr)]
  Atomic number:  6;  ionic charge:  4.000000
    Shell 1: l = 0; rc = 1.48 bohr
File: S_00.recpot [ 2001 points up to Gmax=  52.9 (1/bohr)]
  Atomic number: 16;  ionic charge:  6.000000
    Shell 1: l = 0; rc = 1.90 bohr
    Shell 2: l = 2; rc = 1.84 bohr
File: O_02.recpot [ 2001 points up to Gmax=  52.9 (1/bohr)]
  Atomic number:  8;  ionic charge:  6.000000
    Shell 1: l = 0; rc = 1.31 bohr
<<<<<<<<<<<<<<<<<<<<<<<<<<<<<<<<<<<<<<<<>>>>>>>>>>>>>>>>>>>>>>>>>>>>>>>>>>>>>>>>

-------------------------- Atom counting information ---------------------------
Symbol    Natoms    Nngwfs    Nprojs
  N        236       944       236
  H       1311      1311         0
  C        810      3240       810
  S          6        54        36
  O        239       956       239
.......   ......    ......    ......
Totals:   2602      6505      1321
--------------------------------------------------------------------------------

=============================== PSINC grid sizes ===============================
                      Simulation cell:  273 x 286 x 320
                              FFT-box:   99 x 105 x  99
                                  PPD:    7 x  11 x   1
Grid space d1=  0.504080586081a0 (KE cutoff=  29.89538Eh = 813.49465eV)
Grid space d2=  0.498762237762a0 (KE cutoff=  30.53633Eh = 830.93588eV)
Grid space d3=  0.502671875000a0 (KE cutoff=  30.06317Eh = 818.06059eV)
================================================================================

********************* Fourier parallelisation information **********************
       Coarse grid (whole simulation cell) dimensions:    273   286   320
          Real-space ('12') slabs/node (min max mean):      8     8     8
         Recip-space ('23') slabs/node (min max mean):      3     4     3
********************************************************************************

********************* Fourier parallelisation information **********************
       Double grid (whole simulation cell) dimensions:    546   572   640
          Real-space ('12') slabs/node (min max mean):     16    16    16
         Recip-space ('23') slabs/node (min max mean):      6     7     6
********************************************************************************
ONETEP fine grid is 546 x 572 x 640 gridpoints, 137.6140 x 142.6460 x 160.8550 bohr.
FD multigrid is     545 x 569 x 633 gridpoints, 137.3620 x 141.8979 x 159.0956 bohr.


Calculating local pseudopotential in open BC on a radial grid ...
Discrepancy between calculated realspace psloc and -Z/x on [5a0,255.264a0]:
max |rel. diff| # avg |rel. diff| #  avg rel. diff #  f # pseudopotential file
 0.000296759711    0.000009439468   0.000000085927   54  'N_00.recpot'
 0.000490027943    0.000021572324  -0.000000031900   54  'H_04.recpot'
 0.000320795249    0.000014598087   0.000000111901   54  'C_01.recpot'
 0.000388730920    0.000016096375   0.000000514750   54  'S_00.recpot'
 0.000828383344    0.000035421288   0.000000087443   54  'O_02.recpot'
... done
 WARNING: meta-GGA functionality under development.
          Using this functional is experimental.
          Minimum tau threshold, xc_min_tau =   1.00000000E-12
 WARNING: Using alternative XC functional PBE for 
          radial densities (xc_radial).

Atom SCF Calculation for N  : Z (AE atom) =   7 : Z (PS atom) =   5
Config String:
Orbitals (num,occ):  2     2.00 3.00
Orbitals   (num,l):  2        0    1
Real-space Grid (nr,dr,rmax): 1203    0.0066555740    8.0000000000
Spherical Bessel Basis (nsws,lmax,cutoff):   47    1  176.3951722778
Confining potential (l,width,scale):  0    3.0000000000  100.0000000000
Confining potential (l,width,scale):  1    3.0000000000  100.0000000000
  1         -4.7312375307   -3.4155304497    7.0523828109   -1.9351020946
  2         -9.7309464766   -2.0532547791    8.2966052865   -2.2494486027
  3         -9.6627394379   -2.1124926340    8.2327997121   -2.2369778124
  4         -9.6814993499   -2.1215521045    8.2229805960   -2.2365178421
  5         -9.6843326483   -2.1250939529    8.2191374534   -2.2362718126
  6         -9.6859628709   -2.1267894855    8.2172963573   -2.2362066344
  7         -9.6867347035   -2.1276425665    8.2163697352   -2.2361903369
  8         -9.6870802100   -2.1280764625    8.2158983890   -2.2361891460
  9         -9.6872290423   -2.1282977424    8.2156580222   -2.2361920435
 10         -9.6872901988   -2.1284107021    8.2155353368   -2.2361953393
 11         -9.6873135296   -2.1284684031    8.2154726809   -2.2361979819
 12         -9.6873212476   -2.1284978948    8.2154406648   -2.2361998431
 13         -9.6873229586   -2.1285129774    8.2154242957   -2.2362010676
 14         -9.6873226456   -2.1285206957    8.2154159216   -2.2362018403
 15         -9.6873218534   -2.1285246479    8.2154116349   -2.2362023142
 16         -9.6873212599   -2.1285262679    8.2154098784   -2.2362025420
 17         -9.6873207834   -2.1285272564    8.2154088068   -2.2362026955
 18         -9.6873204210   -2.1285278597    8.2154081529   -2.2362027982
 19         -9.6873201550   -2.1285282280    8.2154077538   -2.2362028667
 20         -9.6873199645   -2.1285284529    8.2154075102   -2.2362029121
 21         -9.6873198305   -2.1285285903    8.2154073614   -2.2362029421
 22         -9.6873197377   -2.1285286742    8.2154072705   -2.2362029618
Atom SCF converged after  22 iterations to a total energy of     -9.68731974

Atom SCF Calculation for H  : Z (AE atom) =   1 : Z (PS atom) =   1
Config String:
Orbitals (num,occ):  1     1.00
Orbitals   (num,l):  1        0
Real-space Grid (nr,dr,rmax): 1203    0.0066555740    8.0000000000
Spherical Bessel Basis (nsws,lmax,cutoff):   47    0  176.3951722778
Confining potential (l,width,scale):  0    3.0000000000  100.0000000000
  1         -0.3194257691   -0.2393854593    0.2820953124   -0.2424203209
  2         -0.3951823392   -0.2377116493    0.2886404059   -0.2475147891
  3         -0.4317044583   -0.2352244387    0.2921333887   -0.2514046172
  4         -0.4470703708   -0.2341892222    0.2934391879   -0.2531009782
  5         -0.4532132900   -0.2338556667    0.2938388426   -0.2537313520
  6         -0.4556579251   -0.2337612552    0.2939448584   -0.2539550462
  7         -0.4566418315   -0.2337377355    0.2939680120   -0.2540342273
  8         -0.4570437922   -0.2337331116    0.2939708287   -0.2540627372
  9         -0.4572102946   -0.2337328328    0.2939698291   -0.2540732650
 10         -0.4572800424   -0.2337332404    0.2939687193   -0.2540772588
 11         -0.4573095100   -0.2337335791    0.2939680317   -0.2540788122
 12         -0.4573220379   -0.2337337762    0.2939676699   -0.2540794294
 13         -0.4573273880   -0.2337338775    0.2939674931   -0.2540796787
 14         -0.4573296803   -0.2337339266    0.2939674099   -0.2540797808
 15         -0.4573306647   -0.2337339495    0.2939673718   -0.2540798230
 16         -0.4573310882   -0.2337339601    0.2939673545   -0.2540798406
 17         -0.4573312706   -0.2337339649    0.2939673467   -0.2540798479
 18         -0.4573313493   -0.2337339670    0.2939673433   -0.2540798510
Atom SCF converged after  18 iterations to a total energy of     -0.45733135

Atom SCF Calculation for C  : Z (AE atom) =   6 : Z (PS atom) =   4
Config String:
Orbitals (num,occ):  2     2.00 2.00
Orbitals   (num,l):  2        0    1
Real-space Grid (nr,dr,rmax): 1203    0.0066555740    8.0000000000
Spherical Bessel Basis (nsws,lmax,cutoff):   47    1  176.3951722778
Confining potential (l,width,scale):  0    3.0000000000  100.0000000000
Confining potential (l,width,scale):  1    3.0000000000  100.0000000000
  1         -5.2976922011   -1.3069684169    4.5135249990   -1.4493313817
  2         -5.3721716256   -1.3429755895    4.4750154450   -1.4361613026
  3         -5.3809959565   -1.3617365618    4.4541655428   -1.4305930207
  4         -5.3918938866   -1.3667928461    4.4484735100   -1.4294652294
  5         -5.3956096428   -1.3688539142    4.4461376126   -1.4290734646
  6         -5.3968271862   -1.3696852393    4.4451910874   -1.4289366866
  7         -5.3972028401   -1.3700178062    4.4448112275   -1.4288900460
  8         -5.3973067903   -1.3701500158    4.4446598370   -1.4288749220
  9         -5.3973286940   -1.3702023868    4.4445997329   -1.4288704293
 10         -5.3973289850   -1.3702230869    4.4445759233   -1.4288693188
 11         -5.3973254264   -1.3702312560    4.4445665049   -1.4288691775
 12         -5.3973224003   -1.3702344755    4.4445627836   -1.4288692549
 13         -5.3973208708   -1.3702354890    4.4445616088   -1.4288693270
 14         -5.3973198783   -1.3702360102    4.4445610034   -1.4288693814
 15         -5.3973192535   -1.3702362780    4.4445606917   -1.4288694190
 16         -5.3973188684   -1.3702364155    4.4445605313   -1.4288694437
 17         -5.3973186349   -1.3702364860    4.4445604489   -1.4288694595
 18         -5.3973184951   -1.3702365221    4.4445604065   -1.4288694693
 19         -5.3973184122   -1.3702365405    4.4445603848   -1.4288694753
Atom SCF converged after  19 iterations to a total energy of     -5.39731841

Atom SCF Calculation for S  : Z (AE atom) =  16 : Z (PS atom) =   6
Config String:
Orbitals (num,occ):  3     2.00 4.00 0.00
Orbitals   (num,l):  3        0    1    2
Real-space Grid (nr,dr,rmax): 1203    0.0066555740    8.0000000000
Spherical Bessel Basis (nsws,lmax,cutoff):   47    2  176.3951722778
Confining potential (l,width,scale):  0    3.0000000000  100.0000000000
Confining potential (l,width,scale):  1    3.0000000000  100.0000000000
Confining potential (l,width,scale):  2    3.0000000000  100.0000000000
  1        -12.4735062396   -1.0328741412   10.1554312477   -2.4512393157
  2         -9.9458301913   -2.4607392455    8.3041325857   -2.0306994528
  3        -10.1450417646   -2.2931184565    8.4831893826   -2.0812538287
  4        -10.1528335592   -2.2733105793    8.5050388867   -2.0896035179
  5        -10.1571940363   -2.2633716629    8.5160794258   -2.0939370707
  6        -10.1594380571   -2.2584938667    8.5215163935   -2.0961289008
  7        -10.1605856507   -2.2561081821    8.5241804044   -2.0972291378
  8        -10.1611799191   -2.2549395235    8.5254868240   -2.0977806248
  9        -10.1614918752   -2.2543658586    8.5261285885   -2.0980571586
 10        -10.1616572884   -2.2540839121    8.5264441898   -2.0981959233
 11        -10.1617455602   -2.2539453058    8.5265994231   -2.0982656006
 12        -10.1617928447   -2.2538772062    8.5266757320   -2.0983006047
 13        -10.1618182292   -2.2538437891    8.5267131983   -2.0983181961
 14        -10.1618318741   -2.2538274201    8.5267315620   -2.0983270391
 15        -10.1618392144   -2.2538194197    8.5267405433   -2.0983314852
 16        -10.1618431651   -2.2538155200    8.5267449245   -2.0983337210
 17        -10.1618452923   -2.2538136252    8.5267470551   -2.0983348455
 18        -10.1618464380   -2.2538127080    8.5267480875   -2.0983354110
 19        -10.1618470552   -2.2538122659    8.5267485856   -2.0983356955
 20        -10.1618473878   -2.2538120540    8.5267488248   -2.0983358386
 21        -10.1618475670   -2.2538119530    8.5267489389   -2.0983359106
 22        -10.1618476637   -2.2538119053    8.5267489929   -2.0983359468
Atom SCF converged after  22 iterations to a total energy of    -10.16184766

Atom SCF Calculation for O  : Z (AE atom) =   8 : Z (PS atom) =   6
Config String:
Orbitals (num,occ):  2     2.00 4.00
Orbitals   (num,l):  2        0    1
Real-space Grid (nr,dr,rmax): 1203    0.0066555740    8.0000000000
Spherical Bessel Basis (nsws,lmax,cutoff):   47    1  176.3951722778
Confining potential (l,width,scale):  0    3.0000000000  100.0000000000
Confining potential (l,width,scale):  1    3.0000000000  100.0000000000
  1         -1.8735052164   -7.5539365035   10.1554312477   -2.4512393157
  2        -16.0318313751   -3.1285771268   13.6395848164   -3.2358799643
  3        -15.9524020423   -3.0762819706   13.6967272503   -3.2536856837
  4        -15.8521515939   -3.0781493909   13.6951909330   -3.2561700440
  5        -15.8357139793   -3.0748501933   13.6988803334   -3.2580493133
  6        -15.8246052853   -3.0740779781   13.6997881576   -3.2588327446
  7        -15.8189019501   -3.0737449687   13.7001869911   -3.2592378801
  8        -15.8159785510   -3.0736026016   13.7003615168   -3.2594475790
  9        -15.8144776168   -3.0735437994   13.7004360379   -3.2595560735
 10        -15.8137058024   -3.0735207882   13.7004667348   -3.2596122456
 11        -15.8133083127   -3.0735125946   13.7004786868   -3.2596413656
 12        -15.8131032938   -3.0735102195   13.7004828997   -3.2596564858
 13        -15.8129973902   -3.0735099286   13.7004840891   -3.2596643505
 14        -15.8129426040   -3.0735102506   13.7004842061   -3.2596684489
 15        -15.8129142203   -3.0735106556   13.7004840157   -3.2596705887
 16        -15.8128994940   -3.0735109855   13.7004837906   -3.2596717080
 17        -15.8128918425   -3.0735112169   13.7004836103   -3.2596722946
 18        -15.8128878614   -3.0735113674   13.7004834848   -3.2596726026
 19        -15.8128857871   -3.0735114608   13.7004834035   -3.2596727646
 20        -15.8128847048   -3.0735115170   13.7004833533   -3.2596728500
 21        -15.8128841394   -3.0735115501   13.7004833231   -3.2596728951
 22        -15.8128838436   -3.0735115693   13.7004833054   -3.2596729190
 23        -15.8128836887   -3.0735115802   13.7004832951   -3.2596729316
 24        -15.8128836074   -3.0735115864   13.7004832893   -3.2596729383
Atom SCF converged after  24 iterations to a total energy of    -15.81288361

========================== Calculation in vacuum ==============================
= Adjusting the following parameters: 
= is_implicit_solvent: F
= is_include_apolar: F
= write_denskern: T
= write_tightbox_ngwfs: T
= restart read filename prefix: ""
= restart write filename prefix: "vacuum_"
===============================================================================

Determining parallel strategy ...
... using space-filling curve
... NGWF load balancing: max    163;  min    162;  average    163
... Projector load balancing: max     36;  min     32;  average     33
... done
Calculating direct Ion-Ion energy ...
Ion-Ion Energy        :    828039.19906832033303
Basis initialisation ...... NGWF spheres initialised
... Projector spheres initialised
... NGWF tight boxes initialised
... Tight-boxes gathered
... NGWF basis size (local,global):    1122617  44706523
... Nonlocal pseudopotential projector initialisation
... done

========================== Sparse matrix information ===========================
                        Overlap matrix filling:   6.79%
                        Density kernel filling: 100.00%
              NGWF-Proj overlap matrix filling:   1.78%
                    Hamiltonian matrix filling:   7.67%
                  NGWF diagonal matrix filling:   0.05%
                             KS matrix filling: 100.00% 
                           KSKS matrix filling: 100.00% 
================================================================================

Sparse matrix initialisation ... done

Generating smeared ion density ... done
Smeared ion self correction:     -14457.169564
Smeared ion non-self correction: -827991.133656
NGWF initialisation ...... done
============ Calculation of NGWF S^-1 using Hotelling algorithm ================ 
         Iteration  |  Frobenius norm and Maximum abs value    (of I-S*S_n^-1)   
               1       0.78434355E+02     0.98230717E+00
               2       0.76550915E+02     0.96504517E+00
               3       0.73512928E+02     0.93175285E+00
               4       0.69215015E+02     0.86971833E+00
               5       0.63882269E+02     0.76475201E+00
               6       0.57907913E+02     0.70244256E+00
               7       0.51922633E+02     0.67219181E+00
               8       0.46385934E+02     0.64652262E+00
               9       0.40278476E+02     0.60585787E+00
              10       0.31946167E+02     0.53591319E+00
              11       0.21351596E+02     0.42322990E+00
              12       0.10817667E+02     0.28250257E+00
              13       0.35175786E+01     0.12887608E+00
              14       0.55106469E+00     0.33750052E-01
              15       0.27746912E-01     0.31950206E-02
              16       0.17609244E-03     0.31598100E-04
              17       0.13454471E-07     0.31987827E-08
              18       0.90433937E-13     0.54400928E-14
================================================================================
Calculating local pseudopotential in open BC on the fine real space grid ...
... done

MG BCs: +ve charge blocks (gridpoints):     20472 (   16106329).
MG BCs: -ve charge blocks (gridpoints):      8140 (    1095150).
MG BCs:     Elided blocks (gridpoints):    180168 (  179094986).
MG BCs: Computational effort saved:  99.9854%.
MG BCs: Charge after coarse-graining:           -9.0002237.
MG DL_MG: Calling solver with defect correction order = 8
MG DL_MG: Solver finished
MG Hartree energy from (\int phi*rho dr):              1462.524790
MG Hartree energy from (\int eps (grad phi)^2 dr):     1461.913828
MG Discrepancy due to finite box and discretization:     -0.610962 (  -0.04177%)
MG Correction to account for finite box:                  0.464320
MG Remaining discrepancy, due to discretization:         -0.146642 (  -0.01003%)
 WARNING: xc_energy_potential using alternative initial XC functional PBE.
Up spin density kernel initialisation ... 
======= Optimisation of K by Palser-Manolopoulos canonical purification ======== 
         Iteration  |  Band structure energy |    c_n   
               1       -2582.82375404471168    0.5270437
               2       -2758.57541624069472    0.5172287
               3       -2938.77046619724570    0.5155975
               4       -3089.30626229994596    0.5289965
               5       -3182.05235460902350    0.5644154
               6       -3220.99426429684991    0.6087616
               7       -3234.23964844938473    0.6191288
               8       -3239.98957649922022    0.6137322
               9       -3242.79553881321544    0.6210970
              10       -3243.96085158801634    0.6461457
              11       -3244.38798498856067    0.6759297
              12       -3244.54988437443990    0.6712192
              13       -3244.63108067077610    0.6189719
              14       -3244.68304463391769    0.5445212
              15       -3244.71222817422722    0.4755997
              16       -3244.72024088619673    0.4393039
              17       -3244.72168404152944    0.4599928
              18       -3244.72241742962160    0.4905524
              19       -3244.72272813253130    0.4995143
              20       -3244.72277436989361    0.4999988
              21       -3244.72277527008737    0.5000288
              22       -3244.72277527042752    0.5000288
Termination criterion satisfied: band energy change below threshold.
Final occupancy bounds: [    0.00000000000000:    1.00000000000000]
Closest occupancy to 0.5:     1.00000000000000
================================================================================
... done

Writing density kernel to file "host_18721.vacuum_dkn" ... done

>>> Optimising kernel for current NGWFs:
   Initial electron number for spin 1:    7192.00000000
     Final electron number for spin 1:    7192.00000000

=================== Penalty functional idempotency correction ==================
 RMS occupancy error at iteration   1:  0.000000 (step -0.5000 Ne1=   7192.0000)
            Final RMS occupancy error   :  0.000000 (Ne1=   7192.0000)
               Final occupancy bounds   : [  0.0000,  1.0000]
================================================================================

................................................................................
<<<<<<<<<<<<<< LNV (Original version) density kernel optimisation >>>>>>>>>>>>>>
~~~~~~~~~~~~~~~~~~~~~~~~~~~~~~~~~~~~~~~~~~~~~~~~~~~~~~~~~~~~~~~~~~~~~~~~~~~~~~~~
   iter  |      energy (Eh)       | rms gradient |  commutator  |   dE (Eh)
MG BCs: +ve charge blocks (gridpoints):     30942 (   17225095).
MG BCs: -ve charge blocks (gridpoints):      8448 (    1127992).
MG BCs:     Elided blocks (gridpoints):    169692 (  177943378).
MG BCs: Computational effort saved:  99.9799%.
MG BCs: Charge after coarse-graining:           -9.0009613.
MG DL_MG: Calling solver with defect correction order = 8
MG DL_MG: Solver finished
MG Hartree energy from (\int phi*rho dr):              1418.344799
MG Hartree energy from (\int eps (grad phi)^2 dr):     1417.679648
MG Discrepancy due to finite box and discretization:     -0.665152 (  -0.04690%)
MG Correction to account for finite box:                  0.476901
MG Remaining discrepancy, due to discretization:         -0.188251 (  -0.01327%)
      ideal mu1:      -0.740357667050
             Q0:  -11470.903862756444
             G0:    -128.588798390612
   RMS gradient:       0.001743228302
MG BCs: +ve charge blocks (gridpoints):     30886 (   17302108).
MG BCs: -ve charge blocks (gridpoints):      8337 (    1105456).
MG BCs:     Elided blocks (gridpoints):    169748 (  177888901).
MG BCs: Computational effort saved:  99.9800%.
MG BCs: Charge after coarse-graining:           -9.0009833.
MG DL_MG: Calling solver with defect correction order = 8
MG DL_MG: Solver finished
MG Hartree energy from (\int phi*rho dr):              1438.975816
MG Hartree energy from (\int eps (grad phi)^2 dr):     1438.325936
MG Discrepancy due to finite box and discretization:     -0.649881 (  -0.04516%)
MG Correction to account for finite box:                  0.476878
MG Remaining discrepancy, due to discretization:         -0.173002 (  -0.01202%)
     Trial step:       0.500000000000
             Q1:  -11483.558155419887
 Quadratic coef:      51.640106531862
 Linear coef   :     -64.294399195306
           Qmin:  -11490.916262253213
Quadratic minimum step length (  0.311261941121) accepted
    Initial Ne1:    7192.00000000
      Final Ne1:    7192.00000000

=================== Penalty functional idempotency correction ==================
 RMS occupancy error at iteration   1:  0.003302 (step -0.4887 Ne1=   7192.0000)
 RMS occupancy error at iteration   2:  0.000027 (step -0.5001 Ne1=   7192.0000)
            Final RMS occupancy error   :  0.000000 (Ne1=   7192.0000)
               Final occupancy bounds   : [  0.0000,  1.0000]
================================================================================

    1        -1.147090386276E+04     1.7432E-03     1.5767E-03
MG BCs: +ve charge blocks (gridpoints):     30903 (   17275042).
MG BCs: -ve charge blocks (gridpoints):      8402 (    1113948).
MG BCs:     Elided blocks (gridpoints):    169731 (  177907475).
MG BCs: Computational effort saved:  99.9800%.
MG BCs: Charge after coarse-graining:           -9.0009748.
MG DL_MG: Calling solver with defect correction order = 8
MG DL_MG: Solver finished
MG Hartree energy from (\int phi*rho dr):              1424.553155
MG Hartree energy from (\int eps (grad phi)^2 dr):     1423.898327
MG Discrepancy due to finite box and discretization:     -0.654828 (  -0.04597%)
MG Correction to account for finite box:                  0.476787
MG Remaining discrepancy, due to discretization:         -0.178041 (  -0.01250%)
      ideal mu1:      -0.782561663526
             Q0:  -11491.318533680052
             G0:     -11.673319266648
   RMS gradient:       0.000521315747
MG BCs: +ve charge blocks (gridpoints):     30894 (   17291596).
MG BCs: -ve charge blocks (gridpoints):      8355 (    1107061).
MG BCs:     Elided blocks (gridpoints):    169740 (  177897808).
MG BCs: Computational effort saved:  99.9800%.
MG BCs: Charge after coarse-graining:           -9.0009792.
MG DL_MG: Calling solver with defect correction order = 8
MG DL_MG: Solver finished
MG Hartree energy from (\int phi*rho dr):              1429.910125
MG Hartree energy from (\int eps (grad phi)^2 dr):     1429.258876
MG Discrepancy due to finite box and discretization:     -0.651249 (  -0.04554%)
MG Correction to account for finite box:                  0.476201
MG Remaining discrepancy, due to discretization:         -0.175048 (  -0.01224%)
     Trial step:       0.394500913257
             Q1:  -11493.989621099434
 Quadratic coef:       1.934047692053
 Linear coef   :      -4.605135111435
           Qmin:  -11494.059840096863
Quadratic minimum step length (  0.469670426070) accepted
    Initial Ne1:    7191.99985187
      Final Ne1:    7192.00000000

=================== Penalty functional idempotency correction ==================
 RMS occupancy error at iteration   1:  0.001589 (step -0.4941 Ne1=   7192.0000)
 RMS occupancy error at iteration   2:  0.000009 (step -0.5002 Ne1=   7192.0000)
            Final RMS occupancy error   :  0.000000 (Ne1=   7192.0000)
               Final occupancy bounds   : [  0.0000,  1.0000]
================================================================================

    2        -1.149131853368E+04     5.2132E-04     4.7152E-04    -2.0415E+01
MG BCs: +ve charge blocks (gridpoints):     30893 (   17294667).
MG BCs: -ve charge blocks (gridpoints):      8348 (    1105830).
MG BCs:     Elided blocks (gridpoints):    169741 (  177895968).
MG BCs: Computational effort saved:  99.9800%.
MG BCs: Charge after coarse-graining:           -9.0009801.
MG DL_MG: Calling solver with defect correction order = 8
MG DL_MG: Solver finished
MG Hartree energy from (\int phi*rho dr):              1430.961891
MG Hartree energy from (\int eps (grad phi)^2 dr):     1430.311282
MG Discrepancy due to finite box and discretization:     -0.650609 (  -0.04547%)
MG Correction to account for finite box:                  0.476096
MG Remaining discrepancy, due to discretization:         -0.174513 (  -0.01220%)
      ideal mu1:      -0.804803230091
             Q0:  -11494.096767545445
             G0:      -1.957022266048
   RMS gradient:       0.000213512119
MG BCs: +ve charge blocks (gridpoints):     30893 (   17295635).
MG BCs: -ve charge blocks (gridpoints):      8345 (    1105835).
MG BCs:     Elided blocks (gridpoints):    169741 (  177894995).
MG BCs: Computational effort saved:  99.9800%.
MG BCs: Charge after coarse-graining:           -9.0009802.
MG DL_MG: Calling solver with defect correction order = 8
MG DL_MG: Solver finished
MG Hartree energy from (\int phi*rho dr):              1430.321453
MG Hartree energy from (\int eps (grad phi)^2 dr):     1429.671357
MG Discrepancy due to finite box and discretization:     -0.650096 (  -0.04545%)
MG Correction to account for finite box:                  0.475780
MG Remaining discrepancy, due to discretization:         -0.174316 (  -0.01219%)
     Trial step:       0.430447920212
             Q1:  -11494.607718479121
 Quadratic coef:       0.331445230553
 Linear coef   :      -0.842396164228
           Qmin:  -11494.632022869773
Quadratic minimum step length (  0.547009948343) accepted
    Initial Ne1:    7191.99992727
      Final Ne1:    7192.00000000

=================== Penalty functional idempotency correction ==================
 RMS occupancy error at iteration   1:  0.000651 (step -0.4967 Ne1=   7192.0000)
 RMS occupancy error at iteration   2:  0.000004 (step -0.5000 Ne1=   7192.0000)
            Final RMS occupancy error   :  0.000000 (Ne1=   7192.0000)
               Final occupancy bounds   : [  0.0000,  1.0000]
================================================================================

    3        -1.149409676755E+04     2.1351E-04     1.9312E-04    -2.7782E+00
MG BCs: +ve charge blocks (gridpoints):     30895 (   17295860).
MG BCs: -ve charge blocks (gridpoints):      8346 (    1105906).
MG BCs:     Elided blocks (gridpoints):    169739 (  177894699).
MG BCs: Computational effort saved:  99.9800%.
MG BCs: Charge after coarse-graining:           -9.0009802.
MG DL_MG: Calling solver with defect correction order = 8
MG DL_MG: Solver finished
MG Hartree energy from (\int phi*rho dr):              1430.153068
MG Hartree energy from (\int eps (grad phi)^2 dr):     1429.503098
MG Discrepancy due to finite box and discretization:     -0.649970 (  -0.04545%)
MG Correction to account for finite box:                  0.475696
MG Remaining discrepancy, due to discretization:         -0.174274 (  -0.01219%)
      ideal mu1:      -0.808027535103
             Q0:  -11494.637350111501
             G0:      -0.473217883592
   RMS gradient:       0.000105187069
MG BCs: +ve charge blocks (gridpoints):     30893 (   17296309).
MG BCs: -ve charge blocks (gridpoints):      8338 (    1105712).
MG BCs:     Elided blocks (gridpoints):    169741 (  177894444).
MG BCs: Computational effort saved:  99.9800%.
MG BCs: Charge after coarse-graining:           -9.0009803.
MG DL_MG: Calling solver with defect correction order = 8
MG DL_MG: Solver finished
MG Hartree energy from (\int phi*rho dr):              1431.223815
MG Hartree energy from (\int eps (grad phi)^2 dr):     1430.573853
MG Discrepancy due to finite box and discretization:     -0.649962 (  -0.04541%)
MG Correction to account for finite box:                  0.475549
MG Remaining discrepancy, due to discretization:         -0.174413 (  -0.01219%)
     Trial step:       0.485241480707
             Q1:  -11494.762987721479
 Quadratic coef:       0.103987336555
 Linear coef   :      -0.229624946532
           Qmin:  -11494.764114623933
Quadratic minimum step length (  0.535755375382) accepted
    Initial Ne1:    7191.99998279
      Final Ne1:    7192.00000000

=================== Penalty functional idempotency correction ==================
 RMS occupancy error at iteration   1:  0.000300 (step -0.4939 Ne1=   7192.0000)
 RMS occupancy error at iteration   2:  0.000004 (step -0.5000 Ne1=   7192.0000)
            Final RMS occupancy error   :  0.000000 (Ne1=   7192.0000)
               Final occupancy bounds   : [  0.0000,  1.0000]
================================================================================

    4        -1.149463735011E+04     1.0519E-04     9.5139E-05    -5.4058E-01
MG BCs: +ve charge blocks (gridpoints):     30893 (   17296334).
MG BCs: -ve charge blocks (gridpoints):      8338 (    1105725).
MG BCs:     Elided blocks (gridpoints):    169741 (  177894406).
MG BCs: Computational effort saved:  99.9800%.
MG BCs: Charge after coarse-graining:           -9.0009803.
MG DL_MG: Calling solver with defect correction order = 8
MG DL_MG: Solver finished
MG Hartree energy from (\int phi*rho dr):              1431.335867
MG Hartree energy from (\int eps (grad phi)^2 dr):     1430.685905
MG Discrepancy due to finite box and discretization:     -0.649962 (  -0.04541%)
MG Correction to account for finite box:                  0.475533
MG Remaining discrepancy, due to discretization:         -0.174429 (  -0.01219%)
      ideal mu1:      -0.807911113176
             Q0:  -11494.764714248711
             G0:      -0.185139476856
   RMS gradient:       0.000066000097
MG BCs: +ve charge blocks (gridpoints):     30888 (   17295913).
MG BCs: -ve charge blocks (gridpoints):      8338 (    1105909).
MG BCs:     Elided blocks (gridpoints):    169746 (  177894643).
MG BCs: Computational effort saved:  99.9800%.
MG BCs: Charge after coarse-graining:           -9.0009801.
MG DL_MG: Calling solver with defect correction order = 8
MG DL_MG: Solver finished
MG Hartree energy from (\int phi*rho dr):              1430.984544
MG Hartree energy from (\int eps (grad phi)^2 dr):     1430.334457
MG Discrepancy due to finite box and discretization:     -0.650087 (  -0.04543%)
MG Correction to account for finite box:                  0.475500
MG Remaining discrepancy, due to discretization:         -0.174588 (  -0.01220%)
     Trial step:       0.509873250571
             Q1:  -11494.823511737632
 Quadratic coef:       0.035600177953
 Linear coef   :      -0.094397666874
           Qmin:  -11494.827290617874
Quadratic minimum step length (  0.675991638566) accepted
    Initial Ne1:    7191.99999085
      Final Ne1:    7192.00000000

=================== Penalty functional idempotency correction ==================
 RMS occupancy error at iteration   1:  0.000486 (step -0.4687 Ne1=   7192.0000)
 RMS occupancy error at iteration   2:  0.000011 (step -0.5000 Ne1=   7192.0000)
            Final RMS occupancy error   :  0.000000 (Ne1=   7192.0000)
               Final occupancy bounds   : [  0.0000,  1.0000]
================================================================================

    5        -1.149476471425E+04     6.6000E-05     5.9696E-05    -1.2736E-01
MG BCs: +ve charge blocks (gridpoints):     30888 (   17295779).
MG BCs: -ve charge blocks (gridpoints):      8339 (    1105933).
MG BCs:     Elided blocks (gridpoints):    169746 (  177894753).
MG BCs: Computational effort saved:  99.9800%.
MG BCs: Charge after coarse-graining:           -9.0009800.
MG DL_MG: Calling solver with defect correction order = 8
MG DL_MG: Solver finished
MG Hartree energy from (\int phi*rho dr):              1430.869536
MG Hartree energy from (\int eps (grad phi)^2 dr):     1430.219407
MG Discrepancy due to finite box and discretization:     -0.650129 (  -0.04544%)
MG Correction to account for finite box:                  0.475489
MG Remaining discrepancy, due to discretization:         -0.174640 (  -0.01221%)
      ideal mu1:      -0.806950008211
             Q0:  -11494.826649422757
             G0:      -0.163461264906
   RMS gradient:       0.000062595114
MG BCs: +ve charge blocks (gridpoints):     30886 (   17295241).
MG BCs: -ve charge blocks (gridpoints):      8340 (    1106263).
MG BCs:     Elided blocks (gridpoints):    169748 (  177894961).
MG BCs: Computational effort saved:  99.9800%.
MG BCs: Charge after coarse-graining:           -9.0009798.
MG DL_MG: Calling solver with defect correction order = 8
MG DL_MG: Solver finished
MG Hartree energy from (\int phi*rho dr):              1429.774727
MG Hartree energy from (\int eps (grad phi)^2 dr):     1429.124589
MG Discrepancy due to finite box and discretization:     -0.650138 (  -0.04547%)
MG Correction to account for finite box:                  0.475473
MG Remaining discrepancy, due to discretization:         -0.174665 (  -0.01222%)
     Trial step:       0.587086070448
             Q1:  -11494.898198662209
 Quadratic coef:       0.024416592232
 Linear coef   :      -0.095965831684
           Qmin:  -11494.920944326435
Quadratic minimum step length (  1.153727811088) accepted
    Initial Ne1:    7191.99997650
      Final Ne1:    7192.00000000

=================== Penalty functional idempotency correction ==================
 RMS occupancy error at iteration   1:  0.003823 (step -0.3134 Ne1=   7192.0000)
 RMS occupancy error at iteration   2:  0.000223 (step -0.4910 Ne1=   7192.0000)
 RMS occupancy error at iteration   3:  0.000003 (step -0.5000 Ne1=   7192.0000)
            Final RMS occupancy error   :  0.000000 (Ne1=   7192.0000)
               Final occupancy bounds   : [  0.0000,  1.0000]
================================================================================

    6        -1.149482664942E+04     6.2595E-05     5.6616E-05    -6.1935E-02
MG BCs: +ve charge blocks (gridpoints):     30888 (   17294668).
MG BCs: -ve charge blocks (gridpoints):      8344 (    1106603).
MG BCs:     Elided blocks (gridpoints):    169746 (  177895194).
MG BCs: Computational effort saved:  99.9800%.
MG BCs: Charge after coarse-graining:           -9.0009798.
MG DL_MG: Calling solver with defect correction order = 8
MG DL_MG: Solver finished
MG Hartree energy from (\int phi*rho dr):              1428.746386
MG Hartree energy from (\int eps (grad phi)^2 dr):     1428.096215
MG Discrepancy due to finite box and discretization:     -0.650171 (  -0.04551%)
MG Correction to account for finite box:                  0.475478
MG Remaining discrepancy, due to discretization:         -0.174693 (  -0.01223%)
      ideal mu1:      -0.806277485689
             Q0:  -11494.902523659053
             G0:      -0.288983963067
   RMS gradient:       0.000082639860
MG BCs: +ve charge blocks (gridpoints):     30893 (   17297537).
MG BCs: -ve charge blocks (gridpoints):      8338 (    1104916).
MG BCs:     Elided blocks (gridpoints):    169741 (  177894012).
MG BCs: Computational effort saved:  99.9800%.
MG BCs: Charge after coarse-graining:           -9.0009806.
MG DL_MG: Calling solver with defect correction order = 8
MG DL_MG: Solver finished
MG Hartree energy from (\int phi*rho dr):              1432.436536
MG Hartree energy from (\int eps (grad phi)^2 dr):     1431.786611
MG Discrepancy due to finite box and discretization:     -0.649925 (  -0.04537%)
MG Correction to account for finite box:                  0.475343
MG Remaining discrepancy, due to discretization:         -0.174582 (  -0.01219%)
     Trial step:       0.823005180408
             Q1:  -11494.986384038930
 Quadratic coef:       0.153974918781
 Linear coef   :      -0.237835298659
           Qmin:  -11494.994365937224
Quadratic minimum step length (  0.635621971518) accepted
    Initial Ne1:    7191.99999869
      Final Ne1:    7192.00000000

=================== Penalty functional idempotency correction ==================
 RMS occupancy error at iteration   1:  0.000167 (step -0.4885 Ne1=   7192.0000)
 RMS occupancy error at iteration   2:  0.000001 (step -0.5000 Ne1=   7192.0000)
            Final RMS occupancy error   :  0.000000 (Ne1=   7192.0000)
               Final occupancy bounds   : [  0.0000,  1.0000]
================================================================================

    7        -1.149490252366E+04     8.2640E-05     7.4746E-05    -7.5874E-02
MG BCs: +ve charge blocks (gridpoints):     30892 (   17296843).
MG BCs: -ve charge blocks (gridpoints):      8338 (    1105329).
MG BCs:     Elided blocks (gridpoints):    169742 (  177894293).
MG BCs: Computational effort saved:  99.9800%.
MG BCs: Charge after coarse-graining:           -9.0009804.
MG DL_MG: Calling solver with defect correction order = 8
MG DL_MG: Solver finished
MG Hartree energy from (\int phi*rho dr):              1431.593572
MG Hartree energy from (\int eps (grad phi)^2 dr):     1430.943593
MG Discrepancy due to finite box and discretization:     -0.649980 (  -0.04540%)
MG Correction to account for finite box:                  0.475373
MG Remaining discrepancy, due to discretization:         -0.174606 (  -0.01220%)
      ideal mu1:      -0.807985957024
             Q0:  -11494.994532778510
             G0:      -0.185569304329
   RMS gradient:       0.000066165411
MG BCs: +ve charge blocks (gridpoints):     30889 (   17296648).
MG BCs: -ve charge blocks (gridpoints):      8343 (    1105426).
MG BCs:     Elided blocks (gridpoints):    169745 (  177894391).
MG BCs: Computational effort saved:  99.9800%.
MG BCs: Charge after coarse-graining:           -9.0009805.
MG DL_MG: Calling solver with defect correction order = 8
MG DL_MG: Solver finished
MG Hartree energy from (\int phi*rho dr):              1431.109206
MG Hartree energy from (\int eps (grad phi)^2 dr):     1430.459344
MG Discrepancy due to finite box and discretization:     -0.649862 (  -0.04541%)
MG Correction to account for finite box:                  0.475438
MG Remaining discrepancy, due to discretization:         -0.174424 (  -0.01219%)
     Trial step:       0.723270471774
             Q1:  -11495.070480664726
 Quadratic coef:       0.058268912073
 Linear coef   :      -0.134216798288
           Qmin:  -11495.071821629039
Quadratic minimum step length (  0.832991758081) accepted
    Initial Ne1:    7191.99999867
      Final Ne1:    7192.00000000

=================== Penalty functional idempotency correction ==================
 RMS occupancy error at iteration   1:  0.001012 (step -0.4391 Ne1=   7192.0000)
 RMS occupancy error at iteration   2:  0.000029 (step -0.4987 Ne1=   7192.0000)
            Final RMS occupancy error   :  0.000000 (Ne1=   7192.0000)
               Final occupancy bounds   : [ -0.0000,  1.0000]
================================================================================

    8        -1.149499453278E+04     6.6165E-05     5.9845E-05    -9.2009E-02
MG BCs: +ve charge blocks (gridpoints):     30890 (   17296620).
MG BCs: -ve charge blocks (gridpoints):      8344 (    1105424).
MG BCs:     Elided blocks (gridpoints):    169744 (  177894421).
MG BCs: Computational effort saved:  99.9800%.
MG BCs: Charge after coarse-graining:           -9.0009805.
MG DL_MG: Calling solver with defect correction order = 8
MG DL_MG: Solver finished
MG Hartree energy from (\int phi*rho dr):              1431.037953
MG Hartree energy from (\int eps (grad phi)^2 dr):     1430.388108
MG Discrepancy due to finite box and discretization:     -0.649845 (  -0.04541%)
MG Correction to account for finite box:                  0.475448
MG Remaining discrepancy, due to discretization:         -0.174397 (  -0.01219%)
      ideal mu1:      -0.807258863803
             Q0:  -11495.071694578393
             G0:      -0.167222841397
   RMS gradient:       0.000062744035
MG BCs: +ve charge blocks (gridpoints):     30888 (   17295629).
MG BCs: -ve charge blocks (gridpoints):      8349 (    1106031).
MG BCs:     Elided blocks (gridpoints):    169746 (  177894805).
MG BCs: Computational effort saved:  99.9800%.
MG BCs: Charge after coarse-graining:           -9.0009802.
MG DL_MG: Calling solver with defect correction order = 8
MG DL_MG: Solver finished
MG Hartree energy from (\int phi*rho dr):              1429.659362
MG Hartree energy from (\int eps (grad phi)^2 dr):     1429.009594
MG Discrepancy due to finite box and discretization:     -0.649768 (  -0.04545%)
MG Correction to account for finite box:                  0.475463
MG Remaining discrepancy, due to discretization:         -0.174306 (  -0.01219%)
     Trial step:       0.776194783447
             Q1:  -11495.132347903447
 Quadratic coef:       0.069144172112
 Linear coef   :      -0.129797497166
           Qmin:  -11495.132608570693
Quadratic minimum step length (  0.728536745233) accepted
    Initial Ne1:    7192.00051047
      Final Ne1:    7192.00000000

=================== Penalty functional idempotency correction ==================
 RMS occupancy error at iteration   1:  0.002235 (step -0.3920 Ne1=   7192.0000)
 RMS occupancy error at iteration   2:  0.000082 (step -0.4978 Ne1=   7192.0000)
 RMS occupancy error at iteration   3:  0.000001 (step -0.5000 Ne1=   7192.0000)
            Final RMS occupancy error   :  0.000000 (Ne1=   7192.0000)
               Final occupancy bounds   : [  0.0000,  1.0000]
================================================================================

    9        -1.149507169458E+04     6.2744E-05     5.6750E-05    -7.7162E-02
MG BCs: +ve charge blocks (gridpoints):     30889 (   17295686).
MG BCs: -ve charge blocks (gridpoints):      8349 (    1105995).
MG BCs:     Elided blocks (gridpoints):    169745 (  177894784).
MG BCs: Computational effort saved:  99.9800%.
MG BCs: Charge after coarse-graining:           -9.0009802.
MG DL_MG: Calling solver with defect correction order = 8
MG DL_MG: Solver finished
MG Hartree energy from (\int phi*rho dr):              1429.746328
MG Hartree energy from (\int eps (grad phi)^2 dr):     1429.096547
MG Discrepancy due to finite box and discretization:     -0.649780 (  -0.04545%)
MG Correction to account for finite box:                  0.475471
MG Remaining discrepancy, due to discretization:         -0.174309 (  -0.01219%)
      ideal mu1:      -0.806463964588
   10        -1.149513489678E+04     5.6300E-05     5.0922E-05    -6.3202E-02
Finished density kernel iterations (  10)

Writing density kernel to file "host_18721.vacuum_dkn" ... done


>>> Density kernel optimised for the current NGWF basis:
     ~~~~~~~~~~~~~~~~~~~~~~~~~~~~~~~~~~~~~~~~~~~~~~~~~~~~~~~~~~~
     Total energy                =  -1.14951348967759E+04  Eh
     Estimated bandgap           =  -4.8299E-01  Eh
     RMS occupancy error         =   4.8532E-11
     [H,K] commutator            =   5.0922E-05
     Occupancy bounds            = [  0.000:  1.000]
     ~~~~~~~~~~~~~~~~~~~~~~~~~~~~~~~~~~~~~~~~~~~~~~~~~~~~~~~~~~~




################################################################################
########################### NGWF CG iteration  001 #############################
################################################################################
****** Reciprocal space K.E. preconditioning with k_zero =  3.5000 a0^-1 *******

>>> Checking for convergence of NGWFs:   NOT CONVERGED
  ========================================================================
         NGWF RMS gradient =  1.6236E-03 >  2.0000E-06  | above tolerance
  ========================================================================

>>> Improving NGWFs using line search:
============ Calculation of NGWF S^-1 using Hotelling algorithm ================ 
         Iteration  |  Frobenius norm and Maximum abs value    (of I-S*S_n^-1)   
               1       0.23356557E+00     0.60631489E-02
               2       0.12515301E-02     0.49032161E-04
               3       0.58801837E-07     0.37862044E-08
               4       0.13086088E-12     0.65398262E-14
================================================================================
MG BCs: +ve charge blocks (gridpoints):     30414 (   17244251).
MG BCs: -ve charge blocks (gridpoints):      8355 (    1102886).
MG BCs:     Elided blocks (gridpoints):    170222 (  177949328).
MG BCs: Computational effort saved:  99.9802%.
MG BCs: Charge after coarse-graining:           -9.0009829.
MG DL_MG: Calling solver with defect correction order = 8
MG DL_MG: Solver finished
MG Hartree energy from (\int phi*rho dr):              1401.948727
MG Hartree energy from (\int eps (grad phi)^2 dr):     1401.300294
MG Discrepancy due to finite box and discretization:     -0.648433 (  -0.04625%)
MG Correction to account for finite box:                  0.475408
MG Remaining discrepancy, due to discretization:         -0.173025 (  -0.01234%)
============ Calculation of NGWF S^-1 using Hotelling algorithm ================ 
         Iteration  |  Frobenius norm and Maximum abs value    (of I-S*S_n^-1)   
               1       0.21701525E+01     0.47051501E-01
               2       0.96613763E-01     0.28231341E-02
               3       0.26017225E-03     0.12290712E-04
               4       0.31230953E-08     0.29760094E-09
               5       0.11486511E-12     0.67723605E-14
================================================================================
------------------------------- NGWF line search -------------------------------
RMS gradient                =       0.00162355953574
Trial step length           =               0.122474
Gradient along search dir.  =       -290.98069988853
Functional at step 0        =  -11495.13489677594043
Functional at step 1        =  -11528.02298433438409
Functional predicted        =  -11610.60944147872760
Selected quadratic step     =               0.793692
--------------------------- NGWF line search finished --------------------------
                                               
Writing NGWFs to file "host_18721.vacuum_tightbox_ngwfs"....  done

>>> Optimising kernel for current NGWFs:
   Initial electron number for spin 1:    7237.85419524
     Final electron number for spin 1:    7192.00000000

=================== Penalty functional idempotency correction ==================
 RMS occupancy error at iteration   1:  0.005221 (step -0.4829 Ne1=   7192.0000)
 RMS occupancy error at iteration   2:  0.000095 (step -0.5003 Ne1=   7192.0000)
            Final RMS occupancy error   :  0.000000 (Ne1=   7192.0000)
               Final occupancy bounds   : [  0.0000,  1.0000]
================================================================================

................................................................................
<<<<<<<<<<<<<< LNV (Original version) density kernel optimisation >>>>>>>>>>>>>>
~~~~~~~~~~~~~~~~~~~~~~~~~~~~~~~~~~~~~~~~~~~~~~~~~~~~~~~~~~~~~~~~~~~~~~~~~~~~~~~~
   iter  |      energy (Eh)       | rms gradient |  commutator  |   dE (Eh)
MG BCs: +ve charge blocks (gridpoints):     24898 (   17000228).
MG BCs: -ve charge blocks (gridpoints):      8488 (    1072757).
MG BCs:     Elided blocks (gridpoints):    175742 (  178223480).
MG BCs: Computational effort saved:  99.9830%.
MG BCs: Charge after coarse-graining:           -9.0007233.
MG DL_MG: Calling solver with defect correction order = 8
MG DL_MG: Solver finished
MG Hartree energy from (\int phi*rho dr):              1271.709068
MG Hartree energy from (\int eps (grad phi)^2 dr):     1271.063336
MG Discrepancy due to finite box and discretization:     -0.645732 (  -0.05078%)
MG Correction to account for finite box:                  0.475144
MG Remaining discrepancy, due to discretization:         -0.170588 (  -0.01341%)
      ideal mu1:      -0.749179211154
             Q0:  -11609.966081447550
             G0:      -9.903373776361
   RMS gradient:       0.000483775961
MG BCs: +ve charge blocks (gridpoints):     24977 (   17013775).
MG BCs: -ve charge blocks (gridpoints):      8477 (    1069043).
MG BCs:     Elided blocks (gridpoints):    175663 (  178213647).
MG BCs: Computational effort saved:  99.9830%.
MG BCs: Charge after coarse-graining:           -9.0007195.
MG DL_MG: Calling solver with defect correction order = 8
MG DL_MG: Solver finished
MG Hartree energy from (\int phi*rho dr):              1286.413922
MG Hartree energy from (\int eps (grad phi)^2 dr):     1285.764057
MG Discrepancy due to finite box and discretization:     -0.649866 (  -0.05052%)
MG Correction to account for finite box:                  0.473881
MG Remaining discrepancy, due to discretization:         -0.175985 (  -0.01368%)
     Trial step:       0.751988311877
             Q1:  -11609.060602424783
 Quadratic coef:       8.352700350739
 Linear coef   :      -7.447221327971
           Qmin:  -11611.626056760291
Quadratic minimum step length (  0.335234305041) accepted
    Initial Ne1:    7191.99902770
      Final Ne1:    7192.00000000

=================== Penalty functional idempotency correction ==================
 RMS occupancy error at iteration   1:  0.000373 (step -0.4985 Ne1=   7192.0000)
 RMS occupancy error at iteration   2:  0.000000 (step -0.5000 Ne1=   7192.0000)
            Final RMS occupancy error   :  0.000000 (Ne1=   7192.0000)
               Final occupancy bounds   : [  0.0000,  1.0000]
================================================================================

    1        -1.160996608145E+04     4.8378E-04     4.3756E-04
MG BCs: +ve charge blocks (gridpoints):     24937 (   17006230).
MG BCs: -ve charge blocks (gridpoints):      8481 (    1071065).
MG BCs:     Elided blocks (gridpoints):    175703 (  178219170).
MG BCs: Computational effort saved:  99.9830%.
MG BCs: Charge after coarse-graining:           -9.0007217.
MG DL_MG: Calling solver with defect correction order = 8
MG DL_MG: Solver finished
MG Hartree energy from (\int phi*rho dr):              1277.233694
MG Hartree energy from (\int eps (grad phi)^2 dr):     1276.586234
MG Discrepancy due to finite box and discretization:     -0.647460 (  -0.05069%)
MG Correction to account for finite box:                  0.474543
MG Remaining discrepancy, due to discretization:         -0.172917 (  -0.01354%)
      ideal mu1:      -0.755482525136
             Q0:  -11611.603149181232
             G0:      -0.898537239283
   RMS gradient:       0.000146270398
MG BCs: +ve charge blocks (gridpoints):     24938 (   17005540).
MG BCs: -ve charge blocks (gridpoints):      8485 (    1071878).
MG BCs:     Elided blocks (gridpoints):    175702 (  178219047).
MG BCs: Computational effort saved:  99.9830%.
MG BCs: Charge after coarse-graining:           -9.0007217.
MG DL_MG: Calling solver with defect correction order = 8
MG DL_MG: Solver finished
MG Hartree energy from (\int phi*rho dr):              1277.743793
MG Hartree energy from (\int eps (grad phi)^2 dr):     1277.096221
MG Discrepancy due to finite box and discretization:     -0.647572 (  -0.05068%)
MG Correction to account for finite box:                  0.474369
MG Remaining discrepancy, due to discretization:         -0.173203 (  -0.01356%)
     Trial step:       0.502087919722
             Q1:  -11611.805683274171
 Quadratic coef:       0.248610600325
 Linear coef   :      -0.451144693265
           Qmin:  -11611.807818183674
Quadratic minimum step length (  0.455560423085) accepted
    Initial Ne1:    7191.99987920
      Final Ne1:    7192.00000000

=================== Penalty functional idempotency correction ==================
 RMS occupancy error at iteration   1:  0.000151 (step -0.4988 Ne1=   7192.0000)
 RMS occupancy error at iteration   2:  0.000000 (step -0.5000 Ne1=   7192.0000)
            Final RMS occupancy error   :  0.000000 (Ne1=   7192.0000)
               Final occupancy bounds   : [  0.0000,  1.0000]
================================================================================

    2        -1.161160314918E+04     1.4627E-04     1.3230E-04    -1.6371E+00
MG BCs: +ve charge blocks (gridpoints):     24937 (   17005615).
MG BCs: -ve charge blocks (gridpoints):      8484 (    1071786).
MG BCs:     Elided blocks (gridpoints):    175703 (  178219064).
MG BCs: Computational effort saved:  99.9830%.
MG BCs: Charge after coarse-graining:           -9.0007217.
MG DL_MG: Calling solver with defect correction order = 8
MG DL_MG: Solver finished
MG Hartree energy from (\int phi*rho dr):              1277.696941
MG Hartree energy from (\int eps (grad phi)^2 dr):     1277.049381
MG Discrepancy due to finite box and discretization:     -0.647560 (  -0.05068%)
MG Correction to account for finite box:                  0.474385
MG Remaining discrepancy, due to discretization:         -0.173176 (  -0.01355%)
      ideal mu1:      -0.756234370130
             Q0:  -11611.808241528575
             G0:      -0.195320959133
   RMS gradient:       0.000067870576
MG BCs: +ve charge blocks (gridpoints):     24937 (   17004867).
MG BCs: -ve charge blocks (gridpoints):      8487 (    1072118).
MG BCs:     Elided blocks (gridpoints):    175703 (  178219480).
MG BCs: Computational effort saved:  99.9830%.
MG BCs: Charge after coarse-graining:           -9.0007217.
MG DL_MG: Calling solver with defect correction order = 8
MG DL_MG: Solver finished
MG Hartree energy from (\int phi*rho dr):              1277.045178
MG Hartree energy from (\int eps (grad phi)^2 dr):     1276.397760
MG Discrepancy due to finite box and discretization:     -0.647417 (  -0.05070%)
MG Correction to account for finite box:                  0.474304
MG Remaining discrepancy, due to discretization:         -0.173113 (  -0.01356%)
     Trial step:       0.478258701055
             Q1:  -11611.869816152961
 Quadratic coef:       0.031839323818
 Linear coef   :      -0.093413948204
           Qmin:  -11611.876758732089
Quadratic minimum step length (  0.701585777766) accepted
    Initial Ne1:    7191.99995991
      Final Ne1:    7192.00000000

=================== Penalty functional idempotency correction ==================
 RMS occupancy error at iteration   1:  0.000207 (step -0.4885 Ne1=   7192.0000)
 RMS occupancy error at iteration   2:  0.000002 (step -0.5000 Ne1=   7192.0000)
            Final RMS occupancy error   :  0.000000 (Ne1=   7192.0000)
               Final occupancy bounds   : [  0.0000,  1.0000]
================================================================================

    3        -1.161180824153E+04     6.7871E-05     6.1387E-05    -2.0509E-01
MG BCs: +ve charge blocks (gridpoints):     24933 (   17004499).
MG BCs: -ve charge blocks (gridpoints):      8487 (    1072301).
MG BCs:     Elided blocks (gridpoints):    175707 (  178219665).
MG BCs: Computational effort saved:  99.9830%.
MG BCs: Charge after coarse-graining:           -9.0007217.
MG DL_MG: Calling solver with defect correction order = 8
MG DL_MG: Solver finished
MG Hartree energy from (\int phi*rho dr):              1276.740436
MG Hartree energy from (\int eps (grad phi)^2 dr):     1276.093085
MG Discrepancy due to finite box and discretization:     -0.647351 (  -0.05070%)
MG Correction to account for finite box:                  0.474266
MG Remaining discrepancy, due to discretization:         -0.173085 (  -0.01356%)
      ideal mu1:      -0.755407670658
             Q0:  -11611.876807026798
             G0:      -0.072491275670
   RMS gradient:       0.000041349432
MG BCs: +ve charge blocks (gridpoints):     24934 (   17004435).
MG BCs: -ve charge blocks (gridpoints):      8485 (    1072277).
MG BCs:     Elided blocks (gridpoints):    175706 (  178219753).
MG BCs: Computational effort saved:  99.9830%.
MG BCs: Charge after coarse-graining:           -9.0007217.
MG DL_MG: Calling solver with defect correction order = 8
MG DL_MG: Solver finished
MG Hartree energy from (\int phi*rho dr):              1276.775964
MG Hartree energy from (\int eps (grad phi)^2 dr):     1276.128739
MG Discrepancy due to finite box and discretization:     -0.647225 (  -0.05069%)
MG Correction to account for finite box:                  0.474241
MG Remaining discrepancy, due to discretization:         -0.172984 (  -0.01355%)
     Trial step:       0.579257717042
             Q1:  -11611.905057888711
 Quadratic coef:       0.013740268938
 Linear coef   :      -0.041991130850
           Qmin:  -11611.908888914679
Quadratic minimum step length (  0.885124108638) accepted
    Initial Ne1:    7191.99998014
      Final Ne1:    7192.00000000

=================== Penalty functional idempotency correction ==================
 RMS occupancy error at iteration   1:  0.000444 (step -0.4702 Ne1=   7192.0000)
 RMS occupancy error at iteration   2:  0.000007 (step -0.4998 Ne1=   7192.0000)
            Final RMS occupancy error   :  0.000000 (Ne1=   7192.0000)
               Final occupancy bounds   : [ -0.0000,  1.0000]
================================================================================

    4        -1.161187680703E+04     4.1349E-05     3.7400E-05    -6.8565E-02
MG BCs: +ve charge blocks (gridpoints):     24934 (   17004344).
MG BCs: -ve charge blocks (gridpoints):      8484 (    1072322).
MG BCs:     Elided blocks (gridpoints):    175706 (  178219799).
MG BCs: Computational effort saved:  99.9830%.
MG BCs: Charge after coarse-graining:           -9.0007218.
MG DL_MG: Calling solver with defect correction order = 8
MG DL_MG: Solver finished
MG Hartree energy from (\int phi*rho dr):              1276.796386
MG Hartree energy from (\int eps (grad phi)^2 dr):     1276.149230
MG Discrepancy due to finite box and discretization:     -0.647156 (  -0.05069%)
MG Correction to account for finite box:                  0.474225
MG Remaining discrepancy, due to discretization:         -0.172931 (  -0.01354%)
      ideal mu1:      -0.756044320944
             Q0:  -11611.908679103246
             G0:      -0.078133685650
   RMS gradient:       0.000043012406
MG BCs: +ve charge blocks (gridpoints):     24932 (   17005550).
MG BCs: -ve charge blocks (gridpoints):      8485 (    1071982).
MG BCs:     Elided blocks (gridpoints):    175708 (  178218933).
MG BCs: Computational effort saved:  99.9830%.
MG BCs: Charge after coarse-graining:           -9.0007216.
MG DL_MG: Calling solver with defect correction order = 8
MG DL_MG: Solver finished
MG Hartree energy from (\int phi*rho dr):              1277.623221
MG Hartree energy from (\int eps (grad phi)^2 dr):     1276.976229
MG Discrepancy due to finite box and discretization:     -0.646992 (  -0.05064%)
MG Correction to account for finite box:                  0.474106
MG Remaining discrepancy, due to discretization:         -0.172886 (  -0.01353%)
     Trial step:       0.716041179311
             Q1:  -11611.940602283576
 Quadratic coef:       0.024023756087
 Linear coef   :      -0.055946936417
           Qmin:  -11611.941251650220
Quadratic minimum step length (  0.833764507648) accepted
    Initial Ne1:    7192.00003135
      Final Ne1:    7192.00000000

=================== Penalty functional idempotency correction ==================
 RMS occupancy error at iteration   1:  0.001386 (step -0.4186 Ne1=   7192.0000)
 RMS occupancy error at iteration   2:  0.000051 (step -0.4972 Ne1=   7192.0000)
 RMS occupancy error at iteration   3:  0.000000 (step -0.5000 Ne1=   7192.0000)
            Final RMS occupancy error   :  0.000000 (Ne1=   7192.0000)
               Final occupancy bounds   : [  0.0000,  1.0000]
================================================================================

    5        -1.161190867910E+04     4.3012E-05     3.8904E-05    -3.1872E-02
MG BCs: +ve charge blocks (gridpoints):     24932 (   17005783).
MG BCs: -ve charge blocks (gridpoints):      8485 (    1071908).
MG BCs:     Elided blocks (gridpoints):    175708 (  178218774).
MG BCs: Computational effort saved:  99.9830%.
MG BCs: Charge after coarse-graining:           -9.0007215.
MG DL_MG: Calling solver with defect correction order = 8
MG DL_MG: Solver finished
MG Hartree energy from (\int phi*rho dr):              1277.761008
MG Hartree energy from (\int eps (grad phi)^2 dr):     1277.114041
MG Discrepancy due to finite box and discretization:     -0.646966 (  -0.05063%)
MG Correction to account for finite box:                  0.474088
MG Remaining discrepancy, due to discretization:         -0.172878 (  -0.01353%)
      ideal mu1:      -0.757452691134
             Q0:  -11611.941392566659
             G0:      -0.074515671089
   RMS gradient:       0.000041138326
MG BCs: +ve charge blocks (gridpoints):     24932 (   17005697).
MG BCs: -ve charge blocks (gridpoints):      8487 (    1072055).
MG BCs:     Elided blocks (gridpoints):    175708 (  178218713).
MG BCs: Computational effort saved:  99.9830%.
MG BCs: Charge after coarse-graining:           -9.0007215.
MG DL_MG: Calling solver with defect correction order = 8
MG DL_MG: Solver finished
MG Hartree energy from (\int phi*rho dr):              1277.390171
MG Hartree energy from (\int eps (grad phi)^2 dr):     1276.743407
MG Discrepancy due to finite box and discretization:     -0.646764 (  -0.05063%)
MG Correction to account for finite box:                  0.473866
MG Remaining discrepancy, due to discretization:         -0.172898 (  -0.01354%)
     Trial step:       0.772664041692
             Q1:  -11611.975845172419
 Quadratic coef:       0.023122973833
 Linear coef   :      -0.057575579593
           Qmin:  -11611.977232975742
Quadratic minimum step length (  0.961956285389) accepted
    Initial Ne1:    7192.00003308
      Final Ne1:    7192.00000000

=================== Penalty functional idempotency correction ==================
 RMS occupancy error at iteration   1:  0.003158 (step -0.3529 Ne1=   7192.0000)
 RMS occupancy error at iteration   2:  0.000191 (step -0.4901 Ne1=   7192.0000)
 RMS occupancy error at iteration   3:  0.000003 (step -0.5000 Ne1=   7192.0000)
            Final RMS occupancy error   :  0.000000 (Ne1=   7192.0000)
               Final occupancy bounds   : [  0.0000,  1.0000]
================================================================================

    6        -1.161194139257E+04     4.1138E-05     3.7209E-05    -3.2713E-02
MG BCs: +ve charge blocks (gridpoints):     24932 (   17005669).
MG BCs: -ve charge blocks (gridpoints):      8488 (    1072083).
MG BCs:     Elided blocks (gridpoints):    175708 (  178218713).
MG BCs: Computational effort saved:  99.9830%.
MG BCs: Charge after coarse-graining:           -9.0007215.
MG DL_MG: Calling solver with defect correction order = 8
MG DL_MG: Solver finished
MG Hartree energy from (\int phi*rho dr):              1277.300794
MG Hartree energy from (\int eps (grad phi)^2 dr):     1276.654054
MG Discrepancy due to finite box and discretization:     -0.646740 (  -0.05063%)
MG Correction to account for finite box:                  0.473836
MG Remaining discrepancy, due to discretization:         -0.172904 (  -0.01354%)
      ideal mu1:      -0.757565092092
             Q0:  -11611.978507256717
             G0:      -0.067089588733
   RMS gradient:       0.000039818075
MG BCs: +ve charge blocks (gridpoints):     24934 (   17004300).
MG BCs: -ve charge blocks (gridpoints):      8485 (    1072379).
MG BCs:     Elided blocks (gridpoints):    175706 (  178219786).
MG BCs: Computational effort saved:  99.9830%.
MG BCs: Charge after coarse-graining:           -9.0007218.
MG DL_MG: Calling solver with defect correction order = 8
MG DL_MG: Solver finished
MG Hartree energy from (\int phi*rho dr):              1276.750458
MG Hartree energy from (\int eps (grad phi)^2 dr):     1276.103733
MG Discrepancy due to finite box and discretization:     -0.646726 (  -0.05065%)
MG Correction to account for finite box:                  0.473805
MG Remaining discrepancy, due to discretization:         -0.172921 (  -0.01354%)
     Trial step:       0.862130518773
             Q1:  -11611.996481838869
 Quadratic coef:       0.039865399787
 Linear coef   :      -0.057839981938
           Qmin:  -11611.999487000608
Quadratic minimum step length (  0.625424727967) accepted
    Initial Ne1:    7191.99999845
      Final Ne1:    7192.00000000

=================== Penalty functional idempotency correction ==================
 RMS occupancy error at iteration   1:  0.000039 (step -0.4977 Ne1=   7192.0000)
            Final RMS occupancy error   :  0.000000 (Ne1=   7192.0000)
               Final occupancy bounds   : [ -0.0000,  1.0000]
================================================================================

    7        -1.161197850726E+04     3.9818E-05     3.6015E-05    -3.7115E-02
MG BCs: +ve charge blocks (gridpoints):     24933 (   17004649).
MG BCs: -ve charge blocks (gridpoints):      8485 (    1072302).
MG BCs:     Elided blocks (gridpoints):    175707 (  178219514).
MG BCs: Computational effort saved:  99.9830%.
MG BCs: Charge after coarse-graining:           -9.0007217.
MG DL_MG: Calling solver with defect correction order = 8
MG DL_MG: Solver finished
MG Hartree energy from (\int phi*rho dr):              1276.900210
MG Hartree energy from (\int eps (grad phi)^2 dr):     1276.253478
MG Discrepancy due to finite box and discretization:     -0.646731 (  -0.05065%)
MG Correction to account for finite box:                  0.473815
MG Remaining discrepancy, due to discretization:         -0.172916 (  -0.01354%)
      ideal mu1:      -0.757199170728
             Q0:  -11611.999504341627
             G0:      -0.049188890195
   RMS gradient:       0.000034087221
MG BCs: +ve charge blocks (gridpoints):     24934 (   17004949).
MG BCs: -ve charge blocks (gridpoints):      8485 (    1072122).
MG BCs:     Elided blocks (gridpoints):    175706 (  178219394).
MG BCs: Computational effort saved:  99.9830%.
MG BCs: Charge after coarse-graining:           -9.0007217.
MG DL_MG: Calling solver with defect correction order = 8
MG DL_MG: Solver finished
MG Hartree energy from (\int phi*rho dr):              1276.860516
MG Hartree energy from (\int eps (grad phi)^2 dr):     1276.213910
MG Discrepancy due to finite box and discretization:     -0.646606 (  -0.05064%)
MG Correction to account for finite box:                  0.473642
MG Remaining discrepancy, due to discretization:         -0.172964 (  -0.01355%)
     Trial step:       0.734300854674
             Q1:  -11612.022982445545
[...]
 RMS occupancy error at iteration   1:  0.000000 (step -0.5000 Ne1=   7192.0000)
            Final RMS occupancy error   :  0.000000 (Ne1=   7192.0000)
               Final occupancy bounds   : [ -0.0000,  1.0000]
================================================================================

    7        -1.164820503002E+04     5.2494E-09     4.7479E-09    -1.1642E-10

Reusing previously generated solute cavity.
MG BCs: +ve charge blocks (gridpoints):     29070 (   19109239).
MG BCs: -ve charge blocks (gridpoints):      8489 (    1049651).
MG BCs:     Elided blocks (gridpoints):    171570 (  176137575).
MG BCs: Computational effort saved:  99.9809%.
MG BCs: Charge after coarse-graining:           -9.0009774.
MG DL_MG: Calling solver with defect correction order = 8
MG DL_MG: Solver finished
MG Hartree energy from (\int phi*rho dr):              1228.657231
MG Hartree energy from (\int eps (grad phi)^2 dr):     1228.478395
MG Discrepancy due to finite box and discretization:     -0.178835 (  -0.01456%)
MG Correction to account for finite box:                  0.006401
MG Remaining discrepancy, due to discretization:         -0.172435 (  -0.01403%)
      ideal mu1:      -0.514183505773
             Q0:  -11648.205030024284
             G0:      -0.000000001807
   RMS gradient:       0.000000004738

Reusing previously generated solute cavity.
MG BCs: +ve charge blocks (gridpoints):     29070 (   19109239).
MG BCs: -ve charge blocks (gridpoints):      8489 (    1049651).
MG BCs:     Elided blocks (gridpoints):    171570 (  176137575).
MG BCs: Computational effort saved:  99.9809%.
MG BCs: Charge after coarse-graining:           -9.0009774.
MG DL_MG: Calling solver with defect correction order = 8
MG DL_MG: Solver finished
MG Hartree energy from (\int phi*rho dr):              1228.657218
MG Hartree energy from (\int eps (grad phi)^2 dr):     1228.478382
MG Discrepancy due to finite box and discretization:     -0.178835 (  -0.01456%)
MG Correction to account for finite box:                  0.006401
MG Remaining discrepancy, due to discretization:         -0.172435 (  -0.01403%)
     Trial step:       0.147737633788
             Q1:  -11648.205030024284
 Quadratic coef:       0.000000000267
 Linear coef   :      -0.000000000267
           Qmin:  -11648.205030024352
Quadratic minimum step length (  0.073734700560) accepted
    Initial Ne1:    7192.00000000
      Final Ne1:    7192.00000000

=================== Penalty functional idempotency correction ==================
 RMS occupancy error at iteration   1:  0.000000 (step -0.5000 Ne1=   7192.0000)
            Final RMS occupancy error   :  0.000000 (Ne1=   7192.0000)
               Final occupancy bounds   : [ -0.0000,  1.0000]
================================================================================

    8        -1.164820503002E+04     4.7384E-09     4.2858E-09     1.1642E-10

Reusing previously generated solute cavity.
MG BCs: +ve charge blocks (gridpoints):     29070 (   19109239).
MG BCs: -ve charge blocks (gridpoints):      8489 (    1049651).
MG BCs:     Elided blocks (gridpoints):    171570 (  176137575).
MG BCs: Computational effort saved:  99.9809%.
MG BCs: Charge after coarse-graining:           -9.0009774.
MG DL_MG: Calling solver with defect correction order = 8
MG DL_MG: Solver finished
MG Hartree energy from (\int phi*rho dr):              1228.657224
MG Hartree energy from (\int eps (grad phi)^2 dr):     1228.478389
MG Discrepancy due to finite box and discretization:     -0.178835 (  -0.01456%)
MG Correction to account for finite box:                  0.006401
MG Remaining discrepancy, due to discretization:         -0.172435 (  -0.01403%)
      ideal mu1:      -0.514183498369
             Q0:  -11648.205030024284
             G0:      -0.000000001797
   RMS gradient:       0.000000004034

Reusing previously generated solute cavity.
MG BCs: +ve charge blocks (gridpoints):     29070 (   19109239).
MG BCs: -ve charge blocks (gridpoints):      8489 (    1049651).
MG BCs:     Elided blocks (gridpoints):    171570 (  176137575).
MG BCs: Computational effort saved:  99.9809%.
MG BCs: Charge after coarse-graining:           -9.0009774.
MG DL_MG: Calling solver with defect correction order = 8
MG DL_MG: Solver finished
MG Hartree energy from (\int phi*rho dr):              1228.657213
MG Hartree energy from (\int eps (grad phi)^2 dr):     1228.478378
MG Discrepancy due to finite box and discretization:     -0.178835 (  -0.01456%)
MG Correction to account for finite box:                  0.006401
MG Remaining discrepancy, due to discretization:         -0.172435 (  -0.01403%)
     Trial step:       0.104371405034
             Q1:  -11648.205030024284
 Quadratic coef:       0.000000000187
 Linear coef   :      -0.000000000188
           Qmin:  -11648.205030024332
Quadratic minimum step length (  0.052248439840) accepted
    Initial Ne1:    7192.00000000
      Final Ne1:    7192.00000000

=================== Penalty functional idempotency correction ==================
 RMS occupancy error at iteration   1:  0.000000 (step -0.5000 Ne1=   7192.0000)
            Final RMS occupancy error   :  0.000000 (Ne1=   7192.0000)
               Final occupancy bounds   : [  0.0000,  1.0000]
================================================================================

    9        -1.164820503002E+04     4.0337E-09     3.6484E-09     0.0000E+00

Reusing previously generated solute cavity.
MG BCs: +ve charge blocks (gridpoints):     29070 (   19109239).
MG BCs: -ve charge blocks (gridpoints):      8489 (    1049651).
MG BCs:     Elided blocks (gridpoints):    171570 (  176137575).
MG BCs: Computational effort saved:  99.9809%.
MG BCs: Charge after coarse-graining:           -9.0009774.
MG DL_MG: Calling solver with defect correction order = 8
MG DL_MG: Solver finished
MG Hartree energy from (\int phi*rho dr):              1228.657219
MG Hartree energy from (\int eps (grad phi)^2 dr):     1228.478384
MG Discrepancy due to finite box and discretization:     -0.178835 (  -0.01456%)
MG Correction to account for finite box:                  0.006401
MG Remaining discrepancy, due to discretization:         -0.172435 (  -0.01403%)
      ideal mu1:      -0.514183492118
   10        -1.164820503002E+04     3.4757E-09     3.1437E-09     0.0000E+00
Finished density kernel iterations (  10)

Writing density kernel to file "host_18721.dkn" ... done


>>> Density kernel optimised for the current NGWF basis:
     ~~~~~~~~~~~~~~~~~~~~~~~~~~~~~~~~~~~~~~~~~~~~~~~~~~~~~~~~~~~
     Total energy                =  -1.16482050300243E+04  Eh
     Estimated bandgap           =   1.1705E-01  Eh
     RMS occupancy error         =   4.0528E-16
     [H,K] commutator            =   3.1437E-09
     Occupancy bounds            = [ -0.000:  1.000]
     ~~~~~~~~~~~~~~~~~~~~~~~~~~~~~~~~~~~~~~~~~~~~~~~~~~~~~~~~~~~




################################################################################
########################### NGWF CG iteration  005 #############################
################################################################################
****** Reciprocal space K.E. preconditioning with k_zero =  3.5000 a0^-1 *******

>>> Checking for convergence of NGWFs: 
           ........................................................
           |         *** NGWF optimisation converged ***          |
           | RMS NGWF gradient =    0.00000112274878              |
           | Criteria satisfied:                                  |
           | -> RMS NGWF gradient lower than set threshold.       |
           ========================================================

Reusing previously generated solute cavity.
MG BCs: +ve charge blocks (gridpoints):     29070 (   19109239).
MG BCs: -ve charge blocks (gridpoints):      8489 (    1049651).
MG BCs:     Elided blocks (gridpoints):    171570 (  176137575).
MG BCs: Computational effort saved:  99.9809%.
MG BCs: Charge after coarse-graining:           -9.0009774.
MG DL_MG: Calling solver with defect correction order = 8
MG DL_MG: Solver finished
MG Hartree energy from (\int phi*rho dr):              1228.657219
MG Hartree energy from (\int eps (grad phi)^2 dr):     1228.478384
MG Discrepancy due to finite box and discretization:     -0.178835 (  -0.01456%)
MG Correction to account for finite box:                  0.006401
MG Remaining discrepancy, due to discretization:         -0.172435 (  -0.01403%)

================================================================================
           ---------------- ENERGY COMPONENTS (Eh) ----------------
           | Kinetic                    :     8411.65441787151394 |
           | Pseudo. (local,OBC,corr'd) :    -4991.59834896525444 |
           | Pseudopotential (non-local):     1446.19801887161452 |
           | Hartree (molecular)        :     1228.65721883404467 |
           | Exchange-correlation       :    -3334.64484475960217 |
           | Ion-ion (open BC)          :   828039.19906832033303 |
           | Smeared ion non-self corr. :  -827991.13365558371879 |
           | Smeared ion self corr.     :   -14457.16956389741972 |
           | Solvent cavitation energy  :        2.25085576536604 |
           | Solute-solvent dis-rep en. :       -1.61819648111578 |
           | Total                      :   -11648.20503002420082 |
           --------------------------------------------------------
           ------ LOCAL ENERGY COMPONENTS FROM MATRIX TRACES ------
           | Pseudopotential (local)    :    -4991.59834896528810 |
           | Hartree                    :    -1985.56589499723418 |
           --------------------------------------------------------
           Integrated density           :     7191.99999999802912
           Integrated density tr(KS)    :     7192.00000000000000
================================================================================


                        <<<<< CALCULATION SUMMARY >>>>>                         
|ITER|    RMS GRADIENT   |     TOTAL ENERGY    |   step   |     Epredicted              
   0     0.00004015770032 -11648.14722268760670   0.563805 -11648.19740653800545        
   1     0.00001231162705 -11648.20390889444388   0.112691 -11648.20485169018684        
   2     0.00000551850022 -11648.20498835842591   0.020937 -11648.20502355201643        
   3     0.00000249958258 -11648.20502827165183   0.004374 -11648.20502977991237        
   4     0.00000112274878 -11648.20503002428450  <-- CG                                 

=================== Finished the calculation in solvent ========================
= Adjusting the following parameters: 
= read_denskern: F
= read_tightbox_ngwfs: F
= maxit_pen: 0 (restored to user-specified value)
= restart read filename prefix: ""
= restart write filename prefix: ""
================================================================================

================================================================================
IS: Calculation in solvent completed (NGWFs converged).      

Individual components of total energy in solvent:     hartree           kcal/mol
- Usual non-electrostatic DFT terms:    -12877.49490814257842    -8080749.881746
- Electrostatic fixed charge energy:      1228.65721883404467      770994.028468
- Apolar cavitation energy:                  2.25085576536604        1412.433287
- Apolar dispersion-repulsion energy:       -1.61819648111578       -1015.433601
 -------------------------------------------------------------------------------
- Total energy in solvent:              -11648.20503002428450    -7309358.853592

Components of total energy in solvent:                hartree           kcal/mol
- Usual non-electrostatic DFT terms:    -12877.49490814257842    -8080749.881746
- Electrostatic energy:                   1228.65721883404467      770994.028468
- Apolar energy terms:                       0.63265928425026         396.999686
 -------------------------------------------------------------------------------
- Total energy in solvent:              -11648.20503002428450    -7309358.853592

Calculation of free energy of solvation:              hartree           kcal/mol
- Total energy in solvent:         (+)  -11648.20503002428450    -7309358.853592
- Total energy in vacuum:          (-)  -11644.21420780266635    -7306854.574893
 -------------------------------------------------------------------------------
- Total free energy of solvation:           -3.99082222161815       -2504.278699

Components of polar term in f.e. of solvation:        hartree           kcal/mol
- Electrostatic:                            -4.84442012595900       -3039.919459
- Change in nonelectrostatic DFT terms:      0.22093862009206         138.641074
 -------------------------------------------------------------------------------
- Polar term in f.e. of solvation:          -4.62348150586695       -2901.278385

Components of free energy of solvation:               hartree           kcal/mol
- Polar term in f.e. of solvation: (+)      -4.62348150586695       -2901.278385
- Apolar (cavitation, dis., rep.): (+)       0.63265928425026         396.999686
 -------------------------------------------------------------------------------
- Total free energy of solvation:           -3.99082222161669       -2504.278699
================================================================================


------------------------------ TIMING INFORMATION ------------------------------
AVERAGE TIME:   80126.901s on     40 node(s)                                    
TOTAL TIME:     80126.902s on     40 node(s)                                    
================= AVERAGE TIMINGS FROM ALL NODES (CUMULATIVE) ==================
|| TAG                                    #calls    cpu time   %total  Gflops ||
|| work_imbalance                       :     1        0.00s   0.000%  ------ ||
|| parallel_prepare_fd_halos_request    :  2307        0.02s   0.000%  ------ ||
|| sparse_set_to_garbage                :   246        0.06s   0.000%  ------ ||
|| parallel_prepare_fd_halos_satisfy    :  2307        0.07s   0.000%  ------ ||
|| parallel_prepare_fd_halos_alloc      :  2307        0.07s   0.000%  ------ ||
|| ngwfs_initialise_from_radial         :     1        0.18s   0.000%  ------ ||
|| basis_extract_function_from_box      :  6342        0.22s   0.000%  ------ ||
|| restart_ngwfs_tightbox_input         :     1        0.89s   0.001%  ------ ||
|| pseudopotentials_nonlocal_mat        :    36        1.29s   0.002%  ------ ||
|| parallel_prepare_fd_halos_comms_imbal:  2307        3.08s   0.004%  ------ ||
|| density_init_guess_real              :     1        3.40s   0.004%  ------ ||
|| openbc_locps_radial                  :     1        4.36s   0.005%  ------ ||
|| restart_kernel_read                  :     1        9.05s   0.011%  ------ ||
|| parallel_prepare_fd_halos_clear      :  2307       16.44s   0.021%  ------ ||
|| restart_kernel_write                 :    20       17.22s   0.021%  ------ ||
|| sparse_init                          :     2       22.38s   0.028%  ------ ||
|| projectors_func_ovlp_box             :    36       28.80s   0.036%  ------ ||
|| parallel_prepare_fd_halos_comms_wait :  2307       29.20s   0.036%  ------ ||
|| function_ops_brappd_ketppd           :    36       31.13s   0.039%  ------ ||
|| projectors_init_fftbox_recip         :   245       33.19s   0.041%  ------ ||
|| palser_mano_kernel_optimise          :     1       38.84s   0.048%  ------ ||
|| parallel_prepare_fd_halos            :  2307       48.90s   0.061%  ------ ||
|| pseudo_make_structure_factor         :     2       55.32s   0.069%  ------ ||
|| ngwf_gradient_coeffs                 :    19       76.23s   0.095%  ------ ||
|| restart_ngwfs_tightbox_output        :    17       90.07s   0.112%  ------ ||
|| sparse_embed_hotelling_invert_embed  :    36      109.14s   0.136%  ------ ||
|| finite_difference_derivative         :  2307      126.38s   0.158%  ------ ||
|| basis_copy_function_to_box           : 196.5k     138.38s   0.173%  ------ ||
|| openbc_locps_on_grid                 :     2      193.15s   0.241%  ------ ||
|| integrals_kinetic                    :    36      213.40s   0.266%  ------ ||
|| projectors_gradient_batch            :   209      265.58s   0.331%  ------ ||
|| sparse_trace                         :  6199      317.46s   0.396%  ------ ||
|| fourier_apply_box_pair               : 55525      383.92s   0.479% 594.551 ||
|| kernel_purify                        :   588      420.97s   0.525%  ------ ||
|| basis_dot_function_with_box          : 22.57M     427.92s   0.534%  ------ ||
|| lnv_gradient_norm                    :   190      684.49s   0.854%  ------ ||
|| hamiltonian_energy_components        :     4      742.77s   0.927%  ------ ||
|| kernel_fix                           :   190      749.50s   0.935%  ------ ||
|| integrals_locpot_mat_els_batch       :  2189     1040.45s   1.299%  ------ ||
|| basis_add_function_to_box            : 60.50M    1142.80s   1.426%  ------ ||
|| ke_density_batch_grad_apply          :  4213     1274.01s   1.590%  ------ ||
|| ke_density_batch_row_sums            :  4213     1485.97s   1.855%  ------ ||
|| density_batch_row_sums               :  4213     1491.16s   1.861%  ------ ||
|| fourier_apply_cell_backward          : 10348     1682.22s   2.099%  84.968 ||
|| density_fftbox_deposit_to_cell       : 62429     1879.97s   2.346%  ------ ||
|| fourier_apply_cell_forward           : 10346     2007.10s   2.505%  71.201 ||
|| ke_density_fftbox_deposit_to_cell    : 62429     2039.64s   2.546%  ------ ||
|| cell_grid_deposit_box_real           : 127.2k    2300.61s   2.871%  ------ ||
|| sparse_product                       :  7843     2585.93s   3.227%  ------ ||
|| cell_grid_extract_box_real           : 156.9k    2590.18s   3.233%  ------ ||
|| multigrid_prepare_bound_cond         :   384     2970.94s   3.708%  ------ ||
|| ngwf_gradient_build_batch            :   209     3008.57s   3.755%  ------ ||
|| ngwf_gradient_batch                  :   209     3370.70s   4.207%  ------ ||
|| ngwf_gradient_lnv                    :    19     3581.44s   4.470%  ------ ||
|| potential_apply_to_ngwf_batch        :  2189     4041.26s   5.044%  ------ ||
|| density_fftbox_interpolate_multiply  : 62429     4604.78s   5.747%  ------ ||
|| xc_energy_potential                  :   384     4990.34s   6.228%  ------ ||
|| integrals_locpot_dbl_grid            :   199     5101.71s   6.367%  ------ ||
|| density_batch_interp_deposit         :  4213     7296.32s   9.106%  ------ ||
|| dl_mg_solver_calls                   :   384     8340.52s  10.409%  ------ ||
|| nlxc_vdw_energy                      :   766     8353.80s  10.426%  ------ ||
|| density_on_dbl_grid                  :   383     9260.03s  11.557%  ------ ||
|| potential_apply_to_fftbox_batch      :  6270    10974.25s  13.696%  ------ ||
|| multigrid_calculate_hartree          :   384    11496.08s  14.347%  ------ ||
|| integrals_div_locpot_grad_functions  :   190    16326.05s  20.375%  ------ ||
|| ke_density_fftbox_interpolate_multipl: 62429    18368.09s  22.924%  ------ ||
|| ke_density_batch_interp_deposit      :  4213    21294.70s  26.576%  ------ ||
|| fourier_apply_box                    : 1.418M   24014.54s  29.971% 803.536 ||
|| ke_density_on_dbl_grid               :   383    24587.11s  30.685%  ------ ||
|| hamiltonian_lhxc_calculate           :   379    50349.24s  62.837%  ------ ||
|| lnv_denskernel_optimise_cg           :    19    72086.95s  89.966%  ------ ||
|| ngwf_cg_optimise                     :     2    79327.53s  99.002%  ------ ||
|| total_time                           :     1    80126.90s 100.000%  ------ ||
================================================================================
Overhead of generating timer report: 
- 0 ms averaging over threads,
- 7 ms ensuring consistency across MPI ranks,
- 2 ms printing in order.

Job completed: 15-02-2020 10:33 (-0000)

