 +---------------------------------------------------------------+
 |                                                               |
 |        ####### #     # ####### ####### ####### ######         |
 |        #     # ##    # #          #    #       #     #        |
 |        #     # # #   # #          #    #       #     #        |
 |        #     # #  #  # #####      #    #####   ######         |
 |        #     # #   # # #          #    #       #              |
 |        #     # #    ## #          #    #       #              |
 |        ####### #     # #######    #    ####### #              |
 |                                                               |
 |        Linear-Scaling Ab Initio Total Energy Program          |
 |                                                               |
 |          Release for academic collaborators of ODG            |
 |                                             Version 5.3.2.6.  |
 |                                                               |
 +---------------------------------------------------------------+
 |                                                               |
 |  Authors:                                                     |
 |  Jacek Dziedzic, Peter D. Haynes, Nicholas D. M. Hine,        |
 |  Arash. A. Mostofi, Mike C. Payne and Chris-Kriton Skylaris   |
 |                                                               |
 |  Contributors:                                                |
 |  J. Aarons, L. Andrinopoulos, P. W. Avraam, R. A. Bell,       |
 |  A. Bhandari, G. A. Bramley, R. J. Charlton, S. J. Clark,     |
 |  R. J. Clements, G. C. Constantinescu, F. Corsetti,           |
 |  N. Corsini, O. Dieguez, S. M. M. Dubois, K. K. B. Duff,      |
 |  J. M. Escartin, A. Greco, H. Helal, Q. O. Hill, L. P. Lee,   |
 |  J.-H. Li, E. B. Linscott, G. Moynihan, D. D. O`Regan,        |
 |  O. K. Okan, M. J. S. Phipps, C. J. Pickard,                  |
 |  J. C. A. Prentice, M. I. J. Probert, L. E. Ratcliff,         |
 |  M. Robinson, A. Ruiz Serrano, J. S. Spencer, E. W. Tait,     |
 |  G. Teobaldi, D. Turban, V. Vitale, K. A. Wilkinson,          |
 |  C. Weber, J. C. Womack, N. Yeung and T. J. Zuehlsdorff       |
 |                                                               |
 |                                   Copyright (c) 2004-2019     |
 |                                                               |
 |  Please cite:                                                 |
 |  "Introducing ONETEP: Linear-scaling density functional       |
 |   simulations on parallel computers".                         |
 |   C.-K. Skylaris, P. D. Haynes, A. A. Mostofi, M. C. Payne.   |
 |   J. Chem. Phys. 122 084119 (2005).                           |
 |                                                               |
 |          in all publications arising from your use of ONETEP. |
 |                                                               |
 +---------------------------------------------------------------+
 |                                                               |
 |   ONETEP is based on developments described in the following  |
 |   publications:                                               |
 |                                                               |
 |  "Nonorthogonal generalized Wannier function pseudopotential  |
 |   plane-wave method".                                         |
 |   C.-K. Skylaris, A. A. Mostofi, P. D. Haynes, O. Dieguez,    |
 |   M. C. Payne.                                                |
 |   Phys. Rev. B 66 035119 (2002).                              |
 |                                                               |
 |  "Preconditioned iterative minimization for linear-scaling    |
 |   electronic structure calculations".                         |
 |   A. A. Mostofi, P. D. Haynes, C.-K. Skylaris, M. C. Payne.   |
 |   J. Chem. Phys. 119(17), pp.8842-8848 (2003).                |
 |                                                               |
 |  "Total-energy calculations on a real space grid with         |
 |   localized functions and a plane-wave basis".                |
 |   A. A. Mostofi, C.-K. Skylaris, P. D. Haynes, M. C. Payne.   |
 |   Comput. Phys. Commun. 147, pp.788-802 (2002).               |
 |                                                               |
 |  "Accurate kinetic energy evaluation in electronic structure  |
 |   calculations with localized functions on real space grids"  |
 |   C.-K. Skylaris, A. A. Mostofi, P. D. Haynes, C. J. Pickard, |
 |   M. C. Payne.                                                |
 |   Comput. Phys. Commun. 140, pp.315-322 (2001).               |
 |                                                               |
 |  "Accurate ionic forces and geometry optimization in linear-  |
 |   scaling density-functional theory with local orbitals"      |
 |   N. D. M. Hine, M. Robinson, P. D. Haynes, C.-K. Skylaris,   |
 |   M. C. Payne, and A. A. Mostofi.                             |
 |   Phys. Rev. B 83 195102 (2011).                              |
 |                                                               |
 +---------------------------------------------------------------+

Job started: 08-04-2020 10:13 (+0100)
 
Reading parameters from file "host_30121.dat" ...... done

If your calculation crashes here, before "Checking processes and threads..."
is displayed, then your stack size is insufficient.
If so, use "ulimit -s unlimited" at runtime.
You can disable this check with "check_stack_size F".

Checking processes and threads...
   Determining the default number of threads...
      No default threads set at compilation time: defaulting to 1.
      OpenMP library call suggests 4 threads.
      Hybrid MPI-OpenMP compilation detected.
      Number of MPI processes > 1.
      OMP_NUM_THREADS environment variable present and
      its value matches the one obtained from the OpenMP library call.
      Using this value as default.
      Default threads: 4
      Default applies to threads_max and threads_num_fftboxes.
      Settings in the input file override this default.
   ... done

   Running with 40 MPI processes.
   There are 10 MPI processes running on the same node as the root process.
   Each MPI process is using: 
               1 threads for simulation cell FFTs.
               1 threads for parallel FFT box operations.
               4 threads for loops over batched FFT box operations.
               4 threads in other parallel regions.
... done

Basic input checks...... done

Reading geometry and species blocks from file "host_30121.dat" ...
  <species_atomic_set> block not found: NGWF initialisation set to SOLVE
IS: Dielectric excluded regions:
    - NONE.
    
  Number of PPD points along a3 set to 1.  This is 
  the default value, it may have been provided also in the input file.
... done
 Writing xyz coordinates to file "host_30121.xyz" ... done


--------------------------------------------------------------------------------
---------------------------------- INPUT FILE ----------------------------------
--------------------------------------------------------------------------------

cutoff_energy       : 800 eV                                                    
xc_functional B97M-V                                                            
task SINGLEPOINT                                                                
write_xyz true                                                                  
output_detail VERBOSE                                                           
ngwf_threshold_orig : 0.000002                                                  
kernel_cutoff       : 1000                                                      
k_zero              : 3.5                                                       
elec_cg_max 0                                                                   
occ_mix 1.0                                                                     
dispersion 0                                                                    
maxit_ngwf_cg 40                                                                
minit_lnv 10                                                                    
maxit_lnv 10                                                                    
write_denskern T                                                                
write_tightbox_ngwfs T                                                          
charge 9                                                                        
is_implicit_solvent T                                                           
is_auto_solvation T                                                             
is_include_apolar T                                                             
is_smeared_ion_rep T                                                            
is_solvent_surf_tension 4.7624E-5 Ha/bohr**2                                    
is_apolar_scaling_factor 0.281075                                               
is_solvation_beta 1.3                                                           
is_density_threshold 0.00035                                                    
is_bulk_permittivity 78.54                                                      
is_dielectric_model fix_initial                                                 
is_smeared_ion_width 0.8                                                        
mg_defco_fd_order 8                                                             
is_bc_coarseness 10                                                             
is_bc_surface_coarseness 1                                                      
fine_grid_scale 2.0                                                             
%block species                                                                  
N   N   7 4 8.0                                                                 
H   H   1 1 8.0                                                                 
C   C   6 4 8.0                                                                 
S   S  16 9 8.0                                                                 
O   O   8 4 8.0                                                                 
%endblock species                                                               
%block species_pot                                                              
N   N_00.recpot                                                                 
H   H_04.recpot                                                                 
C   C_01.recpot                                                                 
S   S_00.recpot                                                                 
O   O_02.recpot                                                                 
%endblock species_pot                                                           
%block lattice_cart                                                             
137.614   0.000   0.000                                                         
0.000 142.646   0.000                                                           
0.000   0.000   160.855                                                         
%endblock lattice_cart                                                          
%block positions_abs                                                            
     Hash =   000001036496923998672486
%endblock positions_abs                                                         

--------------------------------------------------------------------------------
-------------------------------- END INPUT FILE --------------------------------
--------------------------------------------------------------------------------


 
 ESDF WARNING(1): "kernelcutoff" (esdf_physical) has no units. Assume "bohr".
 ESDF WARNING(2): "kzero" (esdf_physical) has no units. Assume "1/bohr".
 ESDF WARNING(3
 ): "issmearedionwidth" (esdf_physical) has no units. Assume "bohr".
<<<<<<<<<<<<<<<<<<<<<<<<<<<<<<<<< Full system >>>>>>>>>>>>>>>>>>>>>>>>>>>>>>>>>>
<<<<<<<<<<<<<<<<<<<<<<<<< Pseudopotential information >>>>>>>>>>>>>>>>>>>>>>>>>>
File: N_00.recpot [ 2001 points up to Gmax=  52.9 (1/bohr)]
  Atomic number:  7;  ionic charge:  5.000000
    Shell 1: l = 0; rc = 1.48 bohr
File: H_04.recpot [ 2001 points up to Gmax=  52.9 (1/bohr)]
  Atomic number:  1;  ionic charge:  1.000000
    Local potential
File: C_01.recpot [ 2001 points up to Gmax=  52.9 (1/bohr)]
  Atomic number:  6;  ionic charge:  4.000000
    Shell 1: l = 0; rc = 1.48 bohr
File: S_00.recpot [ 2001 points up to Gmax=  52.9 (1/bohr)]
  Atomic number: 16;  ionic charge:  6.000000
    Shell 1: l = 0; rc = 1.90 bohr
    Shell 2: l = 2; rc = 1.84 bohr
File: O_02.recpot [ 2001 points up to Gmax=  52.9 (1/bohr)]
  Atomic number:  8;  ionic charge:  6.000000
    Shell 1: l = 0; rc = 1.31 bohr
<<<<<<<<<<<<<<<<<<<<<<<<<<<<<<<<<<<<<<<<>>>>>>>>>>>>>>>>>>>>>>>>>>>>>>>>>>>>>>>>

-------------------------- Atom counting information ---------------------------
Symbol    Natoms    Nngwfs    Nprojs
  N        236       944       236
  H       1311      1311         0
  C        810      3240       810
  S          6        54        36
  O        239       956       239
.......   ......    ......    ......
Totals:   2602      6505      1321
--------------------------------------------------------------------------------

=============================== PSINC grid sizes ===============================
                      Simulation cell:  273 x 286 x 320
                              FFT-box:   99 x 105 x  99
                                  PPD:    7 x  11 x   1
Grid space d1=  0.504080586081a0 (KE cutoff=  29.89538Eh = 813.49465eV)
Grid space d2=  0.498762237762a0 (KE cutoff=  30.53633Eh = 830.93588eV)
Grid space d3=  0.502671875000a0 (KE cutoff=  30.06317Eh = 818.06059eV)
================================================================================

********************* Fourier parallelisation information **********************
       Coarse grid (whole simulation cell) dimensions:    273   286   320
          Real-space ('12') slabs/node (min max mean):      8     8     8
         Recip-space ('23') slabs/node (min max mean):      3     4     3
********************************************************************************

********************* Fourier parallelisation information **********************
       Double grid (whole simulation cell) dimensions:    546   572   640
          Real-space ('12') slabs/node (min max mean):     16    16    16
         Recip-space ('23') slabs/node (min max mean):      6     7     6
********************************************************************************
ONETEP fine grid is 546 x 572 x 640 gridpoints, 137.6140 x 142.6460 x 160.8550 bohr.
FD multigrid is     545 x 569 x 633 gridpoints, 137.3620 x 141.8979 x 159.0956 bohr.


Calculating local pseudopotential in open BC on a radial grid ...
Discrepancy between calculated realspace psloc and -Z/x on [5a0,255.264a0]:
max |rel. diff| # avg |rel. diff| #  avg rel. diff #  f # pseudopotential file
 0.000296759711    0.000009439468   0.000000085927   54  'N_00.recpot'
 0.000490027943    0.000021572324  -0.000000031900   54  'H_04.recpot'
 0.000320795249    0.000014598087   0.000000111901   54  'C_01.recpot'
 0.000388730920    0.000016096375   0.000000514750   54  'S_00.recpot'
 0.000828383344    0.000035421288   0.000000087443   54  'O_02.recpot'
... done
 WARNING: meta-GGA functionality under development.
          Using this functional is experimental.
          Minimum tau threshold, xc_min_tau =   1.00000000E-12
 WARNING: Using alternative XC functional PBE for 
          radial densities (xc_radial).

Atom SCF Calculation for N  : Z (AE atom) =   7 : Z (PS atom) =   5
Config String:
Orbitals (num,occ):  2     2.00 3.00
Orbitals   (num,l):  2        0    1
Real-space Grid (nr,dr,rmax): 1203    0.0066555740    8.0000000000
Spherical Bessel Basis (nsws,lmax,cutoff):   47    1  176.3951722778
Confining potential (l,width,scale):  0    3.0000000000  100.0000000000
Confining potential (l,width,scale):  1    3.0000000000  100.0000000000
  1         -4.7312375307   -3.4155304497    7.0523828109   -1.9351020946
  2         -9.7309464766   -2.0532547791    8.2966052865   -2.2494486027
  3         -9.6627394379   -2.1124926340    8.2327997121   -2.2369778124
  4         -9.6814993499   -2.1215521045    8.2229805960   -2.2365178421
  5         -9.6843326483   -2.1250939529    8.2191374534   -2.2362718126
  6         -9.6859628709   -2.1267894855    8.2172963573   -2.2362066344
  7         -9.6867347035   -2.1276425665    8.2163697352   -2.2361903369
  8         -9.6870802100   -2.1280764625    8.2158983890   -2.2361891460
  9         -9.6872290423   -2.1282977424    8.2156580222   -2.2361920435
 10         -9.6872901988   -2.1284107021    8.2155353368   -2.2361953393
 11         -9.6873135296   -2.1284684031    8.2154726809   -2.2361979819
 12         -9.6873212476   -2.1284978948    8.2154406648   -2.2361998431
 13         -9.6873229586   -2.1285129774    8.2154242957   -2.2362010676
 14         -9.6873226456   -2.1285206957    8.2154159216   -2.2362018403
 15         -9.6873218534   -2.1285246479    8.2154116349   -2.2362023142
 16         -9.6873212599   -2.1285262679    8.2154098784   -2.2362025420
 17         -9.6873207834   -2.1285272564    8.2154088068   -2.2362026955
 18         -9.6873204210   -2.1285278597    8.2154081529   -2.2362027982
 19         -9.6873201550   -2.1285282280    8.2154077538   -2.2362028667
 20         -9.6873199645   -2.1285284529    8.2154075102   -2.2362029121
 21         -9.6873198305   -2.1285285903    8.2154073614   -2.2362029421
 22         -9.6873197377   -2.1285286742    8.2154072705   -2.2362029618
Atom SCF converged after  22 iterations to a total energy of     -9.68731974

Atom SCF Calculation for H  : Z (AE atom) =   1 : Z (PS atom) =   1
Config String:
Orbitals (num,occ):  1     1.00
Orbitals   (num,l):  1        0
Real-space Grid (nr,dr,rmax): 1203    0.0066555740    8.0000000000
Spherical Bessel Basis (nsws,lmax,cutoff):   47    0  176.3951722778
Confining potential (l,width,scale):  0    3.0000000000  100.0000000000
  1         -0.3194257691   -0.2393854593    0.2820953124   -0.2424203209
  2         -0.3951823392   -0.2377116493    0.2886404059   -0.2475147891
  3         -0.4317044583   -0.2352244387    0.2921333887   -0.2514046172
  4         -0.4470703708   -0.2341892222    0.2934391879   -0.2531009782
  5         -0.4532132900   -0.2338556667    0.2938388426   -0.2537313520
  6         -0.4556579251   -0.2337612552    0.2939448584   -0.2539550462
  7         -0.4566418315   -0.2337377355    0.2939680120   -0.2540342273
  8         -0.4570437922   -0.2337331116    0.2939708287   -0.2540627372
  9         -0.4572102946   -0.2337328328    0.2939698291   -0.2540732650
 10         -0.4572800424   -0.2337332404    0.2939687193   -0.2540772588
 11         -0.4573095100   -0.2337335791    0.2939680317   -0.2540788122
 12         -0.4573220379   -0.2337337762    0.2939676699   -0.2540794294
 13         -0.4573273880   -0.2337338775    0.2939674931   -0.2540796787
 14         -0.4573296803   -0.2337339266    0.2939674099   -0.2540797808
 15         -0.4573306647   -0.2337339495    0.2939673718   -0.2540798230
 16         -0.4573310882   -0.2337339601    0.2939673545   -0.2540798406
 17         -0.4573312706   -0.2337339649    0.2939673467   -0.2540798479
 18         -0.4573313493   -0.2337339670    0.2939673433   -0.2540798510
Atom SCF converged after  18 iterations to a total energy of     -0.45733135

Atom SCF Calculation for C  : Z (AE atom) =   6 : Z (PS atom) =   4
Config String:
Orbitals (num,occ):  2     2.00 2.00
Orbitals   (num,l):  2        0    1
Real-space Grid (nr,dr,rmax): 1203    0.0066555740    8.0000000000
Spherical Bessel Basis (nsws,lmax,cutoff):   47    1  176.3951722778
Confining potential (l,width,scale):  0    3.0000000000  100.0000000000
Confining potential (l,width,scale):  1    3.0000000000  100.0000000000
  1         -5.2976922011   -1.3069684169    4.5135249990   -1.4493313817
  2         -5.3721716256   -1.3429755895    4.4750154450   -1.4361613026
  3         -5.3809959565   -1.3617365618    4.4541655428   -1.4305930207
  4         -5.3918938866   -1.3667928461    4.4484735100   -1.4294652294
  5         -5.3956096428   -1.3688539142    4.4461376126   -1.4290734646
  6         -5.3968271862   -1.3696852393    4.4451910874   -1.4289366866
  7         -5.3972028401   -1.3700178062    4.4448112275   -1.4288900460
  8         -5.3973067903   -1.3701500158    4.4446598370   -1.4288749220
  9         -5.3973286940   -1.3702023868    4.4445997329   -1.4288704293
 10         -5.3973289850   -1.3702230869    4.4445759233   -1.4288693188
 11         -5.3973254264   -1.3702312560    4.4445665049   -1.4288691775
 12         -5.3973224003   -1.3702344755    4.4445627836   -1.4288692549
 13         -5.3973208708   -1.3702354890    4.4445616088   -1.4288693270
 14         -5.3973198783   -1.3702360102    4.4445610034   -1.4288693814
 15         -5.3973192535   -1.3702362780    4.4445606917   -1.4288694190
 16         -5.3973188684   -1.3702364155    4.4445605313   -1.4288694437
 17         -5.3973186349   -1.3702364860    4.4445604489   -1.4288694595
 18         -5.3973184951   -1.3702365221    4.4445604065   -1.4288694693
 19         -5.3973184122   -1.3702365405    4.4445603848   -1.4288694753
Atom SCF converged after  19 iterations to a total energy of     -5.39731841

Atom SCF Calculation for S  : Z (AE atom) =  16 : Z (PS atom) =   6
Config String:
Orbitals (num,occ):  3     2.00 4.00 0.00
Orbitals   (num,l):  3        0    1    2
Real-space Grid (nr,dr,rmax): 1203    0.0066555740    8.0000000000
Spherical Bessel Basis (nsws,lmax,cutoff):   47    2  176.3951722778
Confining potential (l,width,scale):  0    3.0000000000  100.0000000000
Confining potential (l,width,scale):  1    3.0000000000  100.0000000000
Confining potential (l,width,scale):  2    3.0000000000  100.0000000000
  1        -12.4735062396   -1.0328741412   10.1554312477   -2.4512393157
  2         -9.9458301913   -2.4607392455    8.3041325857   -2.0306994528
  3        -10.1450417646   -2.2931184565    8.4831893826   -2.0812538287
  4        -10.1528335592   -2.2733105793    8.5050388867   -2.0896035179
  5        -10.1571940363   -2.2633716629    8.5160794258   -2.0939370707
  6        -10.1594380571   -2.2584938667    8.5215163935   -2.0961289008
  7        -10.1605856507   -2.2561081821    8.5241804044   -2.0972291378
  8        -10.1611799191   -2.2549395235    8.5254868240   -2.0977806248
  9        -10.1614918752   -2.2543658586    8.5261285885   -2.0980571586
 10        -10.1616572884   -2.2540839121    8.5264441898   -2.0981959233
 11        -10.1617455602   -2.2539453058    8.5265994231   -2.0982656006
 12        -10.1617928447   -2.2538772062    8.5266757320   -2.0983006047
 13        -10.1618182292   -2.2538437891    8.5267131983   -2.0983181961
 14        -10.1618318741   -2.2538274201    8.5267315620   -2.0983270391
 15        -10.1618392144   -2.2538194197    8.5267405433   -2.0983314852
 16        -10.1618431651   -2.2538155200    8.5267449245   -2.0983337210
 17        -10.1618452923   -2.2538136252    8.5267470551   -2.0983348455
 18        -10.1618464380   -2.2538127080    8.5267480875   -2.0983354110
 19        -10.1618470552   -2.2538122659    8.5267485856   -2.0983356955
 20        -10.1618473878   -2.2538120540    8.5267488248   -2.0983358386
 21        -10.1618475670   -2.2538119530    8.5267489389   -2.0983359106
 22        -10.1618476637   -2.2538119053    8.5267489929   -2.0983359468
Atom SCF converged after  22 iterations to a total energy of    -10.16184766

Atom SCF Calculation for O  : Z (AE atom) =   8 : Z (PS atom) =   6
Config String:
Orbitals (num,occ):  2     2.00 4.00
Orbitals   (num,l):  2        0    1
Real-space Grid (nr,dr,rmax): 1203    0.0066555740    8.0000000000
Spherical Bessel Basis (nsws,lmax,cutoff):   47    1  176.3951722778
Confining potential (l,width,scale):  0    3.0000000000  100.0000000000
Confining potential (l,width,scale):  1    3.0000000000  100.0000000000
  1         -1.8735052164   -7.5539365035   10.1554312477   -2.4512393157
  2        -16.0318313751   -3.1285771268   13.6395848164   -3.2358799643
  3        -15.9524020423   -3.0762819706   13.6967272503   -3.2536856837
  4        -15.8521515939   -3.0781493909   13.6951909330   -3.2561700440
  5        -15.8357139793   -3.0748501933   13.6988803334   -3.2580493133
  6        -15.8246052853   -3.0740779781   13.6997881576   -3.2588327446
  7        -15.8189019501   -3.0737449687   13.7001869911   -3.2592378801
  8        -15.8159785510   -3.0736026016   13.7003615168   -3.2594475790
  9        -15.8144776168   -3.0735437994   13.7004360379   -3.2595560735
 10        -15.8137058024   -3.0735207882   13.7004667348   -3.2596122456
 11        -15.8133083127   -3.0735125946   13.7004786868   -3.2596413656
 12        -15.8131032938   -3.0735102195   13.7004828997   -3.2596564858
 13        -15.8129973902   -3.0735099286   13.7004840891   -3.2596643505
 14        -15.8129426040   -3.0735102506   13.7004842061   -3.2596684489
 15        -15.8129142203   -3.0735106556   13.7004840157   -3.2596705887
 16        -15.8128994940   -3.0735109855   13.7004837906   -3.2596717080
 17        -15.8128918425   -3.0735112169   13.7004836103   -3.2596722946
 18        -15.8128878614   -3.0735113674   13.7004834848   -3.2596726026
 19        -15.8128857871   -3.0735114608   13.7004834035   -3.2596727646
 20        -15.8128847048   -3.0735115170   13.7004833533   -3.2596728500
 21        -15.8128841394   -3.0735115501   13.7004833231   -3.2596728951
 22        -15.8128838436   -3.0735115693   13.7004833054   -3.2596729190
 23        -15.8128836887   -3.0735115802   13.7004832951   -3.2596729316
 24        -15.8128836074   -3.0735115864   13.7004832893   -3.2596729383
Atom SCF converged after  24 iterations to a total energy of    -15.81288361

========================== Calculation in vacuum ==============================
= Adjusting the following parameters: 
= is_implicit_solvent: F
= is_include_apolar: F
= write_denskern: T
= write_tightbox_ngwfs: T
= restart read filename prefix: ""
= restart write filename prefix: "vacuum_"
===============================================================================

Determining parallel strategy ...
... using space-filling curve
... NGWF load balancing: max    163;  min    162;  average    163
... Projector load balancing: max     36;  min     32;  average     33
... done
Calculating direct Ion-Ion energy ...
Ion-Ion Energy        :    826890.37684669718146
Basis initialisation ...... NGWF spheres initialised
... Projector spheres initialised
... NGWF tight boxes initialised
... Tight-boxes gathered
... NGWF basis size (local,global):    1118737  44690371
... Nonlocal pseudopotential projector initialisation
... done

========================== Sparse matrix information ===========================
                        Overlap matrix filling:   6.77%
                        Density kernel filling: 100.00%
              NGWF-Proj overlap matrix filling:   1.79%
                    Hamiltonian matrix filling:   7.64%
                  NGWF diagonal matrix filling:   0.05%
                             KS matrix filling: 100.00% 
                           KSKS matrix filling: 100.00% 
================================================================================

Sparse matrix initialisation ... done

Generating smeared ion density ... done
Smeared ion self correction:     -14457.169564
Smeared ion non-self correction: -826842.306891
NGWF initialisation ...... done
============ Calculation of NGWF S^-1 using Hotelling algorithm ================ 
         Iteration  |  Frobenius norm and Maximum abs value    (of I-S*S_n^-1)   
               1       0.78519726E+02     0.98275137E+00
               2       0.76697067E+02     0.96593945E+00
               3       0.73735838E+02     0.93356857E+00
               4       0.69509617E+02     0.87385111E+00
               5       0.64228048E+02     0.77200086E+00
               6       0.58276884E+02     0.70820765E+00
               7       0.52270896E+02     0.67218589E+00
               8       0.46718043E+02     0.64480728E+00
               9       0.40698327E+02     0.60429010E+00
              10       0.32515091E+02     0.53281565E+00
              11       0.21986871E+02     0.41698675E+00
              12       0.11326403E+02     0.27634134E+00
              13       0.37724233E+01     0.13165961E+00
              14       0.60393382E+00     0.35163388E-01
              15       0.28796276E-01     0.29028873E-02
              16       0.15943258E-03     0.27119668E-04
              17       0.10304284E-07     0.24460562E-08
              18       0.96639968E-13     0.62172489E-14
================================================================================
Calculating local pseudopotential in open BC on the fine real space grid ...
... done

MG BCs: +ve charge blocks (gridpoints):     20646 (   16260990).
MG BCs: -ve charge blocks (gridpoints):      8081 (    1095005).
MG BCs:     Elided blocks (gridpoints):    179994 (  178940470).
MG BCs: Computational effort saved:  99.9854%.
MG BCs: Charge after coarse-graining:           -9.0002290.
MG DL_MG: Calling solver with defect correction order = 8
MG DL_MG: Solver finished
MG Hartree energy from (\int phi*rho dr):              1462.330757
MG Hartree energy from (\int eps (grad phi)^2 dr):     1461.719521
MG Discrepancy due to finite box and discretization:     -0.611236 (  -0.04180%)
MG Correction to account for finite box:                  0.464499
MG Remaining discrepancy, due to discretization:         -0.146737 (  -0.01003%)
 WARNING: xc_energy_potential using alternative initial XC functional PBE.
Up spin density kernel initialisation ... 
======= Optimisation of K by Palser-Manolopoulos canonical purification ======== 
         Iteration  |  Band structure energy |    c_n   
               1       -2576.87916012362530    0.5274948
               2       -2752.54228718122431    0.5174537
               3       -2933.44661677337899    0.5154511
               4       -3085.45673542001623    0.5286932
               5       -3179.66750223747295    0.5643833
               6       -3219.37611877323070    0.6090774
               7       -3232.90648429856174    0.6195503
               8       -3238.81208988569006    0.6169645
               9       -3241.67461685215858    0.6333033
              10       -3242.83040147798147    0.6657354
              11       -3243.26069460587223    0.6973762
              12       -3243.43869501494919    0.7167299
              13       -3243.52549724364144    0.7086205
              14       -3243.57808452920017    0.6847470
              15       -3243.61240848384205    0.6559477
              16       -3243.63327490212941    0.5926656
              17       -3243.64648738094002    0.5056711
              18       -3243.65303820139980    0.4388450
              19       -3243.65381487805371    0.4517072
              20       -3243.65424529648089    0.4828304
              21       -3243.65450329513396    0.4979569
              22       -3243.65457344762490    0.4999726
              23       -3243.65457751139093    0.5000007
              24       -3243.65457752423117    0.5000007
Termination criterion satisfied: band energy change below threshold.
Final occupancy bounds: [    0.00000000000005:    1.00000000000000]
Closest occupancy to 0.5:     1.00000000000000
================================================================================
... done

Writing density kernel to file "host_30121.vacuum_dkn" ... done

>>> Optimising kernel for current NGWFs:
   Initial electron number for spin 1:    7192.00000000
     Final electron number for spin 1:    7192.00000000

=================== Penalty functional idempotency correction ==================
 RMS occupancy error at iteration   1:  0.000000 (step -0.5000 Ne1=   7192.0000)
            Final RMS occupancy error   :  0.000000 (Ne1=   7192.0000)
               Final occupancy bounds   : [ -0.0000,  1.0000]
================================================================================

................................................................................
<<<<<<<<<<<<<< LNV (Original version) density kernel optimisation >>>>>>>>>>>>>>
~~~~~~~~~~~~~~~~~~~~~~~~~~~~~~~~~~~~~~~~~~~~~~~~~~~~~~~~~~~~~~~~~~~~~~~~~~~~~~~~
   iter  |      energy (Eh)       | rms gradient |  commutator  |   dE (Eh)
MG BCs: +ve charge blocks (gridpoints):     30947 (   17364315).
MG BCs: -ve charge blocks (gridpoints):      8398 (    1128623).
MG BCs:     Elided blocks (gridpoints):    169691 (  177803527).
MG BCs: Computational effort saved:  99.9800%.
MG BCs: Charge after coarse-graining:           -9.0009791.
MG DL_MG: Calling solver with defect correction order = 8
MG DL_MG: Solver finished
MG Hartree energy from (\int phi*rho dr):              1415.396741
MG Hartree energy from (\int eps (grad phi)^2 dr):     1414.738529
MG Discrepancy due to finite box and discretization:     -0.658212 (  -0.04650%)
MG Correction to account for finite box:                  0.470016
MG Remaining discrepancy, due to discretization:         -0.188196 (  -0.01330%)
      ideal mu1:      -0.751119867512
             Q0:  -11473.326057089726
             G0:    -125.283231694010
   RMS gradient:       0.001720676284
MG BCs: +ve charge blocks (gridpoints):     30898 (   17442399).
MG BCs: -ve charge blocks (gridpoints):      8291 (    1105073).
MG BCs:     Elided blocks (gridpoints):    169741 (  177748993).
MG BCs: Computational effort saved:  99.9800%.
MG BCs: Charge after coarse-graining:           -9.0010005.
MG DL_MG: Calling solver with defect correction order = 8
MG DL_MG: Solver finished
MG Hartree energy from (\int phi*rho dr):              1437.842195
MG Hartree energy from (\int eps (grad phi)^2 dr):     1437.199725
MG Discrepancy due to finite box and discretization:     -0.642469 (  -0.04468%)
MG Correction to account for finite box:                  0.469417
MG Remaining discrepancy, due to discretization:         -0.173052 (  -0.01204%)
     Trial step:       0.500000000000
             Q1:  -11485.230098043219
 Quadratic coef:      50.737574893512
 Linear coef   :     -62.641615847005
           Qmin:  -11492.660702291823
Quadratic minimum step length (  0.308654956304) accepted
    Initial Ne1:    7192.00000000
      Final Ne1:    7192.00000000

=================== Penalty functional idempotency correction ==================
 RMS occupancy error at iteration   1:  0.003154 (step -0.4893 Ne1=   7192.0000)
 RMS occupancy error at iteration   2:  0.000023 (step -0.5000 Ne1=   7192.0000)
            Final RMS occupancy error   :  0.000000 (Ne1=   7192.0000)
               Final occupancy bounds   : [  0.0000,  1.0000]
================================================================================

    1        -1.147332605709E+04     1.7207E-03     1.5563E-03
MG BCs: +ve charge blocks (gridpoints):     30906 (   17414577).
MG BCs: -ve charge blocks (gridpoints):      8324 (    1114061).
MG BCs:     Elided blocks (gridpoints):    169732 (  177767827).
MG BCs: Computational effort saved:  99.9800%.
MG BCs: Charge after coarse-graining:           -9.0009921.
MG DL_MG: Calling solver with defect correction order = 8
MG DL_MG: Solver finished
MG Hartree energy from (\int phi*rho dr):              1422.677425
MG Hartree energy from (\int eps (grad phi)^2 dr):     1422.029745
MG Discrepancy due to finite box and discretization:     -0.647680 (  -0.04553%)
MG Correction to account for finite box:                  0.469546
MG Remaining discrepancy, due to discretization:         -0.178133 (  -0.01252%)
      ideal mu1:      -0.790700833137
             Q0:  -11493.036572928308
             G0:     -10.952891439769
   RMS gradient:       0.000505108795
MG BCs: +ve charge blocks (gridpoints):     30892 (   17431160).
MG BCs: -ve charge blocks (gridpoints):      8301 (    1107305).
MG BCs:     Elided blocks (gridpoints):    169746 (  177758000).
MG BCs: Computational effort saved:  99.9800%.
MG BCs: Charge after coarse-graining:           -9.0009965.
MG DL_MG: Calling solver with defect correction order = 8
MG DL_MG: Solver finished
MG Hartree energy from (\int phi*rho dr):              1428.449062
MG Hartree energy from (\int eps (grad phi)^2 dr):     1427.804825
MG Discrepancy due to finite box and discretization:     -0.644236 (  -0.04510%)
MG Correction to account for finite box:                  0.469081
MG Remaining discrepancy, due to discretization:         -0.175155 (  -0.01226%)
     Trial step:       0.392845361627
             Q1:  -11495.544799697003
 Quadratic coef:       1.794565829827
 Linear coef   :      -4.302792598523
           Qmin:  -11495.615751668673
Quadratic minimum step length (  0.470958514388) accepted
    Initial Ne1:    7191.99993544
      Final Ne1:    7192.00000000

=================== Penalty functional idempotency correction ==================
 RMS occupancy error at iteration   1:  0.001478 (step -0.4947 Ne1=   7192.0000)
 RMS occupancy error at iteration   2:  0.000006 (step -0.5000 Ne1=   7192.0000)
            Final RMS occupancy error   :  0.000000 (Ne1=   7192.0000)
               Final occupancy bounds   : [  0.0000,  1.0000]
================================================================================

    2        -1.149303657293E+04     5.0511E-04     4.5686E-04    -1.9711E+01
MG BCs: +ve charge blocks (gridpoints):     30895 (   17434358).
MG BCs: -ve charge blocks (gridpoints):      8295 (    1105895).
MG BCs:     Elided blocks (gridpoints):    169743 (  177756212).
MG BCs: Computational effort saved:  99.9800%.
MG BCs: Charge after coarse-graining:           -9.0009976.
MG DL_MG: Calling solver with defect correction order = 8
MG DL_MG: Solver finished
MG Hartree energy from (\int phi*rho dr):              1429.620619
MG Hartree energy from (\int eps (grad phi)^2 dr):     1428.977023
MG Discrepancy due to finite box and discretization:     -0.643596 (  -0.04502%)
MG Correction to account for finite box:                  0.468997
MG Remaining discrepancy, due to discretization:         -0.174599 (  -0.01221%)
      ideal mu1:      -0.810881508340
             Q0:  -11495.648288522498
             G0:      -1.809234085025
   RMS gradient:       0.000205390994
MG BCs: +ve charge blocks (gridpoints):     30900 (   17435101).
MG BCs: -ve charge blocks (gridpoints):      8291 (    1105849).
MG BCs:     Elided blocks (gridpoints):    169738 (  177755515).
MG BCs: Computational effort saved:  99.9800%.
MG BCs: Charge after coarse-graining:           -9.0009977.
MG DL_MG: Calling solver with defect correction order = 8
MG DL_MG: Solver finished
MG Hartree energy from (\int phi*rho dr):              1429.016579
MG Hartree energy from (\int eps (grad phi)^2 dr):     1428.373354
MG Discrepancy due to finite box and discretization:     -0.643225 (  -0.04501%)
MG Correction to account for finite box:                  0.468828
MG Remaining discrepancy, due to discretization:         -0.174397 (  -0.01220%)
     Trial step:       0.430132384152
             Q1:  -11496.112126591033
 Quadratic coef:       0.314372101946
 Linear coef   :      -0.778210170481
           Qmin:  -11496.129892222136
Quadratic minimum step length (  0.532384066411) accepted
    Initial Ne1:    7191.99998032
      Final Ne1:    7192.00000000

=================== Penalty functional idempotency correction ==================
 RMS occupancy error at iteration   1:  0.000564 (step -0.4979 Ne1=   7192.0000)
 RMS occupancy error at iteration   2:  0.000001 (step -0.5000 Ne1=   7192.0000)
            Final RMS occupancy error   :  0.000000 (Ne1=   7192.0000)
               Final occupancy bounds   : [  0.0000,  1.0000]
================================================================================

    3        -1.149564828852E+04     2.0539E-04     1.8577E-04    -2.6117E+00
MG BCs: +ve charge blocks (gridpoints):     30901 (   17435227).
MG BCs: -ve charge blocks (gridpoints):      8293 (    1105850).
MG BCs:     Elided blocks (gridpoints):    169737 (  177755388).
MG BCs: Computational effort saved:  99.9800%.
MG BCs: Charge after coarse-graining:           -9.0009978.
MG DL_MG: Calling solver with defect correction order = 8
MG DL_MG: Solver finished
MG Hartree energy from (\int phi*rho dr):              1428.877856
MG Hartree energy from (\int eps (grad phi)^2 dr):     1428.234709
MG Discrepancy due to finite box and discretization:     -0.643147 (  -0.04501%)
MG Correction to account for finite box:                  0.468788
MG Remaining discrepancy, due to discretization:         -0.174359 (  -0.01220%)
      ideal mu1:      -0.813500541474
             Q0:  -11496.134331180248
             G0:      -0.388410879110
   RMS gradient:       0.000095333657
MG BCs: +ve charge blocks (gridpoints):     30903 (   17435715).
MG BCs: -ve charge blocks (gridpoints):      8295 (    1105779).
MG BCs:     Elided blocks (gridpoints):    169735 (  177754971).
MG BCs: Computational effort saved:  99.9800%.
MG BCs: Charge after coarse-graining:           -9.0009977.
MG DL_MG: Calling solver with defect correction order = 8
MG DL_MG: Solver finished
MG Hartree energy from (\int phi*rho dr):              1429.936875
MG Hartree energy from (\int eps (grad phi)^2 dr):     1429.293644
MG Discrepancy due to finite box and discretization:     -0.643231 (  -0.04498%)
MG Correction to account for finite box:                  0.468719
MG Remaining discrepancy, due to discretization:         -0.174512 (  -0.01220%)
     Trial step:       0.478534876232
             Q1:  -11496.229998703813
 Quadratic coef:       0.090200628398
 Linear coef   :      -0.185868151962
           Qmin:  -11496.230081538442
Quadratic minimum step length (  0.493036438185) accepted
    Initial Ne1:    7191.99999596
      Final Ne1:    7192.00000000

=================== Penalty functional idempotency correction ==================
 RMS occupancy error at iteration   1:  0.000178 (step -0.4993 Ne1=   7192.0000)
            Final RMS occupancy error   :  0.000000 (Ne1=   7192.0000)
               Final occupancy bounds   : [ -0.0000,  1.0000]
================================================================================

    4        -1.149613433118E+04     9.5334E-05     8.6227E-05    -4.8604E-01
MG BCs: +ve charge blocks (gridpoints):     30903 (   17435724).
MG BCs: -ve charge blocks (gridpoints):      8295 (    1105778).
MG BCs:     Elided blocks (gridpoints):    169735 (  177754963).
MG BCs: Computational effort saved:  99.9800%.
MG BCs: Charge after coarse-graining:           -9.0009977.
MG DL_MG: Calling solver with defect correction order = 8
MG DL_MG: Solver finished
MG Hartree energy from (\int phi*rho dr):              1429.969211
MG Hartree energy from (\int eps (grad phi)^2 dr):     1429.325978
MG Discrepancy due to finite box and discretization:     -0.643234 (  -0.04498%)
MG Correction to account for finite box:                  0.468717
MG Remaining discrepancy, due to discretization:         -0.174517 (  -0.01220%)
      ideal mu1:      -0.813615449645
             Q0:  -11496.230483222986
             G0:      -0.100706810050
   RMS gradient:       0.000048684470
MG BCs: +ve charge blocks (gridpoints):     30901 (   17435414).
MG BCs: -ve charge blocks (gridpoints):      8296 (    1105960).
MG BCs:     Elided blocks (gridpoints):    169737 (  177755091).
MG BCs: Computational effort saved:  99.9800%.
MG BCs: Charge after coarse-graining:           -9.0009974.
MG DL_MG: Calling solver with defect correction order = 8
MG DL_MG: Solver finished
MG Hartree energy from (\int phi*rho dr):              1429.665386
MG Hartree energy from (\int eps (grad phi)^2 dr):     1429.022009
MG Discrepancy due to finite box and discretization:     -0.643377 (  -0.04500%)
MG Correction to account for finite box:                  0.468731
MG Remaining discrepancy, due to discretization:         -0.174646 (  -0.01222%)
     Trial step:       0.485731542032
             Q1:  -11496.253793000244
 Quadratic coef:       0.025606696881
 Linear coef   :      -0.048916474138
           Qmin:  -11496.253844508641
Quadratic minimum step length (  0.463946492671) accepted
    Initial Ne1:    7192.00163432
      Final Ne1:    7192.00000000

=================== Penalty functional idempotency correction ==================
 RMS occupancy error at iteration   1:  0.000059 (step -0.4998 Ne1=   7192.0000)
            Final RMS occupancy error   :  0.000000 (Ne1=   7192.0000)
               Final occupancy bounds   : [ -0.0000,  1.0000]
================================================================================

    5        -1.149623048322E+04     4.8684E-05     4.4034E-05    -9.6152E-02
MG BCs: +ve charge blocks (gridpoints):     30901 (   17435440).
MG BCs: -ve charge blocks (gridpoints):      8296 (    1105954).
MG BCs:     Elided blocks (gridpoints):    169737 (  177755071).
MG BCs: Computational effort saved:  99.9800%.
MG BCs: Charge after coarse-graining:           -9.0009974.
MG DL_MG: Calling solver with defect correction order = 8
MG DL_MG: Solver finished
MG Hartree energy from (\int phi*rho dr):              1429.678989
MG Hartree energy from (\int eps (grad phi)^2 dr):     1429.035618
MG Discrepancy due to finite box and discretization:     -0.643371 (  -0.04500%)
MG Correction to account for finite box:                  0.468731
MG Remaining discrepancy, due to discretization:         -0.174640 (  -0.01222%)
      ideal mu1:      -0.812969309843
             Q0:  -11496.253886181978
             G0:      -0.023811499285
   RMS gradient:       0.000023696249
MG BCs: +ve charge blocks (gridpoints):     30904 (   17435249).
MG BCs: -ve charge blocks (gridpoints):      8295 (    1106076).
MG BCs:     Elided blocks (gridpoints):    169734 (  177755140).
MG BCs: Computational effort saved:  99.9800%.
MG BCs: Charge after coarse-graining:           -9.0009973.
MG DL_MG: Calling solver with defect correction order = 8
MG DL_MG: Solver finished
MG Hartree energy from (\int phi*rho dr):              1429.201200
MG Hartree energy from (\int eps (grad phi)^2 dr):     1428.557816
MG Discrepancy due to finite box and discretization:     -0.643385 (  -0.04502%)
MG Correction to account for finite box:                  0.468736
MG Remaining discrepancy, due to discretization:         -0.174649 (  -0.01222%)
     Trial step:       0.474714066892
             Q1:  -11496.260773285525
 Quadratic coef:       0.004416550117
 Linear coef   :      -0.011303653664
           Qmin:  -11496.261118783374
Quadratic minimum step length (  0.607488114014) accepted
    Initial Ne1:    7192.00075502
      Final Ne1:    7192.00000000

=================== Penalty functional idempotency correction ==================
 RMS occupancy error at iteration   1:  0.000024 (step -0.4999 Ne1=   7192.0000)
            Final RMS occupancy error   :  0.000000 (Ne1=   7192.0000)
               Final occupancy bounds   : [ -0.0000,  1.0000]
================================================================================

    6        -1.149625388618E+04     2.3696E-05     2.1433E-05    -2.3403E-02
MG BCs: +ve charge blocks (gridpoints):     30905 (   17435198).
MG BCs: -ve charge blocks (gridpoints):      8296 (    1106102).
MG BCs:     Elided blocks (gridpoints):    169733 (  177755165).
MG BCs: Computational effort saved:  99.9800%.
MG BCs: Charge after coarse-graining:           -9.0009973.
MG DL_MG: Calling solver with defect correction order = 8
MG DL_MG: Solver finished
MG Hartree energy from (\int phi*rho dr):              1429.067429
MG Hartree energy from (\int eps (grad phi)^2 dr):     1428.424041
MG Discrepancy due to finite box and discretization:     -0.643388 (  -0.04502%)
MG Correction to account for finite box:                  0.468737
MG Remaining discrepancy, due to discretization:         -0.174652 (  -0.01222%)
      ideal mu1:      -0.812924393504
             Q0:  -11496.261124002864
             G0:      -0.008714928295
   RMS gradient:       0.000014351081
MG BCs: +ve charge blocks (gridpoints):     30904 (   17435586).
MG BCs: -ve charge blocks (gridpoints):      8295 (    1105883).
MG BCs:     Elided blocks (gridpoints):    169734 (  177754996).
MG BCs: Computational effort saved:  99.9800%.
MG BCs: Charge after coarse-graining:           -9.0009974.
MG DL_MG: Calling solver with defect correction order = 8
MG DL_MG: Solver finished
MG Hartree energy from (\int phi*rho dr):              1429.573315
MG Hartree energy from (\int eps (grad phi)^2 dr):     1428.929926
MG Discrepancy due to finite box and discretization:     -0.643388 (  -0.04501%)
MG Correction to account for finite box:                  0.468730
MG Remaining discrepancy, due to discretization:         -0.174658 (  -0.01222%)
     Trial step:       0.537013177857
             Q1:  -11496.263321123202
 Quadratic coef:       0.002482910999
 Linear coef   :      -0.004680031338
           Qmin:  -11496.263329347048
Quadratic minimum step length (  0.506107247218) accepted
    Initial Ne1:    7192.00004375
      Final Ne1:    7192.00000000

=================== Penalty functional idempotency correction ==================
 RMS occupancy error at iteration   1:  0.000001 (step -0.5000 Ne1=   7192.0000)
            Final RMS occupancy error   :  0.000000 (Ne1=   7192.0000)
               Final occupancy bounds   : [  0.0000,  1.0000]
================================================================================

    7        -1.149626112400E+04     1.4351E-05     1.2980E-05    -7.2378E-03
MG BCs: +ve charge blocks (gridpoints):     30905 (   17435564).
MG BCs: -ve charge blocks (gridpoints):      8295 (    1105892).
MG BCs:     Elided blocks (gridpoints):    169733 (  177755009).
MG BCs: Computational effort saved:  99.9800%.
MG BCs: Charge after coarse-graining:           -9.0009974.
MG DL_MG: Calling solver with defect correction order = 8
MG DL_MG: Solver finished
MG Hartree energy from (\int phi*rho dr):              1429.544176
MG Hartree energy from (\int eps (grad phi)^2 dr):     1428.900788
MG Discrepancy due to finite box and discretization:     -0.643388 (  -0.04501%)
MG Correction to account for finite box:                  0.468730
MG Remaining discrepancy, due to discretization:         -0.174658 (  -0.01222%)
      ideal mu1:      -0.813212712460
             Q0:  -11496.263329366921
             G0:      -0.004457299342
   RMS gradient:       0.000010263458
MG BCs: +ve charge blocks (gridpoints):     30905 (   17435616).
MG BCs: -ve charge blocks (gridpoints):      8295 (    1105853).
MG BCs:     Elided blocks (gridpoints):    169733 (  177754996).
MG BCs: Computational effort saved:  99.9800%.
MG BCs: Charge after coarse-graining:           -9.0009974.
MG DL_MG: Calling solver with defect correction order = 8
MG DL_MG: Solver finished
MG Hartree energy from (\int phi*rho dr):              1429.576843
MG Hartree energy from (\int eps (grad phi)^2 dr):     1428.933465
MG Discrepancy due to finite box and discretization:     -0.643378 (  -0.04500%)
MG Correction to account for finite box:                  0.468727
MG Remaining discrepancy, due to discretization:         -0.174651 (  -0.01222%)
     Trial step:       0.521331239391
             Q1:  -11496.264986272785
 Quadratic coef:       0.000666823526
 Linear coef   :      -0.002323729391
           Qmin:  -11496.265353784955
Quadratic minimum step length (  0.908360815698) accepted
    Initial Ne1:    7192.00003992
      Final Ne1:    7192.00000000

=================== Penalty functional idempotency correction ==================
 RMS occupancy error at iteration   1:  0.000008 (step -0.4998 Ne1=   7192.0000)
            Final RMS occupancy error   :  0.000000 (Ne1=   7192.0000)
               Final occupancy bounds   : [ -0.0000,  1.0000]
================================================================================

    8        -1.149626332937E+04     1.0263E-05     9.2831E-06    -2.2054E-03
MG BCs: +ve charge blocks (gridpoints):     30905 (   17435636).
MG BCs: -ve charge blocks (gridpoints):      8294 (    1105821).
MG BCs:     Elided blocks (gridpoints):    169733 (  177755008).
MG BCs: Computational effort saved:  99.9800%.
MG BCs: Charge after coarse-graining:           -9.0009975.
MG DL_MG: Calling solver with defect correction order = 8
MG DL_MG: Solver finished
MG Hartree energy from (\int phi*rho dr):              1429.600663
MG Hartree energy from (\int eps (grad phi)^2 dr):     1428.957293
MG Discrepancy due to finite box and discretization:     -0.643370 (  -0.04500%)
MG Correction to account for finite box:                  0.468724
MG Remaining discrepancy, due to discretization:         -0.174646 (  -0.01222%)
      ideal mu1:      -0.813286319864
             Q0:  -11496.265352396993
             G0:      -0.004858585516
   RMS gradient:       0.000010723238
MG BCs: +ve charge blocks (gridpoints):     30904 (   17435471).
MG BCs: -ve charge blocks (gridpoints):      8294 (    1105915).
MG BCs:     Elided blocks (gridpoints):    169734 (  177755079).
MG BCs: Computational effort saved:  99.9800%.
MG BCs: Charge after coarse-graining:           -9.0009975.
MG DL_MG: Calling solver with defect correction order = 8
MG DL_MG: Solver finished
MG Hartree energy from (\int phi*rho dr):              1429.356293
MG Hartree energy from (\int eps (grad phi)^2 dr):     1428.712936
MG Discrepancy due to finite box and discretization:     -0.643357 (  -0.04501%)
MG Correction to account for finite box:                  0.468721
MG Remaining discrepancy, due to discretization:         -0.174636 (  -0.01222%)
     Trial step:       0.688154684546
             Q1:  -11496.267236076645
 Quadratic coef:       0.001459778732
 Linear coef   :      -0.003343458383
           Qmin:  -11496.267266850484
Quadratic minimum step length (  0.788070307625) accepted
    Initial Ne1:    7192.00006074
      Final Ne1:    7192.00000000

=================== Penalty functional idempotency correction ==================
 RMS occupancy error at iteration   1:  0.000025 (step -0.4992 Ne1=   7192.0000)
            Final RMS occupancy error   :  0.000000 (Ne1=   7192.0000)
               Final occupancy bounds   : [ -0.0000,  1.0000]
================================================================================

    9        -1.149626535240E+04     1.0723E-05     9.6989E-06    -2.0230E-03
MG BCs: +ve charge blocks (gridpoints):     30904 (   17435473).
MG BCs: -ve charge blocks (gridpoints):      8294 (    1105924).
MG BCs:     Elided blocks (gridpoints):    169734 (  177755068).
MG BCs: Computational effort saved:  99.9800%.
MG BCs: Charge after coarse-graining:           -9.0009975.
MG DL_MG: Calling solver with defect correction order = 8
MG DL_MG: Solver finished
MG Hartree energy from (\int phi*rho dr):              1429.320549
MG Hartree energy from (\int eps (grad phi)^2 dr):     1428.677194
MG Discrepancy due to finite box and discretization:     -0.643355 (  -0.04501%)
MG Correction to account for finite box:                  0.468720
MG Remaining discrepancy, due to discretization:         -0.174635 (  -0.01222%)
      ideal mu1:      -0.813090486916
   10        -1.149626726623E+04     9.5463E-06     8.6344E-06    -1.9138E-03
Finished density kernel iterations (  10)

Writing density kernel to file "host_30121.vacuum_dkn" ... done


>>> Density kernel optimised for the current NGWF basis:
     ~~~~~~~~~~~~~~~~~~~~~~~~~~~~~~~~~~~~~~~~~~~~~~~~~~~~~~~~~~~
     Total energy                =  -1.14962672662280E+04  Eh
     Estimated bandgap           =  -2.1917E-01  Eh
     RMS occupancy error         =   2.2255E-08
     [H,K] commutator            =   8.6344E-06
     Occupancy bounds            = [ -0.000:  1.000]
     ~~~~~~~~~~~~~~~~~~~~~~~~~~~~~~~~~~~~~~~~~~~~~~~~~~~~~~~~~~~




################################################################################
########################### NGWF CG iteration  001 #############################
################################################################################
****** Reciprocal space K.E. preconditioning with k_zero =  3.5000 a0^-1 *******

>>> Checking for convergence of NGWFs:   NOT CONVERGED
  ========================================================================
         NGWF RMS gradient =  1.6233E-03 >  2.0000E-06  | above tolerance
  ========================================================================

>>> Improving NGWFs using line search:
============ Calculation of NGWF S^-1 using Hotelling algorithm ================ 
         Iteration  |  Frobenius norm and Maximum abs value    (of I-S*S_n^-1)   
               1       0.23395249E+00     0.62198501E-02
               2       0.12694574E-02     0.52670194E-04
               3       0.62775076E-07     0.38893255E-08
               4       0.13070816E-12     0.58841820E-14
================================================================================
MG BCs: +ve charge blocks (gridpoints):     30439 (   17385088).
MG BCs: -ve charge blocks (gridpoints):      8309 (    1102715).
MG BCs:     Elided blocks (gridpoints):    170199 (  177808662).
MG BCs: Computational effort saved:  99.9803%.
MG BCs: Charge after coarse-graining:           -9.0009982.
MG DL_MG: Calling solver with defect correction order = 8
MG DL_MG: Solver finished
MG Hartree energy from (\int phi*rho dr):              1401.526142
MG Hartree energy from (\int eps (grad phi)^2 dr):     1400.884094
MG Discrepancy due to finite box and discretization:     -0.642048 (  -0.04581%)
MG Correction to account for finite box:                  0.468672
MG Remaining discrepancy, due to discretization:         -0.173376 (  -0.01237%)
============ Calculation of NGWF S^-1 using Hotelling algorithm ================ 
         Iteration  |  Frobenius norm and Maximum abs value    (of I-S*S_n^-1)   
               1       0.21704008E+01     0.47118503E-01
               2       0.97091496E-01     0.29308731E-02
               3       0.26979950E-03     0.12600367E-04
               4       0.35770590E-08     0.28267875E-09
               5       0.11501837E-12     0.59952043E-14
================================================================================
------------------------------- NGWF line search -------------------------------
RMS gradient                =       0.00162334956860
Trial step length           =               0.122474
Gradient along search dir.  =       -290.90544248935
Functional at step 0        =  -11496.26726622798014
Functional at step 1        =  -11529.14531096990686
Functional predicted        =  -11611.64743908073797
Selected quadratic step     =               0.793249
--------------------------- NGWF line search finished --------------------------
                                               
Writing NGWFs to file "host_30121.vacuum_tightbox_ngwfs"....  done

>>> Optimising kernel for current NGWFs:
   Initial electron number for spin 1:    7237.70305937
     Final electron number for spin 1:    7192.00000000

=================== Penalty functional idempotency correction ==================
 RMS occupancy error at iteration   1:  0.005202 (step -0.4829 Ne1=   7192.0000)
 RMS occupancy error at iteration   2:  0.000095 (step -0.5003 Ne1=   7192.0000)
            Final RMS occupancy error   :  0.000000 (Ne1=   7192.0000)
               Final occupancy bounds   : [  0.0000,  1.0000]
================================================================================

................................................................................
<<<<<<<<<<<<<< LNV (Original version) density kernel optimisation >>>>>>>>>>>>>>
~~~~~~~~~~~~~~~~~~~~~~~~~~~~~~~~~~~~~~~~~~~~~~~~~~~~~~~~~~~~~~~~~~~~~~~~~~~~~~~~
   iter  |      energy (Eh)       | rms gradient |  commutator  |   dE (Eh)
MG BCs: +ve charge blocks (gridpoints):     24989 (   17166722).
MG BCs: -ve charge blocks (gridpoints):      8426 (    1072690).
MG BCs:     Elided blocks (gridpoints):    175651 (  178057053).
MG BCs: Computational effort saved:  99.9830%.
MG BCs: Charge after coarse-graining:           -9.0007271.
MG DL_MG: Calling solver with defect correction order = 8
MG DL_MG: Solver finished
MG Hartree energy from (\int phi*rho dr):              1271.377209
MG Hartree energy from (\int eps (grad phi)^2 dr):     1270.737700
MG Discrepancy due to finite box and discretization:     -0.639509 (  -0.05030%)
MG Correction to account for finite box:                  0.468452
MG Remaining discrepancy, due to discretization:         -0.171057 (  -0.01345%)
      ideal mu1:      -0.755146075892
             Q0:  -11611.007670819061
             G0:      -9.624581264431
   RMS gradient:       0.000476917898
MG BCs: +ve charge blocks (gridpoints):     25044 (   17180062).
MG BCs: -ve charge blocks (gridpoints):      8411 (    1069321).
MG BCs:     Elided blocks (gridpoints):    175596 (  178047082).
MG BCs: Computational effort saved:  99.9830%.
MG BCs: Charge after coarse-graining:           -9.0007235.
MG DL_MG: Calling solver with defect correction order = 8
MG DL_MG: Solver finished
MG Hartree energy from (\int phi*rho dr):              1284.842703
MG Hartree energy from (\int eps (grad phi)^2 dr):     1284.198533
MG Discrepancy due to finite box and discretization:     -0.644169 (  -0.05014%)
MG Correction to account for finite box:                  0.468034
MG Remaining discrepancy, due to discretization:         -0.176135 (  -0.01371%)
     Trial step:       0.736419903278
             Q1:  -11610.210074195056
 Quadratic coef:       7.885329827846
 Linear coef   :      -7.087733203841
           Qmin:  -11612.600374075158
Quadratic minimum step length (  0.330965724604) accepted
    Initial Ne1:    7191.99906780
      Final Ne1:    7192.00000000

=================== Penalty functional idempotency correction ==================
 RMS occupancy error at iteration   1:  0.000353 (step -0.4986 Ne1=   7192.0000)
 RMS occupancy error at iteration   2:  0.000000 (step -0.5000 Ne1=   7192.0000)
            Final RMS occupancy error   :  0.000000 (Ne1=   7192.0000)
               Final occupancy bounds   : [  0.0000,  1.0000]
================================================================================

    1        -1.161100767082E+04     4.7692E-04     4.3136E-04
MG BCs: +ve charge blocks (gridpoints):     25014 (   17172873).
MG BCs: -ve charge blocks (gridpoints):      8421 (    1071154).
MG BCs:     Elided blocks (gridpoints):    175626 (  178052438).
MG BCs: Computational effort saved:  99.9830%.
MG BCs: Charge after coarse-graining:           -9.0007254.
MG DL_MG: Calling solver with defect correction order = 8
MG DL_MG: Solver finished
MG Hartree energy from (\int phi*rho dr):              1276.415696
MG Hartree energy from (\int eps (grad phi)^2 dr):     1275.774190
MG Discrepancy due to finite box and discretization:     -0.641505 (  -0.05026%)
MG Correction to account for finite box:                  0.468244
MG Remaining discrepancy, due to discretization:         -0.173262 (  -0.01357%)
      ideal mu1:      -0.760770693069
             Q0:  -11612.580836161855
             G0:      -0.864060945388
   RMS gradient:       0.000143371288
MG BCs: +ve charge blocks (gridpoints):     25018 (   17172639).
MG BCs: -ve charge blocks (gridpoints):      8425 (    1071811).
MG BCs:     Elided blocks (gridpoints):    175622 (  178052015).
MG BCs: Computational effort saved:  99.9830%.
MG BCs: Charge after coarse-graining:           -9.0007253.
MG DL_MG: Calling solver with defect correction order = 8
MG DL_MG: Solver finished
MG Hartree energy from (\int phi*rho dr):              1276.968960
MG Hartree energy from (\int eps (grad phi)^2 dr):     1276.327235
MG Discrepancy due to finite box and discretization:     -0.641725 (  -0.05025%)
MG Correction to account for finite box:                  0.468209
MG Remaining discrepancy, due to discretization:         -0.173516 (  -0.01359%)
     Trial step:       0.493689929917
             Q1:  -11612.778006352950
 Quadratic coef:       0.229407996478
 Linear coef   :      -0.426578187572
           Qmin:  -11612.779138916016
Quadratic minimum step length (  0.459001775788) accepted
    Initial Ne1:    7191.99988315
      Final Ne1:    7192.00000000

=================== Penalty functional idempotency correction ==================
 RMS occupancy error at iteration   1:  0.000135 (step -0.4995 Ne1=   7192.0000)
            Final RMS occupancy error   :  0.000000 (Ne1=   7192.0000)
               Final occupancy bounds   : [ -0.0000,  1.0000]
================================================================================

    2        -1.161258083616E+04     1.4337E-04     1.2968E-04    -1.5732E+00
MG BCs: +ve charge blocks (gridpoints):     25018 (   17172657).
MG BCs: -ve charge blocks (gridpoints):      8425 (    1071762).
MG BCs:     Elided blocks (gridpoints):    175622 (  178052046).
MG BCs: Computational effort saved:  99.9830%.
MG BCs: Charge after coarse-graining:           -9.0007253.
MG DL_MG: Calling solver with defect correction order = 8
MG DL_MG: Solver finished
MG Hartree energy from (\int phi*rho dr):              1276.930561
MG Hartree energy from (\int eps (grad phi)^2 dr):     1276.288851
MG Discrepancy due to finite box and discretization:     -0.641709 (  -0.05025%)
MG Correction to account for finite box:                  0.468211
MG Remaining discrepancy, due to discretization:         -0.173498 (  -0.01359%)
      ideal mu1:      -0.761445486773
             Q0:  -11612.779511837405
             G0:      -0.170472484590
   RMS gradient:       0.000063409078
MG BCs: +ve charge blocks (gridpoints):     25015 (   17172050).
MG BCs: -ve charge blocks (gridpoints):      8423 (    1072161).
MG BCs:     Elided blocks (gridpoints):    175625 (  178052254).
MG BCs: Computational effort saved:  99.9830%.
MG BCs: Charge after coarse-graining:           -9.0007252.
MG DL_MG: Calling solver with defect correction order = 8
MG DL_MG: Solver finished
MG Hartree energy from (\int phi*rho dr):              1276.364991
MG Hartree energy from (\int eps (grad phi)^2 dr):     1275.723388
MG Discrepancy due to finite box and discretization:     -0.641603 (  -0.05027%)
MG Correction to account for finite box:                  0.468189
MG Remaining discrepancy, due to discretization:         -0.173413 (  -0.01359%)
     Trial step:       0.476029993299
             Q1:  -11612.829246332054
 Quadratic coef:       0.031415521049
 Linear coef   :      -0.081150015697
           Qmin:  -11612.831916865460
Quadratic minimum step length (  0.614820956947) accepted
    Initial Ne1:    7192.00052753
      Final Ne1:    7192.00000000

=================== Penalty functional idempotency correction ==================
 RMS occupancy error at iteration   1:  0.000069 (step -0.4997 Ne1=   7192.0000)
            Final RMS occupancy error   :  0.000000 (Ne1=   7192.0000)
               Final occupancy bounds   : [ -0.0000,  1.0000]
================================================================================

    3        -1.161277951184E+04     6.3409E-05     5.7352E-05    -1.9868E-01
MG BCs: +ve charge blocks (gridpoints):     25015 (   17171834).
MG BCs: -ve charge blocks (gridpoints):      8424 (    1072292).
MG BCs:     Elided blocks (gridpoints):    175625 (  178052339).
MG BCs: Computational effort saved:  99.9830%.
MG BCs: Charge after coarse-graining:           -9.0007253.
MG DL_MG: Calling solver with defect correction order = 8
MG DL_MG: Solver finished
MG Hartree energy from (\int phi*rho dr):              1276.199691
MG Hartree energy from (\int eps (grad phi)^2 dr):     1275.558119
MG Discrepancy due to finite box and discretization:     -0.641573 (  -0.05027%)
MG Correction to account for finite box:                  0.468183
MG Remaining discrepancy, due to discretization:         -0.173389 (  -0.01359%)
      ideal mu1:      -0.760556559374
             Q0:  -11612.832017982961
             G0:      -0.032339506522
   RMS gradient:       0.000027602176
MG BCs: +ve charge blocks (gridpoints):     25015 (   17171500).
MG BCs: -ve charge blocks (gridpoints):      8423 (    1072373).
MG BCs:     Elided blocks (gridpoints):    175625 (  178052592).
MG BCs: Computational effort saved:  99.9830%.
MG BCs: Charge after coarse-graining:           -9.0007254.
MG DL_MG: Calling solver with defect correction order = 8
MG DL_MG: Solver finished
MG Hartree energy from (\int phi*rho dr):              1276.217504
MG Hartree energy from (\int eps (grad phi)^2 dr):     1275.576013
MG Discrepancy due to finite box and discretization:     -0.641490 (  -0.05026%)
MG Correction to account for finite box:                  0.468185
MG Remaining discrepancy, due to discretization:         -0.173305 (  -0.01358%)
     Trial step:       0.540992805882
             Q1:  -11612.840655453037
 Quadratic coef:       0.008857970297
 Linear coef   :      -0.017495440374
           Qmin:  -11612.840656825258
Quadratic minimum step length (  0.534259376633) accepted
    Initial Ne1:    7192.00023665
      Final Ne1:    7192.00000000

=================== Penalty functional idempotency correction ==================
 RMS occupancy error at iteration   1:  0.000018 (step -0.4999 Ne1=   7192.0000)
            Final RMS occupancy error   :  0.000000 (Ne1=   7192.0000)
               Final occupancy bounds   : [ -0.0000,  1.0000]
================================================================================

    4        -1.161283201798E+04     2.7602E-05     2.4966E-05    -5.2506E-02
MG BCs: +ve charge blocks (gridpoints):     25015 (   17171504).
MG BCs: -ve charge blocks (gridpoints):      8423 (    1072371).
MG BCs:     Elided blocks (gridpoints):    175625 (  178052590).
MG BCs: Computational effort saved:  99.9830%.
MG BCs: Charge after coarse-graining:           -9.0007254.
MG DL_MG: Calling solver with defect correction order = 8
MG DL_MG: Solver finished
MG Hartree energy from (\int phi*rho dr):              1276.217274
MG Hartree energy from (\int eps (grad phi)^2 dr):     1275.575783
MG Discrepancy due to finite box and discretization:     -0.641491 (  -0.05027%)
MG Correction to account for finite box:                  0.468185
MG Remaining discrepancy, due to discretization:         -0.173307 (  -0.01358%)
      ideal mu1:      -0.760568161790
             Q0:  -11612.840661403607
             G0:      -0.009493211621
   RMS gradient:       0.000014975444
MG BCs: +ve charge blocks (gridpoints):     25015 (   17171885).
MG BCs: -ve charge blocks (gridpoints):      8423 (    1072255).
MG BCs:     Elided blocks (gridpoints):    175625 (  178052325).
MG BCs: Computational effort saved:  99.9830%.
MG BCs: Charge after coarse-graining:           -9.0007253.
MG DL_MG: Calling solver with defect correction order = 8
MG DL_MG: Solver finished
MG Hartree energy from (\int phi*rho dr):              1276.546696
MG Hartree energy from (\int eps (grad phi)^2 dr):     1275.905227
MG Discrepancy due to finite box and discretization:     -0.641469 (  -0.05025%)
MG Correction to account for finite box:                  0.468177
MG Remaining discrepancy, due to discretization:         -0.173292 (  -0.01358%)
     Trial step:       0.537615549657
             Q1:  -11612.843044393463
 Quadratic coef:       0.002720708328
 Linear coef   :      -0.005103698184
           Qmin:  -11612.843054873616
Quadratic minimum step length (  0.504248742235) accepted
    Initial Ne1:    7192.00007728
      Final Ne1:    7192.00000000

=================== Penalty functional idempotency correction ==================
 RMS occupancy error at iteration   1:  0.000007 (step -0.5000 Ne1=   7192.0000)
            Final RMS occupancy error   :  0.000000 (Ne1=   7192.0000)
               Final occupancy bounds   : [ -0.0000,  1.0000]
================================================================================

    5        -1.161284066140E+04     1.4975E-05     1.3545E-05    -8.6434E-03
MG BCs: +ve charge blocks (gridpoints):     25015 (   17171870).
MG BCs: -ve charge blocks (gridpoints):      8423 (    1072256).
MG BCs:     Elided blocks (gridpoints):    175625 (  178052339).
MG BCs: Computational effort saved:  99.9830%.
MG BCs: Charge after coarse-graining:           -9.0007253.
MG DL_MG: Calling solver with defect correction order = 8
MG DL_MG: Solver finished
MG Hartree energy from (\int phi*rho dr):              1276.526221
MG Hartree energy from (\int eps (grad phi)^2 dr):     1275.884751
MG Discrepancy due to finite box and discretization:     -0.641470 (  -0.05025%)
MG Correction to account for finite box:                  0.468178
MG Remaining discrepancy, due to discretization:         -0.173293 (  -0.01358%)
      ideal mu1:      -0.760830693344
             Q0:  -11612.843055411824
             G0:      -0.002135287357
   RMS gradient:       0.000007102242
MG BCs: +ve charge blocks (gridpoints):     25016 (   17171856).
MG BCs: -ve charge blocks (gridpoints):      8423 (    1072296).
MG BCs:     Elided blocks (gridpoints):    175624 (  178052313).
MG BCs: Computational effort saved:  99.9830%.
MG BCs: Charge after coarse-graining:           -9.0007253.
MG DL_MG: Calling solver with defect correction order = 8
MG DL_MG: Solver finished
MG Hartree energy from (\int phi*rho dr):              1276.483369
MG Hartree energy from (\int eps (grad phi)^2 dr):     1275.841902
MG Discrepancy due to finite box and discretization:     -0.641466 (  -0.05025%)
MG Correction to account for finite box:                  0.468177
MG Remaining discrepancy, due to discretization:         -0.173289 (  -0.01358%)
     Trial step:       0.520664925572
             Q1:  -11612.843672283459
 Quadratic coef:       0.000494897597
 Linear coef   :      -0.001111769233
           Qmin:  -11612.843679798987
Quadratic minimum step length (  0.584827294399) accepted
    Initial Ne1:    7192.00002264
      Final Ne1:    7192.00000000

=================== Penalty functional idempotency correction ==================
 RMS occupancy error at iteration   1:  0.000002 (step -0.5000 Ne1=   7192.0000)
            Final RMS occupancy error   :  0.000000 (Ne1=   7192.0000)
               Final occupancy bounds   : [  0.0000,  1.0000]
================================================================================

    6        -1.161284305541E+04     7.1022E-06     6.4238E-06    -2.3940E-03
MG BCs: +ve charge blocks (gridpoints):     25016 (   17171847).
MG BCs: -ve charge blocks (gridpoints):      8423 (    1072302).
MG BCs:     Elided blocks (gridpoints):    175624 (  178052316).
MG BCs: Computational effort saved:  99.9830%.
MG BCs: Charge after coarse-graining:           -9.0007253.
MG DL_MG: Calling solver with defect correction order = 8
MG DL_MG: Solver finished
MG Hartree energy from (\int phi*rho dr):              1276.478092
MG Hartree energy from (\int eps (grad phi)^2 dr):     1275.836627
MG Discrepancy due to finite box and discretization:     -0.641466 (  -0.05025%)
MG Correction to account for finite box:                  0.468177
MG Remaining discrepancy, due to discretization:         -0.173288 (  -0.01358%)
      ideal mu1:      -0.760772495643
             Q0:  -11612.843679857091
             G0:      -0.000654383191
   RMS gradient:       0.000003932500
MG BCs: +ve charge blocks (gridpoints):     25014 (   17171718).
MG BCs: -ve charge blocks (gridpoints):      8423 (    1072332).
MG BCs:     Elided blocks (gridpoints):    175626 (  178052415).
MG BCs: Computational effort saved:  99.9830%.
MG BCs: Charge after coarse-graining:           -9.0007253.
MG DL_MG: Calling solver with defect correction order = 8
MG DL_MG: Solver finished
MG Hartree energy from (\int phi*rho dr):              1276.427005
MG Hartree energy from (\int eps (grad phi)^2 dr):     1275.785538
MG Discrepancy due to finite box and discretization:     -0.641467 (  -0.05025%)
MG Correction to account for finite box:                  0.468178
MG Remaining discrepancy, due to discretization:         -0.173289 (  -0.01358%)
     Trial step:       0.551814334456
             Q1:  -11612.843825943419
 Quadratic coef:       0.000215011698
 Linear coef   :      -0.000361098025
           Qmin:  -11612.843831467195
Quadratic minimum step length (  0.463367966194) accepted
    Initial Ne1:    7191.99999952
      Final Ne1:    7192.00000000

=================== Penalty functional idempotency correction ==================
 RMS occupancy error at iteration   1:  0.000000 (step -0.5000 Ne1=   7192.0000)
            Final RMS occupancy error   :  0.000000 (Ne1=   7192.0000)
               Final occupancy bounds   : [  0.0000,  1.0000]
================================================================================

    7        -1.161284367986E+04     3.9325E-06     3.5569E-06    -6.2445E-04
MG BCs: +ve charge blocks (gridpoints):     25014 (   17171728).
MG BCs: -ve charge blocks (gridpoints):      8423 (    1072331).
MG BCs:     Elided blocks (gridpoints):    175626 (  178052406).
MG BCs: Computational effort saved:  99.9830%.
MG BCs: Charge after coarse-graining:           -9.0007253.
MG DL_MG: Calling solver with defect correction order = 8
MG DL_MG: Solver finished
MG Hartree energy from (\int phi*rho dr):              1276.435187
MG Hartree energy from (\int eps (grad phi)^2 dr):     1275.793719
MG Discrepancy due to finite box and discretization:     -0.641467 (  -0.05025%)
MG Correction to account for finite box:                  0.468178
MG Remaining discrepancy, due to discretization:         -0.173289 (  -0.01358%)
      ideal mu1:      -0.760730332563
             Q0:  -11612.843831464881
             G0:      -0.000301877340
   RMS gradient:       0.000002670910
MG BCs: +ve charge blocks (gridpoints):     25015 (   17171731).
MG BCs: -ve charge blocks (gridpoints):      8423 (    1072329).
MG BCs:     Elided blocks (gridpoints):    175625 (  178052405).
MG BCs: Computational effort saved:  99.9830%.
MG BCs: Charge after coarse-graining:           -9.0007253.
MG DL_MG: Calling solver with defect correction order = 8
MG DL_MG: Solver finished
MG Hartree energy from (\int phi*rho dr):              1276.419120
MG Hartree energy from (\int eps (grad phi)^2 dr):     1275.777653
MG Discrepancy due to finite box and discretization:     -0.641468 (  -0.05026%)
MG Correction to account for finite box:                  0.468179
MG Remaining discrepancy, due to discretization:         -0.173289 (  -0.01358%)
     Trial step:       0.505661038516
             Q1:  -11612.843938193633
 Quadratic coef:       0.000045918858
 Linear coef   :      -0.000152647609
           Qmin:  -11612.843958326119
Quadratic minimum step length (  0.840482020796) accepted
    Initial Ne1:    7191.99999960
      Final Ne1:    7192.00000000

=================== Penalty functional idempotency correction ==================
 RMS occupancy error at iteration   1:  0.000001 (step -0.5000 Ne1=   7192.0000)
            Final RMS occupancy error   :  0.000000 (Ne1=   7192.0000)
               Final occupancy bounds   : [  0.0000,  1.0000]
================================================================================

    8        -1.161284383146E+04     2.6709E-06     2.4158E-06    -1.5161E-04
MG BCs: +ve charge blocks (gridpoints):     25015 (   17171720).
MG BCs: -ve charge blocks (gridpoints):      8423 (    1072339).
MG BCs:     Elided blocks (gridpoints):    175625 (  178052406).
MG BCs: Computational effort saved:  99.9830%.
MG BCs: Charge after coarse-graining:           -9.0007253.
MG DL_MG: Calling solver with defect correction order = 8
MG DL_MG: Solver finished
[...]
 RMS occupancy error at iteration   1:  0.000000 (step -0.5000 Ne1=   7192.0000)
            Final RMS occupancy error   :  0.000000 (Ne1=   7192.0000)
               Final occupancy bounds   : [ -0.0000,  1.0000]
================================================================================

    7        -1.164826783006E+04     8.3485E-09     7.5510E-09    -5.8208E-10

Reusing previously generated solute cavity.
MG BCs: +ve charge blocks (gridpoints):     29128 (   19294878).
MG BCs: -ve charge blocks (gridpoints):      8416 (    1049605).
MG BCs:     Elided blocks (gridpoints):    171512 (  175951982).
MG BCs: Computational effort saved:  99.9809%.
MG BCs: Charge after coarse-graining:           -9.0009772.
MG DL_MG: Calling solver with defect correction order = 8
MG DL_MG: Solver finished
MG Hartree energy from (\int phi*rho dr):              1228.425905
MG Hartree energy from (\int eps (grad phi)^2 dr):     1228.246884
MG Discrepancy due to finite box and discretization:     -0.179021 (  -0.01457%)
MG Correction to account for finite box:                  0.006384
MG Remaining discrepancy, due to discretization:         -0.172637 (  -0.01405%)
      ideal mu1:      -0.513742269148
             Q0:  -11648.267830060329
             G0:      -0.000000003373
   RMS gradient:       0.000000006679

Reusing previously generated solute cavity.
MG BCs: +ve charge blocks (gridpoints):     29128 (   19294878).
MG BCs: -ve charge blocks (gridpoints):      8416 (    1049606).
MG BCs:     Elided blocks (gridpoints):    171512 (  175951981).
MG BCs: Computational effort saved:  99.9809%.
MG BCs: Charge after coarse-graining:           -9.0009772.
MG DL_MG: Calling solver with defect correction order = 8
MG DL_MG: Solver finished
MG Hartree energy from (\int phi*rho dr):              1228.425910
MG Hartree energy from (\int eps (grad phi)^2 dr):     1228.246889
MG Discrepancy due to finite box and discretization:     -0.179021 (  -0.01457%)
MG Correction to account for finite box:                  0.006384
MG Remaining discrepancy, due to discretization:         -0.172637 (  -0.01405%)
     Trial step:       0.233978401751
             Q1:  -11648.267830060213
 Quadratic coef:       0.000000000906
 Linear coef   :      -0.000000000789
           Qmin:  -11648.267830060502
Quadratic minimum step length (  0.101929439716) accepted
    Initial Ne1:    7192.00000000
      Final Ne1:    7192.00000000

=================== Penalty functional idempotency correction ==================
 RMS occupancy error at iteration   1:  0.000000 (step -0.5000 Ne1=   7192.0000)
            Final RMS occupancy error   :  0.000000 (Ne1=   7192.0000)
               Final occupancy bounds   : [ -0.0000,  1.0000]
================================================================================

    8        -1.164826783006E+04     6.6786E-09     6.0406E-09     2.3283E-10

Reusing previously generated solute cavity.
MG BCs: +ve charge blocks (gridpoints):     29128 (   19294878).
MG BCs: -ve charge blocks (gridpoints):      8416 (    1049605).
MG BCs:     Elided blocks (gridpoints):    171512 (  175951982).
MG BCs: Computational effort saved:  99.9809%.
MG BCs: Charge after coarse-graining:           -9.0009772.
MG DL_MG: Calling solver with defect correction order = 8
MG DL_MG: Solver finished
MG Hartree energy from (\int phi*rho dr):              1228.425907
MG Hartree energy from (\int eps (grad phi)^2 dr):     1228.246886
MG Discrepancy due to finite box and discretization:     -0.179021 (  -0.01457%)
MG Correction to account for finite box:                  0.006384
MG Remaining discrepancy, due to discretization:         -0.172637 (  -0.01405%)
      ideal mu1:      -0.513742267439
             Q0:  -11648.267830060329
             G0:      -0.000000002840
   RMS gradient:       0.000000005327

Reusing previously generated solute cavity.
MG BCs: +ve charge blocks (gridpoints):     29128 (   19294878).
MG BCs: -ve charge blocks (gridpoints):      8416 (    1049606).
MG BCs:     Elided blocks (gridpoints):    171512 (  175951981).
MG BCs: Computational effort saved:  99.9809%.
MG BCs: Charge after coarse-graining:           -9.0009772.
MG DL_MG: Calling solver with defect correction order = 8
MG DL_MG: Solver finished
MG Hartree energy from (\int phi*rho dr):              1228.425909
MG Hartree energy from (\int eps (grad phi)^2 dr):     1228.246888
MG Discrepancy due to finite box and discretization:     -0.179021 (  -0.01457%)
MG Correction to account for finite box:                  0.006384
MG Remaining discrepancy, due to discretization:         -0.172637 (  -0.01405%)
     Trial step:       0.154432144957
             Q1:  -11648.267830060096
 Quadratic coef:       0.000000000671
 Linear coef   :      -0.000000000439
           Qmin:  -11648.267830060400
Quadratic minimum step length (  0.050455144349) accepted
    Initial Ne1:    7192.00000000
      Final Ne1:    7192.00000000

=================== Penalty functional idempotency correction ==================
 RMS occupancy error at iteration   1:  0.000000 (step -0.5000 Ne1=   7192.0000)
            Final RMS occupancy error   :  0.000000 (Ne1=   7192.0000)
               Final occupancy bounds   : [ -0.0000,  1.0000]
================================================================================

    9        -1.164826783006E+04     5.3271E-09     4.8182E-09     0.0000E+00

Reusing previously generated solute cavity.
MG BCs: +ve charge blocks (gridpoints):     29128 (   19294878).
MG BCs: -ve charge blocks (gridpoints):      8416 (    1049605).
MG BCs:     Elided blocks (gridpoints):    171512 (  175951982).
MG BCs: Computational effort saved:  99.9809%.
MG BCs: Charge after coarse-graining:           -9.0009772.
MG DL_MG: Calling solver with defect correction order = 8
MG DL_MG: Solver finished
MG Hartree energy from (\int phi*rho dr):              1228.425908
MG Hartree energy from (\int eps (grad phi)^2 dr):     1228.246887
MG Discrepancy due to finite box and discretization:     -0.179021 (  -0.01457%)
MG Correction to account for finite box:                  0.006384
MG Remaining discrepancy, due to discretization:         -0.172637 (  -0.01405%)
      ideal mu1:      -0.513742266075
   10        -1.164826783006E+04     4.7415E-09     4.2886E-09     1.1642E-10
Finished density kernel iterations (  10)

Writing density kernel to file "host_30121.dkn" ... done


>>> Density kernel optimised for the current NGWF basis:
     ~~~~~~~~~~~~~~~~~~~~~~~~~~~~~~~~~~~~~~~~~~~~~~~~~~~~~~~~~~~
     Total energy                =  -1.16482678300602E+04  Eh
     Estimated bandgap           =   1.2140E-01  Eh
     RMS occupancy error         =   8.3032E-16
     [H,K] commutator            =   4.2886E-09
     Occupancy bounds            = [ -0.000:  1.000]
     ~~~~~~~~~~~~~~~~~~~~~~~~~~~~~~~~~~~~~~~~~~~~~~~~~~~~~~~~~~~




################################################################################
########################### NGWF CG iteration  005 #############################
################################################################################
****** Reciprocal space K.E. preconditioning with k_zero =  3.5000 a0^-1 *******

>>> Checking for convergence of NGWFs: 
           ........................................................
           |         *** NGWF optimisation converged ***          |
           | RMS NGWF gradient =    0.00000100439801              |
           | Criteria satisfied:                                  |
           | -> RMS NGWF gradient lower than set threshold.       |
           ========================================================

Reusing previously generated solute cavity.
MG BCs: +ve charge blocks (gridpoints):     29128 (   19294878).
MG BCs: -ve charge blocks (gridpoints):      8416 (    1049605).
MG BCs:     Elided blocks (gridpoints):    171512 (  175951982).
MG BCs: Computational effort saved:  99.9809%.
MG BCs: Charge after coarse-graining:           -9.0009772.
MG DL_MG: Calling solver with defect correction order = 8
MG DL_MG: Solver finished
MG Hartree energy from (\int phi*rho dr):              1228.425908
MG Hartree energy from (\int eps (grad phi)^2 dr):     1228.246887
MG Discrepancy due to finite box and discretization:     -0.179021 (  -0.01457%)
MG Correction to account for finite box:                  0.006384
MG Remaining discrepancy, due to discretization:         -0.172637 (  -0.01405%)

================================================================================
           ---------------- ENERGY COMPONENTS (Eh) ----------------
           | Kinetic                    :     8412.05595964089662 |
           | Pseudo. (local,OBC,corr'd) :    -4991.72967913536013 |
           | Pseudopotential (non-local):     1446.18817429926730 |
           | Hartree (molecular)        :     1228.42590764418537 |
           | Exchange-correlation       :    -3334.74768408025966 |
           | Ion-ion (open BC)          :   826890.37684669718146 |
           | Smeared ion non-self corr. :  -826842.30689115368295 |
           | Smeared ion self corr.     :   -14457.16956389741972 |
           | Solvent cavitation energy  :        2.27377007888261 |
           | Solute-solvent dis-rep en. :       -1.63467015396068 |
           | Total                      :   -11648.26783006023288 |
           --------------------------------------------------------
           ------ LOCAL ENERGY COMPONENTS FROM MATRIX TRACES ------
           | Pseudopotential (local)    :    -4991.72967913536013 |
           | Hartree                    :    -1984.03201383415967 |
           --------------------------------------------------------
           Integrated density           :     7191.99999999808824
           Integrated density tr(KS)    :     7191.99999999999909
================================================================================


                        <<<<< CALCULATION SUMMARY >>>>>                         
|ITER|    RMS GRADIENT   |     TOTAL ENERGY    |   step   |     Epredicted              
   0     0.00003666172202 -11648.22252398030832   0.525649 -11648.26151994952306        
   1     0.00001234274950 -11648.26668588991743   0.114697 -11648.26765032993171        
   2     0.00000533221292 -11648.26779319671914   0.019886 -11648.26782440362877        
   3     0.00000233003099 -11648.26782870967872   0.003855 -11648.26782986486978        
   4     0.00000100439801 -11648.26783006021287  <-- CG                                 

=================== Finished the calculation in solvent ========================
= Adjusting the following parameters: 
= read_denskern: F
= read_tightbox_ngwfs: F
= maxit_pen: 0 (restored to user-specified value)
= restart read filename prefix: ""
= restart write filename prefix: ""
================================================================================

================================================================================
IS: Calculation in solvent completed (NGWFs converged).      

Individual components of total energy in solvent:     hartree           kcal/mol
- Usual non-electrostatic DFT terms:    -12877.33283762931933    -8080648.180966
- Electrostatic fixed charge energy:      1228.42590764418537      770848.878508
- Apolar cavitation energy:                  2.27377007888261        1426.812235
- Apolar dispersion-repulsion energy:       -1.63467015396068       -1025.770986
 -------------------------------------------------------------------------------
- Total energy in solvent:              -11648.26783006021287    -7309398.261209

Components of total energy in solvent:                hartree           kcal/mol
- Usual non-electrostatic DFT terms:    -12877.33283762931933    -8080648.180966
- Electrostatic energy:                   1228.42590764418537      770848.878508
- Apolar energy terms:                       0.63909992492193         401.041249
 -------------------------------------------------------------------------------
- Total energy in solvent:              -11648.26783006021287    -7309398.261209

Calculation of free energy of solvation:              hartree           kcal/mol
- Total energy in solvent:         (+)  -11648.26783006021287    -7309398.261209
- Total energy in vacuum:          (-)  -11644.43610414420255    -7306993.816947
 -------------------------------------------------------------------------------
- Total free energy of solvation:           -3.83172591601033       -2404.444262

Components of polar term in f.e. of solvation:        hartree           kcal/mol
- Electrostatic:                            -4.83761822871543       -3035.651205
- Change in nonelectrostatic DFT terms:      0.36679238778379         230.165693
 -------------------------------------------------------------------------------
- Polar term in f.e. of solvation:          -4.47082584093164       -2805.485511

Components of free energy of solvation:               hartree           kcal/mol
- Polar term in f.e. of solvation: (+)      -4.47082584093164       -2805.485511
- Apolar (cavitation, dis., rep.): (+)       0.63909992492193         401.041249
 -------------------------------------------------------------------------------
- Total free energy of solvation:           -3.83172591600971       -2404.444262
================================================================================


------------------------------ TIMING INFORMATION ------------------------------
AVERAGE TIME:   87670.584s on     40 node(s)                                    
TOTAL TIME:     87670.585s on     40 node(s)                                    
================= AVERAGE TIMINGS FROM ALL NODES (CUMULATIVE) ==================
|| TAG                                    #calls    cpu time   %total  Gflops ||
|| work_imbalance                       :     1        0.00s   0.000%  ------ ||
|| parallel_prepare_fd_halos_request    :  2559        0.02s   0.000%  ------ ||
|| sparse_set_to_garbage                :   281        0.07s   0.000%  ------ ||
|| parallel_prepare_fd_halos_satisfy    :  2559        0.08s   0.000%  ------ ||
|| parallel_prepare_fd_halos_alloc      :  2559        0.08s   0.000%  ------ ||
|| ngwfs_initialise_from_radial         :     1        0.17s   0.000%  ------ ||
|| basis_extract_function_from_box      :  6992        0.24s   0.000%  ------ ||
|| restart_ngwfs_tightbox_input         :     1        1.22s   0.001%  ------ ||
|| pseudopotentials_nonlocal_mat        :    41        1.48s   0.002%  ------ ||
|| density_init_guess_real              :     1        3.23s   0.004%  ------ ||
|| parallel_prepare_fd_halos_comms_imbal:  2559        4.23s   0.005%  ------ ||
|| restart_kernel_read                  :     1        4.23s   0.005%  ------ ||
|| openbc_locps_radial                  :     1        4.65s   0.005%  ------ ||
|| parallel_prepare_fd_halos_clear      :  2559       18.28s   0.021%  ------ ||
|| sparse_init                          :     2       22.64s   0.026%  ------ ||
|| restart_kernel_write                 :    22       23.80s   0.027%  ------ ||
|| parallel_prepare_fd_halos_comms_wait :  2559       32.48s   0.037%  ------ ||
|| projectors_func_ovlp_box             :    41       32.62s   0.037%  ------ ||
|| projectors_init_fftbox_recip         :   272       36.78s   0.042%  ------ ||
|| function_ops_brappd_ketppd           :    41       37.65s   0.043%  ------ ||
|| palser_mano_kernel_optimise          :     1       41.68s   0.048%  ------ ||
|| parallel_prepare_fd_halos            :  2559       55.19s   0.063%  ------ ||
|| pseudo_make_structure_factor         :     2       55.42s   0.063%  ------ ||
|| ngwf_gradient_coeffs                 :    21       83.38s   0.095%  ------ ||
|| sparse_embed_hotelling_invert_embed  :    41      117.11s   0.134%  ------ ||
|| restart_ngwfs_tightbox_output        :    19      131.35s   0.150%  ------ ||
|| finite_difference_derivative         :  2559      140.30s   0.160%  ------ ||
|| basis_copy_function_to_box           : 218.1k     155.85s   0.178%  ------ ||
|| openbc_locps_on_grid                 :     2      189.30s   0.216%  ------ ||
|| integrals_kinetic                    :    41      240.55s   0.274%  ------ ||
|| projectors_gradient_batch            :   231      292.01s   0.333%  ------ ||
|| sparse_trace                         :  6176      312.24s   0.356%  ------ ||
|| fourier_apply_box_pair               : 61469      426.98s   0.487% 591.811 ||
|| kernel_purify                        :   651      464.84s   0.530%  ------ ||
|| basis_dot_function_with_box          : 24.98M     471.48s   0.538%  ------ ||
|| kernel_fix                           :   210      659.04s   0.752%  ------ ||
|| lnv_gradient_norm                    :   210      740.10s   0.844%  ------ ||
|| hamiltonian_energy_components        :     5      916.80s   1.046%  ------ ||
|| integrals_locpot_mat_els_batch       :  2431     1183.86s   1.350%  ------ ||
|| basis_add_function_to_box            : 66.85M    1261.46s   1.439%  ------ ||
|| ke_density_batch_grad_apply          :  4675     1414.75s   1.614%  ------ ||
|| density_batch_row_sums               :  4675     1627.12s   1.856%  ------ ||
|| ke_density_batch_row_sums            :  4675     1627.62s   1.857%  ------ ||
|| fourier_apply_cell_backward          : 11482     1835.65s   2.094%  86.399 ||
|| density_fftbox_deposit_to_cell       : 69275     1939.01s   2.212%  ------ ||
|| ke_density_fftbox_deposit_to_cell    : 69275     2076.22s   2.368%  ------ ||
|| fourier_apply_cell_forward           : 11480     2177.00s   2.483%  72.839 ||
|| cell_grid_deposit_box_real           : 141.2k    2336.24s   2.665%  ------ ||
|| sparse_product                       :  8253     2678.84s   3.056%  ------ ||
|| cell_grid_extract_box_real           : 173.7k    2708.56s   3.089%  ------ ||
|| multigrid_prepare_bound_cond         :   426     3274.18s   3.735%  ------ ||
|| ngwf_gradient_build_batch            :   231     3312.49s   3.778%  ------ ||
|| ngwf_gradient_batch                  :   231     3709.13s   4.231%  ------ ||
|| ngwf_gradient_lnv                    :    21     3939.92s   4.494%  ------ ||
|| potential_apply_to_ngwf_batch        :  2431     4433.17s   5.057%  ------ ||
|| density_fftbox_interpolate_multiply  : 69275     5203.79s   5.936%  ------ ||
|| xc_energy_potential                  :   426     5457.82s   6.225%  ------ ||
|| integrals_locpot_dbl_grid            :   221     5638.99s   6.432%  ------ ||
|| density_batch_interp_deposit         :  4675     8036.87s   9.167%  ------ ||
|| dl_mg_solver_calls                   :   426     8752.06s   9.983%  ------ ||
|| nlxc_vdw_energy                      :   850     9117.29s  10.399%  ------ ||
|| density_on_dbl_grid                  :   425    10243.60s  11.684%  ------ ||
|| potential_apply_to_fftbox_batch      :  6930    11951.85s  13.633%  ------ ||
|| multigrid_calculate_hartree          :   426    12229.47s  13.949%  ------ ||
|| integrals_div_locpot_grad_functions  :   210    17941.55s  20.465%  ------ ||
|| ke_density_fftbox_interpolate_multipl: 69275    20497.30s  23.380%  ------ ||
|| ke_density_batch_interp_deposit      :  4675    23551.92s  26.864%  ------ ||
|| fourier_apply_box                    : 1.572M   26710.85s  30.467% 800.732 ||
|| ke_density_on_dbl_grid               :   425    27206.72s  31.033%  ------ ||
|| hamiltonian_lhxc_calculate           :   420    55085.74s  62.833%  ------ ||
|| lnv_denskernel_optimise_cg           :    21    78640.47s  89.700%  ------ ||
|| ngwf_cg_optimise                     :     2    86878.39s  99.096%  ------ ||
|| total_time                           :     1    87670.58s 100.000%  ------ ||
================================================================================
Overhead of generating timer report: 
- 0 ms averaging over threads,
- 7 ms ensuring consistency across MPI ranks,
- 2 ms printing in order.

Job completed: 09-04-2020 10:35 (+0100)

