 +---------------------------------------------------------------+
 |                                                               |
 |        ####### #     # ####### ####### ####### ######         |
 |        #     # ##    # #          #    #       #     #        |
 |        #     # # #   # #          #    #       #     #        |
 |        #     # #  #  # #####      #    #####   ######         |
 |        #     # #   # # #          #    #       #              |
 |        #     # #    ## #          #    #       #              |
 |        ####### #     # #######    #    ####### #              |
 |                                                               |
 |        Linear-Scaling Ab Initio Total Energy Program          |
 |                                                               |
 |          Release for academic collaborators of ODG            |
 |                                             Version 5.3.2.6.  |
 |                                                               |
 +---------------------------------------------------------------+
 |                                                               |
 |  Authors:                                                     |
 |  Jacek Dziedzic, Peter D. Haynes, Nicholas D. M. Hine,        |
 |  Arash. A. Mostofi, Mike C. Payne and Chris-Kriton Skylaris   |
 |                                                               |
 |  Contributors:                                                |
 |  J. Aarons, L. Andrinopoulos, P. W. Avraam, R. A. Bell,       |
 |  A. Bhandari, G. A. Bramley, R. J. Charlton, S. J. Clark,     |
 |  R. J. Clements, G. C. Constantinescu, F. Corsetti,           |
 |  N. Corsini, O. Dieguez, S. M. M. Dubois, K. K. B. Duff,      |
 |  J. M. Escartin, A. Greco, H. Helal, Q. O. Hill, L. P. Lee,   |
 |  J.-H. Li, E. B. Linscott, G. Moynihan, D. D. O`Regan,        |
 |  O. K. Okan, M. J. S. Phipps, C. J. Pickard,                  |
 |  J. C. A. Prentice, M. I. J. Probert, L. E. Ratcliff,         |
 |  M. Robinson, A. Ruiz Serrano, J. S. Spencer, E. W. Tait,     |
 |  G. Teobaldi, D. Turban, V. Vitale, K. A. Wilkinson,          |
 |  C. Weber, J. C. Womack, N. Yeung and T. J. Zuehlsdorff       |
 |                                                               |
 |                                   Copyright (c) 2004-2019     |
 |                                                               |
 |  Please cite:                                                 |
 |  "Introducing ONETEP: Linear-scaling density functional       |
 |   simulations on parallel computers".                         |
 |   C.-K. Skylaris, P. D. Haynes, A. A. Mostofi, M. C. Payne.   |
 |   J. Chem. Phys. 122 084119 (2005).                           |
 |                                                               |
 |          in all publications arising from your use of ONETEP. |
 |                                                               |
 +---------------------------------------------------------------+
 |                                                               |
 |   ONETEP is based on developments described in the following  |
 |   publications:                                               |
 |                                                               |
 |  "Nonorthogonal generalized Wannier function pseudopotential  |
 |   plane-wave method".                                         |
 |   C.-K. Skylaris, A. A. Mostofi, P. D. Haynes, O. Dieguez,    |
 |   M. C. Payne.                                                |
 |   Phys. Rev. B 66 035119 (2002).                              |
 |                                                               |
 |  "Preconditioned iterative minimization for linear-scaling    |
 |   electronic structure calculations".                         |
 |   A. A. Mostofi, P. D. Haynes, C.-K. Skylaris, M. C. Payne.   |
 |   J. Chem. Phys. 119(17), pp.8842-8848 (2003).                |
 |                                                               |
 |  "Total-energy calculations on a real space grid with         |
 |   localized functions and a plane-wave basis".                |
 |   A. A. Mostofi, C.-K. Skylaris, P. D. Haynes, M. C. Payne.   |
 |   Comput. Phys. Commun. 147, pp.788-802 (2002).               |
 |                                                               |
 |  "Accurate kinetic energy evaluation in electronic structure  |
 |   calculations with localized functions on real space grids"  |
 |   C.-K. Skylaris, A. A. Mostofi, P. D. Haynes, C. J. Pickard, |
 |   M. C. Payne.                                                |
 |   Comput. Phys. Commun. 140, pp.315-322 (2001).               |
 |                                                               |
 |  "Accurate ionic forces and geometry optimization in linear-  |
 |   scaling density-functional theory with local orbitals"      |
 |   N. D. M. Hine, M. Robinson, P. D. Haynes, C.-K. Skylaris,   |
 |   M. C. Payne, and A. A. Mostofi.                             |
 |   Phys. Rev. B 83 195102 (2011).                              |
 |                                                               |
 +---------------------------------------------------------------+

Job started: 25-02-2020 00:18 (-0000)
 
Reading parameters from file "host_23281.dat" ...... done

If your calculation crashes here, before "Checking processes and threads..."
is displayed, then your stack size is insufficient.
If so, use "ulimit -s unlimited" at runtime.
You can disable this check with "check_stack_size F".

Checking processes and threads...
   Determining the default number of threads...
      No default threads set at compilation time: defaulting to 1.
      OpenMP library call suggests 4 threads.
      Hybrid MPI-OpenMP compilation detected.
      Number of MPI processes > 1.
      OMP_NUM_THREADS environment variable present and
      its value matches the one obtained from the OpenMP library call.
      Using this value as default.
      Default threads: 4
      Default applies to threads_max and threads_num_fftboxes.
      Settings in the input file override this default.
   ... done

   Running with 40 MPI processes.
   There are 10 MPI processes running on the same node as the root process.
   Each MPI process is using: 
               1 threads for simulation cell FFTs.
               1 threads for parallel FFT box operations.
               4 threads for loops over batched FFT box operations.
               4 threads in other parallel regions.
... done

Basic input checks...... done

Reading geometry and species blocks from file "host_23281.dat" ...
  <species_atomic_set> block not found: NGWF initialisation set to SOLVE
IS: Dielectric excluded regions:
    - NONE.
    
  Number of PPD points along a3 set to 1.  This is 
  the default value, it may have been provided also in the input file.
... done
 Writing xyz coordinates to file "host_23281.xyz" ... done


--------------------------------------------------------------------------------
---------------------------------- INPUT FILE ----------------------------------
--------------------------------------------------------------------------------

cutoff_energy       : 800 eV                                                    
xc_functional B97M-V                                                            
task SINGLEPOINT                                                                
write_xyz true                                                                  
output_detail VERBOSE                                                           
ngwf_threshold_orig : 0.000002                                                  
kernel_cutoff       : 1000                                                      
k_zero              : 3.5                                                       
elec_cg_max 0                                                                   
occ_mix 1.0                                                                     
dispersion 0                                                                    
maxit_ngwf_cg 40                                                                
minit_lnv 10                                                                    
maxit_lnv 10                                                                    
write_denskern T                                                                
write_tightbox_ngwfs T                                                          
charge 9                                                                        
is_implicit_solvent T                                                           
is_auto_solvation T                                                             
is_include_apolar T                                                             
is_smeared_ion_rep T                                                            
is_solvent_surf_tension 4.7624E-5 Ha/bohr**2                                    
is_apolar_scaling_factor 0.281075                                               
is_solvation_beta 1.3                                                           
is_density_threshold 0.00035                                                    
is_bulk_permittivity 78.54                                                      
is_dielectric_model fix_initial                                                 
is_smeared_ion_width 0.8                                                        
mg_defco_fd_order 8                                                             
is_bc_coarseness 10                                                             
is_bc_surface_coarseness 1                                                      
fine_grid_scale 2.0                                                             
%block species                                                                  
N   N   7 4 8.0                                                                 
H   H   1 1 8.0                                                                 
C   C   6 4 8.0                                                                 
S   S  16 9 8.0                                                                 
O   O   8 4 8.0                                                                 
%endblock species                                                               
%block species_pot                                                              
N   N_00.recpot                                                                 
H   H_04.recpot                                                                 
C   C_01.recpot                                                                 
S   S_00.recpot                                                                 
O   O_02.recpot                                                                 
%endblock species_pot                                                           
%block lattice_cart                                                             
137.614   0.000   0.000                                                         
0.000 142.646   0.000                                                           
0.000   0.000   160.855                                                         
%endblock lattice_cart                                                          
%block positions_abs                                                            
     Hash =  -000008632608647472385858
%endblock positions_abs                                                         

--------------------------------------------------------------------------------
-------------------------------- END INPUT FILE --------------------------------
--------------------------------------------------------------------------------


 
 ESDF WARNING(1): "kernelcutoff" (esdf_physical) has no units. Assume "bohr".
 ESDF WARNING(2): "kzero" (esdf_physical) has no units. Assume "1/bohr".
 ESDF WARNING(3
 ): "issmearedionwidth" (esdf_physical) has no units. Assume "bohr".
<<<<<<<<<<<<<<<<<<<<<<<<<<<<<<<<< Full system >>>>>>>>>>>>>>>>>>>>>>>>>>>>>>>>>>
<<<<<<<<<<<<<<<<<<<<<<<<< Pseudopotential information >>>>>>>>>>>>>>>>>>>>>>>>>>
File: N_00.recpot [ 2001 points up to Gmax=  52.9 (1/bohr)]
  Atomic number:  7;  ionic charge:  5.000000
    Shell 1: l = 0; rc = 1.48 bohr
File: H_04.recpot [ 2001 points up to Gmax=  52.9 (1/bohr)]
  Atomic number:  1;  ionic charge:  1.000000
    Local potential
File: C_01.recpot [ 2001 points up to Gmax=  52.9 (1/bohr)]
  Atomic number:  6;  ionic charge:  4.000000
    Shell 1: l = 0; rc = 1.48 bohr
File: S_00.recpot [ 2001 points up to Gmax=  52.9 (1/bohr)]
  Atomic number: 16;  ionic charge:  6.000000
    Shell 1: l = 0; rc = 1.90 bohr
    Shell 2: l = 2; rc = 1.84 bohr
File: O_02.recpot [ 2001 points up to Gmax=  52.9 (1/bohr)]
  Atomic number:  8;  ionic charge:  6.000000
    Shell 1: l = 0; rc = 1.31 bohr
<<<<<<<<<<<<<<<<<<<<<<<<<<<<<<<<<<<<<<<<>>>>>>>>>>>>>>>>>>>>>>>>>>>>>>>>>>>>>>>>

-------------------------- Atom counting information ---------------------------
Symbol    Natoms    Nngwfs    Nprojs
  N        236       944       236
  H       1311      1311         0
  C        810      3240       810
  S          6        54        36
  O        239       956       239
.......   ......    ......    ......
Totals:   2602      6505      1321
--------------------------------------------------------------------------------

=============================== PSINC grid sizes ===============================
                      Simulation cell:  273 x 286 x 320
                              FFT-box:   99 x 105 x  99
                                  PPD:    7 x  11 x   1
Grid space d1=  0.504080586081a0 (KE cutoff=  29.89538Eh = 813.49465eV)
Grid space d2=  0.498762237762a0 (KE cutoff=  30.53633Eh = 830.93588eV)
Grid space d3=  0.502671875000a0 (KE cutoff=  30.06317Eh = 818.06059eV)
================================================================================

********************* Fourier parallelisation information **********************
       Coarse grid (whole simulation cell) dimensions:    273   286   320
          Real-space ('12') slabs/node (min max mean):      8     8     8
         Recip-space ('23') slabs/node (min max mean):      3     4     3
********************************************************************************

********************* Fourier parallelisation information **********************
       Double grid (whole simulation cell) dimensions:    546   572   640
          Real-space ('12') slabs/node (min max mean):     16    16    16
         Recip-space ('23') slabs/node (min max mean):      6     7     6
********************************************************************************
ONETEP fine grid is 546 x 572 x 640 gridpoints, 137.6140 x 142.6460 x 160.8550 bohr.
FD multigrid is     545 x 569 x 633 gridpoints, 137.3620 x 141.8979 x 159.0956 bohr.


Calculating local pseudopotential in open BC on a radial grid ...
Discrepancy between calculated realspace psloc and -Z/x on [5a0,255.264a0]:
max |rel. diff| # avg |rel. diff| #  avg rel. diff #  f # pseudopotential file
 0.000296759711    0.000009439468   0.000000085927   54  'N_00.recpot'
 0.000490027943    0.000021572324  -0.000000031900   54  'H_04.recpot'
 0.000320795249    0.000014598087   0.000000111901   54  'C_01.recpot'
 0.000388730920    0.000016096375   0.000000514750   54  'S_00.recpot'
 0.000828383344    0.000035421288   0.000000087443   54  'O_02.recpot'
... done
 WARNING: meta-GGA functionality under development.
          Using this functional is experimental.
          Minimum tau threshold, xc_min_tau =   1.00000000E-12
 WARNING: Using alternative XC functional PBE for 
          radial densities (xc_radial).

Atom SCF Calculation for N  : Z (AE atom) =   7 : Z (PS atom) =   5
Config String:
Orbitals (num,occ):  2     2.00 3.00
Orbitals   (num,l):  2        0    1
Real-space Grid (nr,dr,rmax): 1203    0.0066555740    8.0000000000
Spherical Bessel Basis (nsws,lmax,cutoff):   47    1  176.3951722778
Confining potential (l,width,scale):  0    3.0000000000  100.0000000000
Confining potential (l,width,scale):  1    3.0000000000  100.0000000000
  1         -4.7312375307   -3.4155304497    7.0523828109   -1.9351020946
  2         -9.7309464766   -2.0532547791    8.2966052865   -2.2494486027
  3         -9.6627394379   -2.1124926340    8.2327997121   -2.2369778124
  4         -9.6814993499   -2.1215521045    8.2229805960   -2.2365178421
  5         -9.6843326483   -2.1250939529    8.2191374534   -2.2362718126
  6         -9.6859628709   -2.1267894855    8.2172963573   -2.2362066344
  7         -9.6867347035   -2.1276425665    8.2163697352   -2.2361903369
  8         -9.6870802100   -2.1280764625    8.2158983890   -2.2361891460
  9         -9.6872290423   -2.1282977424    8.2156580222   -2.2361920435
 10         -9.6872901988   -2.1284107021    8.2155353368   -2.2361953393
 11         -9.6873135296   -2.1284684031    8.2154726809   -2.2361979819
 12         -9.6873212476   -2.1284978948    8.2154406648   -2.2361998431
 13         -9.6873229586   -2.1285129774    8.2154242957   -2.2362010676
 14         -9.6873226456   -2.1285206957    8.2154159216   -2.2362018403
 15         -9.6873218534   -2.1285246479    8.2154116349   -2.2362023142
 16         -9.6873212599   -2.1285262679    8.2154098784   -2.2362025420
 17         -9.6873207834   -2.1285272564    8.2154088068   -2.2362026955
 18         -9.6873204210   -2.1285278597    8.2154081529   -2.2362027982
 19         -9.6873201550   -2.1285282280    8.2154077538   -2.2362028667
 20         -9.6873199645   -2.1285284529    8.2154075102   -2.2362029121
 21         -9.6873198305   -2.1285285903    8.2154073614   -2.2362029421
 22         -9.6873197377   -2.1285286742    8.2154072705   -2.2362029618
Atom SCF converged after  22 iterations to a total energy of     -9.68731974

Atom SCF Calculation for H  : Z (AE atom) =   1 : Z (PS atom) =   1
Config String:
Orbitals (num,occ):  1     1.00
Orbitals   (num,l):  1        0
Real-space Grid (nr,dr,rmax): 1203    0.0066555740    8.0000000000
Spherical Bessel Basis (nsws,lmax,cutoff):   47    0  176.3951722778
Confining potential (l,width,scale):  0    3.0000000000  100.0000000000
  1         -0.3194257691   -0.2393854593    0.2820953124   -0.2424203209
  2         -0.3951823392   -0.2377116493    0.2886404059   -0.2475147891
  3         -0.4317044583   -0.2352244387    0.2921333887   -0.2514046172
  4         -0.4470703708   -0.2341892222    0.2934391879   -0.2531009782
  5         -0.4532132900   -0.2338556667    0.2938388426   -0.2537313520
  6         -0.4556579251   -0.2337612552    0.2939448584   -0.2539550462
  7         -0.4566418315   -0.2337377355    0.2939680120   -0.2540342273
  8         -0.4570437922   -0.2337331116    0.2939708287   -0.2540627372
  9         -0.4572102946   -0.2337328328    0.2939698291   -0.2540732650
 10         -0.4572800424   -0.2337332404    0.2939687193   -0.2540772588
 11         -0.4573095100   -0.2337335791    0.2939680317   -0.2540788122
 12         -0.4573220379   -0.2337337762    0.2939676699   -0.2540794294
 13         -0.4573273880   -0.2337338775    0.2939674931   -0.2540796787
 14         -0.4573296803   -0.2337339266    0.2939674099   -0.2540797808
 15         -0.4573306647   -0.2337339495    0.2939673718   -0.2540798230
 16         -0.4573310882   -0.2337339601    0.2939673545   -0.2540798406
 17         -0.4573312706   -0.2337339649    0.2939673467   -0.2540798479
 18         -0.4573313493   -0.2337339670    0.2939673433   -0.2540798510
Atom SCF converged after  18 iterations to a total energy of     -0.45733135

Atom SCF Calculation for C  : Z (AE atom) =   6 : Z (PS atom) =   4
Config String:
Orbitals (num,occ):  2     2.00 2.00
Orbitals   (num,l):  2        0    1
Real-space Grid (nr,dr,rmax): 1203    0.0066555740    8.0000000000
Spherical Bessel Basis (nsws,lmax,cutoff):   47    1  176.3951722778
Confining potential (l,width,scale):  0    3.0000000000  100.0000000000
Confining potential (l,width,scale):  1    3.0000000000  100.0000000000
  1         -5.2976922011   -1.3069684169    4.5135249990   -1.4493313817
  2         -5.3721716256   -1.3429755895    4.4750154450   -1.4361613026
  3         -5.3809959565   -1.3617365618    4.4541655428   -1.4305930207
  4         -5.3918938866   -1.3667928461    4.4484735100   -1.4294652294
  5         -5.3956096428   -1.3688539142    4.4461376126   -1.4290734646
  6         -5.3968271862   -1.3696852393    4.4451910874   -1.4289366866
  7         -5.3972028401   -1.3700178062    4.4448112275   -1.4288900460
  8         -5.3973067903   -1.3701500158    4.4446598370   -1.4288749220
  9         -5.3973286940   -1.3702023868    4.4445997329   -1.4288704293
 10         -5.3973289850   -1.3702230869    4.4445759233   -1.4288693188
 11         -5.3973254264   -1.3702312560    4.4445665049   -1.4288691775
 12         -5.3973224003   -1.3702344755    4.4445627836   -1.4288692549
 13         -5.3973208708   -1.3702354890    4.4445616088   -1.4288693270
 14         -5.3973198783   -1.3702360102    4.4445610034   -1.4288693814
 15         -5.3973192535   -1.3702362780    4.4445606917   -1.4288694190
 16         -5.3973188684   -1.3702364155    4.4445605313   -1.4288694437
 17         -5.3973186349   -1.3702364860    4.4445604489   -1.4288694595
 18         -5.3973184951   -1.3702365221    4.4445604065   -1.4288694693
 19         -5.3973184122   -1.3702365405    4.4445603848   -1.4288694753
Atom SCF converged after  19 iterations to a total energy of     -5.39731841

Atom SCF Calculation for S  : Z (AE atom) =  16 : Z (PS atom) =   6
Config String:
Orbitals (num,occ):  3     2.00 4.00 0.00
Orbitals   (num,l):  3        0    1    2
Real-space Grid (nr,dr,rmax): 1203    0.0066555740    8.0000000000
Spherical Bessel Basis (nsws,lmax,cutoff):   47    2  176.3951722778
Confining potential (l,width,scale):  0    3.0000000000  100.0000000000
Confining potential (l,width,scale):  1    3.0000000000  100.0000000000
Confining potential (l,width,scale):  2    3.0000000000  100.0000000000
  1        -12.4735062396   -1.0328741412   10.1554312477   -2.4512393157
  2         -9.9458301913   -2.4607392455    8.3041325857   -2.0306994528
  3        -10.1450417646   -2.2931184565    8.4831893826   -2.0812538287
  4        -10.1528335592   -2.2733105793    8.5050388867   -2.0896035179
  5        -10.1571940363   -2.2633716629    8.5160794258   -2.0939370707
  6        -10.1594380571   -2.2584938667    8.5215163935   -2.0961289008
  7        -10.1605856507   -2.2561081821    8.5241804044   -2.0972291378
  8        -10.1611799191   -2.2549395235    8.5254868240   -2.0977806248
  9        -10.1614918752   -2.2543658586    8.5261285885   -2.0980571586
 10        -10.1616572884   -2.2540839121    8.5264441898   -2.0981959233
 11        -10.1617455602   -2.2539453058    8.5265994231   -2.0982656006
 12        -10.1617928447   -2.2538772062    8.5266757320   -2.0983006047
 13        -10.1618182292   -2.2538437891    8.5267131983   -2.0983181961
 14        -10.1618318741   -2.2538274201    8.5267315620   -2.0983270391
 15        -10.1618392144   -2.2538194197    8.5267405433   -2.0983314852
 16        -10.1618431651   -2.2538155200    8.5267449245   -2.0983337210
 17        -10.1618452923   -2.2538136252    8.5267470551   -2.0983348455
 18        -10.1618464380   -2.2538127080    8.5267480875   -2.0983354110
 19        -10.1618470552   -2.2538122659    8.5267485856   -2.0983356955
 20        -10.1618473878   -2.2538120540    8.5267488248   -2.0983358386
 21        -10.1618475670   -2.2538119530    8.5267489389   -2.0983359106
 22        -10.1618476637   -2.2538119053    8.5267489929   -2.0983359468
Atom SCF converged after  22 iterations to a total energy of    -10.16184766

Atom SCF Calculation for O  : Z (AE atom) =   8 : Z (PS atom) =   6
Config String:
Orbitals (num,occ):  2     2.00 4.00
Orbitals   (num,l):  2        0    1
Real-space Grid (nr,dr,rmax): 1203    0.0066555740    8.0000000000
Spherical Bessel Basis (nsws,lmax,cutoff):   47    1  176.3951722778
Confining potential (l,width,scale):  0    3.0000000000  100.0000000000
Confining potential (l,width,scale):  1    3.0000000000  100.0000000000
  1         -1.8735052164   -7.5539365035   10.1554312477   -2.4512393157
  2        -16.0318313751   -3.1285771268   13.6395848164   -3.2358799643
  3        -15.9524020423   -3.0762819706   13.6967272503   -3.2536856837
  4        -15.8521515939   -3.0781493909   13.6951909330   -3.2561700440
  5        -15.8357139793   -3.0748501933   13.6988803334   -3.2580493133
  6        -15.8246052853   -3.0740779781   13.6997881576   -3.2588327446
  7        -15.8189019501   -3.0737449687   13.7001869911   -3.2592378801
  8        -15.8159785510   -3.0736026016   13.7003615168   -3.2594475790
  9        -15.8144776168   -3.0735437994   13.7004360379   -3.2595560735
 10        -15.8137058024   -3.0735207882   13.7004667348   -3.2596122456
 11        -15.8133083127   -3.0735125946   13.7004786868   -3.2596413656
 12        -15.8131032938   -3.0735102195   13.7004828997   -3.2596564858
 13        -15.8129973902   -3.0735099286   13.7004840891   -3.2596643505
 14        -15.8129426040   -3.0735102506   13.7004842061   -3.2596684489
 15        -15.8129142203   -3.0735106556   13.7004840157   -3.2596705887
 16        -15.8128994940   -3.0735109855   13.7004837906   -3.2596717080
 17        -15.8128918425   -3.0735112169   13.7004836103   -3.2596722946
 18        -15.8128878614   -3.0735113674   13.7004834848   -3.2596726026
 19        -15.8128857871   -3.0735114608   13.7004834035   -3.2596727646
 20        -15.8128847048   -3.0735115170   13.7004833533   -3.2596728500
 21        -15.8128841394   -3.0735115501   13.7004833231   -3.2596728951
 22        -15.8128838436   -3.0735115693   13.7004833054   -3.2596729190
 23        -15.8128836887   -3.0735115802   13.7004832951   -3.2596729316
 24        -15.8128836074   -3.0735115864   13.7004832893   -3.2596729383
Atom SCF converged after  24 iterations to a total energy of    -15.81288361

========================== Calculation in vacuum ==============================
= Adjusting the following parameters: 
= is_implicit_solvent: F
= is_include_apolar: F
= write_denskern: T
= write_tightbox_ngwfs: T
= restart read filename prefix: ""
= restart write filename prefix: "vacuum_"
===============================================================================

Determining parallel strategy ...
... using space-filling curve
... NGWF load balancing: max    163;  min    162;  average    163
... Projector load balancing: max     36;  min     32;  average     33
... done
Calculating direct Ion-Ion energy ...
Ion-Ion Energy        :    827162.02916952571832
Basis initialisation ...... NGWF spheres initialised
... Projector spheres initialised
... NGWF tight boxes initialised
... Tight-boxes gathered
... NGWF basis size (local,global):    1119929  44687443
... Nonlocal pseudopotential projector initialisation
... done

========================== Sparse matrix information ===========================
                        Overlap matrix filling:   6.74%
                        Density kernel filling: 100.00%
              NGWF-Proj overlap matrix filling:   1.77%
                    Hamiltonian matrix filling:   7.61%
                  NGWF diagonal matrix filling:   0.05%
                             KS matrix filling: 100.00% 
                           KSKS matrix filling: 100.00% 
================================================================================

Sparse matrix initialisation ... done

Generating smeared ion density ... done
Smeared ion self correction:     -14457.169564
Smeared ion non-self correction: -827114.077933
NGWF initialisation ...... done
============ Calculation of NGWF S^-1 using Hotelling algorithm ================ 
         Iteration  |  Frobenius norm and Maximum abs value    (of I-S*S_n^-1)   
               1       0.78509009E+02     0.98275567E+00
               2       0.76678867E+02     0.96596106E+00
               3       0.73708286E+02     0.93364254E+00
               4       0.69472936E+02     0.87372617E+00
               5       0.64183145E+02     0.77109480E+00
               6       0.58225423E+02     0.70279330E+00
               7       0.52218409E+02     0.67244270E+00
               8       0.46665120E+02     0.64551045E+00
               9       0.40630318E+02     0.60555996E+00
              10       0.32421587E+02     0.53596796E+00
              11       0.21883512E+02     0.42339435E+00
              12       0.11250843E+02     0.27202008E+00
              13       0.37392294E+01     0.12170263E+00
              14       0.59341007E+00     0.31220931E-01
              15       0.27366163E-01     0.26258050E-02
              16       0.13297114E-03     0.19870382E-04
              17       0.54406015E-08     0.11740720E-08
              18       0.91085620E-13     0.48849813E-14
================================================================================
Calculating local pseudopotential in open BC on the fine real space grid ...
... done

MG BCs: +ve charge blocks (gridpoints):     20668 (   16275137).
MG BCs: -ve charge blocks (gridpoints):      8070 (    1095454).
MG BCs:     Elided blocks (gridpoints):    179972 (  178925874).
MG BCs: Computational effort saved:  99.9854%.
MG BCs: Charge after coarse-graining:           -9.0002312.
MG DL_MG: Calling solver with defect correction order = 8
MG DL_MG: Solver finished
MG Hartree energy from (\int phi*rho dr):              1462.381698
MG Hartree energy from (\int eps (grad phi)^2 dr):     1461.770590
MG Discrepancy due to finite box and discretization:     -0.611108 (  -0.04179%)
MG Correction to account for finite box:                  0.464281
MG Remaining discrepancy, due to discretization:         -0.146827 (  -0.01004%)
 WARNING: xc_energy_potential using alternative initial XC functional PBE.
Up spin density kernel initialisation ... 
======= Optimisation of K by Palser-Manolopoulos canonical purification ======== 
         Iteration  |  Band structure energy |    c_n   
               1       -2579.03064586946221    0.5272577
               2       -2754.61214483225103    0.5172714
               3       -2935.09708498835425    0.5153494
               4       -3086.38076965475739    0.5284925
               5       -3179.89191128909897    0.5636789
               6       -3219.23583025926382    0.6081530
               7       -3232.60667077005019    0.6198370
               8       -3238.37836220121835    0.6190839
               9       -3241.15690963926772    0.6374029
              10       -3242.28112138598135    0.6661272
              11       -3242.71378178937812    0.6781869
              12       -3242.91061799044382    0.6651295
              13       -3243.01694816851432    0.6186436
              14       -3243.08012099223242    0.5259543
              15       -3243.11634138134650    0.4425816
              16       -3243.12166763619916    0.4844622
              17       -3243.12281168377831    0.5636248
              18       -3243.12333320591188    0.6004677
              19       -3243.12353767126524    0.5792056
              20       -3243.12369176656557    0.5404541
              21       -3243.12383160714262    0.5104069
              22       -3243.12395006380166    0.5006679
              23       -3243.12404083020829    0.5000027
              24       -3243.12408212358741    0.5000000
              25       -3243.12408795799638    0.5000000
              26       -3243.12408805392670    0.5000000
Termination criterion satisfied: band energy change below threshold.
Final occupancy bounds: [    0.00000000000236:    0.99999999999977]
Closest occupancy to 0.5:     0.99999999999942
================================================================================
... done

Writing density kernel to file "host_23281.vacuum_dkn" ... done

>>> Optimising kernel for current NGWFs:
   Initial electron number for spin 1:    7192.00000000
     Final electron number for spin 1:    7192.00000000

=================== Penalty functional idempotency correction ==================
 RMS occupancy error at iteration   1:  0.000000 (step -0.5000 Ne1=   7192.0000)
            Final RMS occupancy error   :  0.000000 (Ne1=   7192.0000)
               Final occupancy bounds   : [  0.0000,  1.0000]
================================================================================

................................................................................
<<<<<<<<<<<<<< LNV (Original version) density kernel optimisation >>>>>>>>>>>>>>
~~~~~~~~~~~~~~~~~~~~~~~~~~~~~~~~~~~~~~~~~~~~~~~~~~~~~~~~~~~~~~~~~~~~~~~~~~~~~~~~
   iter  |      energy (Eh)       | rms gradient |  commutator  |   dE (Eh)
MG BCs: +ve charge blocks (gridpoints):     31289 (   17385361).
MG BCs: -ve charge blocks (gridpoints):      8400 (    1128681).
MG BCs:     Elided blocks (gridpoints):    169339 (  177782423).
MG BCs: Computational effort saved:  99.9798%.
MG BCs: Charge after coarse-graining:           -9.0009745.
MG DL_MG: Calling solver with defect correction order = 8
MG DL_MG: Solver finished
MG Hartree energy from (\int phi*rho dr):              1417.883895
MG Hartree energy from (\int eps (grad phi)^2 dr):     1417.212409
MG Discrepancy due to finite box and discretization:     -0.671487 (  -0.04736%)
MG Correction to account for finite box:                  0.482892
MG Remaining discrepancy, due to discretization:         -0.188595 (  -0.01330%)
      ideal mu1:      -0.735106814749
             Q0:  -11471.183577520889
             G0:    -128.271584510853
   RMS gradient:       0.001741076801
MG BCs: +ve charge blocks (gridpoints):     31226 (   17463198).
MG BCs: -ve charge blocks (gridpoints):      8282 (    1106090).
MG BCs:     Elided blocks (gridpoints):    169404 (  177727177).
MG BCs: Computational effort saved:  99.9799%.
MG BCs: Charge after coarse-graining:           -9.0009962.
MG DL_MG: Calling solver with defect correction order = 8
MG DL_MG: Solver finished
MG Hartree energy from (\int phi*rho dr):              1438.810045
MG Hartree energy from (\int eps (grad phi)^2 dr):     1438.154830
MG Discrepancy due to finite box and discretization:     -0.655215 (  -0.04554%)
MG Correction to account for finite box:                  0.481866
MG Remaining discrepancy, due to discretization:         -0.173349 (  -0.01205%)
     Trial step:       0.500000000000
             Q1:  -11483.838804200641
 Quadratic coef:      51.480565575675
 Linear coef   :     -64.135792255427
           Qmin:  -11491.159076052392
Quadratic minimum step length (  0.311456330842) accepted
    Initial Ne1:    7192.00000000
      Final Ne1:    7192.00000000

=================== Penalty functional idempotency correction ==================
 RMS occupancy error at iteration   1:  0.003301 (step -0.4887 Ne1=   7192.0000)
 RMS occupancy error at iteration   2:  0.000027 (step -0.5001 Ne1=   7192.0000)
            Final RMS occupancy error   :  0.000000 (Ne1=   7192.0000)
               Final occupancy bounds   : [  0.0000,  1.0000]
================================================================================

    1        -1.147118357752E+04     1.7411E-03     1.5748E-03
MG BCs: +ve charge blocks (gridpoints):     31249 (   17435494).
MG BCs: -ve charge blocks (gridpoints):      8339 (    1115215).
MG BCs:     Elided blocks (gridpoints):    169379 (  177745756).
MG BCs: Computational effort saved:  99.9798%.
MG BCs: Charge after coarse-graining:           -9.0009876.
MG DL_MG: Calling solver with defect correction order = 8
MG DL_MG: Solver finished
MG Hartree energy from (\int phi*rho dr):              1424.310071
MG Hartree energy from (\int eps (grad phi)^2 dr):     1423.649530
MG Discrepancy due to finite box and discretization:     -0.660541 (  -0.04638%)
MG Correction to account for finite box:                  0.482165
MG Remaining discrepancy, due to discretization:         -0.178376 (  -0.01252%)
      ideal mu1:      -0.777274493682
             Q0:  -11491.559400819591
             G0:     -11.638162221018
   RMS gradient:       0.000520533480
MG BCs: +ve charge blocks (gridpoints):     31236 (   17452857).
MG BCs: -ve charge blocks (gridpoints):      8297 (    1108349).
MG BCs:     Elided blocks (gridpoints):    169392 (  177735259).
MG BCs: Computational effort saved:  99.9799%.
MG BCs: Charge after coarse-graining:           -9.0009919.
MG DL_MG: Calling solver with defect correction order = 8
MG DL_MG: Solver finished
MG Hartree energy from (\int phi*rho dr):              1429.600459
MG Hartree energy from (\int eps (grad phi)^2 dr):     1428.943868
MG Discrepancy due to finite box and discretization:     -0.656591 (  -0.04593%)
MG Correction to account for finite box:                  0.481189
MG Remaining discrepancy, due to discretization:         -0.175403 (  -0.01227%)
     Trial step:       0.394624081147
             Q1:  -11494.225351048517
 Quadratic coef:       1.926748843780
 Linear coef   :      -4.592699072705
           Qmin:  -11494.296250103363
Quadratic minimum step length (  0.470323274723) accepted
    Initial Ne1:    7191.99986896
      Final Ne1:    7192.00000000

=================== Penalty functional idempotency correction ==================
 RMS occupancy error at iteration   1:  0.001588 (step -0.4941 Ne1=   7192.0000)
 RMS occupancy error at iteration   2:  0.000009 (step -0.5001 Ne1=   7192.0000)
            Final RMS occupancy error   :  0.000000 (Ne1=   7192.0000)
               Final occupancy bounds   : [  0.0000,  1.0000]
================================================================================

    2        -1.149155940082E+04     5.2053E-04     4.7081E-04    -2.0376E+01
MG BCs: +ve charge blocks (gridpoints):     31232 (   17456086).
MG BCs: -ve charge blocks (gridpoints):      8291 (    1107003).
MG BCs:     Elided blocks (gridpoints):    169396 (  177733376).
MG BCs: Computational effort saved:  99.9799%.
MG BCs: Charge after coarse-graining:           -9.0009929.
MG DL_MG: Calling solver with defect correction order = 8
MG DL_MG: Solver finished
MG Hartree energy from (\int phi*rho dr):              1430.646286
MG Hartree energy from (\int eps (grad phi)^2 dr):     1429.990409
MG Discrepancy due to finite box and discretization:     -0.655877 (  -0.04584%)
MG Correction to account for finite box:                  0.481009
MG Remaining discrepancy, due to discretization:         -0.174868 (  -0.01222%)
      ideal mu1:      -0.799683633048
             Q0:  -11494.333059094613
             G0:      -1.942931854212
   RMS gradient:       0.000212748307
MG BCs: +ve charge blocks (gridpoints):     31239 (   17457530).
MG BCs: -ve charge blocks (gridpoints):      8297 (    1106921).
MG BCs:     Elided blocks (gridpoints):    169389 (  177732014).
MG BCs: Computational effort saved:  99.9799%.
MG BCs: Charge after coarse-graining:           -9.0009930.
MG DL_MG: Calling solver with defect correction order = 8
MG DL_MG: Solver finished
MG Hartree energy from (\int phi*rho dr):              1430.028906
MG Hartree energy from (\int eps (grad phi)^2 dr):     1429.373715
MG Discrepancy due to finite box and discretization:     -0.655191 (  -0.04582%)
MG Correction to account for finite box:                  0.480514
MG Remaining discrepancy, due to discretization:         -0.174677 (  -0.01221%)
     Trial step:       0.430814217650
             Q1:  -11494.838250138331
 Quadratic coef:       0.331851623001
 Linear coef   :      -0.837042666719
           Qmin:  -11494.860885672326
Quadratic minimum step length (  0.543329995408) accepted
    Initial Ne1:    7191.99993782
      Final Ne1:    7192.00000000

=================== Penalty functional idempotency correction ==================
 RMS occupancy error at iteration   1:  0.000634 (step -0.4973 Ne1=   7192.0000)
 RMS occupancy error at iteration   2:  0.000002 (step -0.5000 Ne1=   7192.0000)
            Final RMS occupancy error   :  0.000000 (Ne1=   7192.0000)
               Final occupancy bounds   : [  0.0000,  1.0000]
================================================================================

    3        -1.149433305909E+04     2.1275E-04     1.9243E-04    -2.7737E+00
MG BCs: +ve charge blocks (gridpoints):     31238 (   17457956).
MG BCs: -ve charge blocks (gridpoints):      8295 (    1106898).
MG BCs:     Elided blocks (gridpoints):    169390 (  177731611).
MG BCs: Computational effort saved:  99.9799%.
MG BCs: Charge after coarse-graining:           -9.0009931.
MG DL_MG: Calling solver with defect correction order = 8
MG DL_MG: Solver finished
MG Hartree energy from (\int phi*rho dr):              1429.872680
MG Hartree energy from (\int eps (grad phi)^2 dr):     1429.217655
MG Discrepancy due to finite box and discretization:     -0.655026 (  -0.04581%)
MG Correction to account for finite box:                  0.480387
MG Remaining discrepancy, due to discretization:         -0.174638 (  -0.01221%)
      ideal mu1:      -0.802734628198
             Q0:  -11494.866136582219
             G0:      -0.474135893352
   RMS gradient:       0.000105287402
MG BCs: +ve charge blocks (gridpoints):     31238 (   17458665).
MG BCs: -ve charge blocks (gridpoints):      8296 (    1106746).
MG BCs:     Elided blocks (gridpoints):    169390 (  177731054).
MG BCs: Computational effort saved:  99.9799%.
MG BCs: Charge after coarse-graining:           -9.0009930.
MG DL_MG: Calling solver with defect correction order = 8
MG DL_MG: Solver finished
MG Hartree energy from (\int phi*rho dr):              1430.931963
MG Hartree energy from (\int eps (grad phi)^2 dr):     1430.276976
MG Discrepancy due to finite box and discretization:     -0.654987 (  -0.04577%)
MG Correction to account for finite box:                  0.480204
MG Remaining discrepancy, due to discretization:         -0.174783 (  -0.01221%)
     Trial step:       0.483812243435
             Q1:  -11494.990758333472
 Quadratic coef:       0.104770999003
 Linear coef   :      -0.229392750256
           Qmin:  -11494.991698604083
Quadratic minimum step length (  0.529645713911) accepted
    Initial Ne1:    7191.99998507
      Final Ne1:    7192.00000000

=================== Penalty functional idempotency correction ==================
 RMS occupancy error at iteration   1:  0.000271 (step -0.4970 Ne1=   7192.0000)
 RMS occupancy error at iteration   2:  0.000002 (step -0.5000 Ne1=   7192.0000)
            Final RMS occupancy error   :  0.000000 (Ne1=   7192.0000)
               Final occupancy bounds   : [  0.0000,  1.0000]
================================================================================

    4        -1.149486613658E+04     1.0529E-04     9.5230E-05    -5.3308E-01
MG BCs: +ve charge blocks (gridpoints):     31238 (   17458708).
MG BCs: -ve charge blocks (gridpoints):      8293 (    1106729).
MG BCs:     Elided blocks (gridpoints):    169390 (  177731028).
MG BCs: Computational effort saved:  99.9799%.
MG BCs: Charge after coarse-graining:           -9.0009930.
MG DL_MG: Calling solver with defect correction order = 8
MG DL_MG: Solver finished
MG Hartree energy from (\int phi*rho dr):              1431.032826
MG Hartree energy from (\int eps (grad phi)^2 dr):     1430.377842
MG Discrepancy due to finite box and discretization:     -0.654984 (  -0.04577%)
MG Correction to account for finite box:                  0.480187
MG Remaining discrepancy, due to discretization:         -0.174797 (  -0.01221%)
      ideal mu1:      -0.802697513606
             Q0:  -11494.992328008753
             G0:      -0.186952421203
   RMS gradient:       0.000066310851
MG BCs: +ve charge blocks (gridpoints):     31238 (   17458328).
MG BCs: -ve charge blocks (gridpoints):      8295 (    1106965).
MG BCs:     Elided blocks (gridpoints):    169390 (  177731172).
MG BCs: Computational effort saved:  99.9799%.
MG BCs: Charge after coarse-graining:           -9.0009927.
MG DL_MG: Calling solver with defect correction order = 8
MG DL_MG: Solver finished
MG Hartree energy from (\int phi*rho dr):              1430.750728
MG Hartree energy from (\int eps (grad phi)^2 dr):     1430.095646
MG Discrepancy due to finite box and discretization:     -0.655082 (  -0.04579%)
MG Correction to account for finite box:                  0.480129
MG Remaining discrepancy, due to discretization:         -0.174953 (  -0.01223%)
     Trial step:       0.506210510631
             Q1:  -11495.052589236875
 Quadratic coef:       0.034376052479
 Linear coef   :      -0.094637280601
           Qmin:  -11495.057462122719
Quadratic minimum step length (  0.696798827708) accepted
    Initial Ne1:    7191.99999218
      Final Ne1:    7192.00000000

=================== Penalty functional idempotency correction ==================
 RMS occupancy error at iteration   1:  0.000426 (step -0.4782 Ne1=   7192.0000)
 RMS occupancy error at iteration   2:  0.000009 (step -0.5001 Ne1=   7192.0000)
            Final RMS occupancy error   :  0.000000 (Ne1=   7192.0000)
               Final occupancy bounds   : [  0.0000,  1.0000]
================================================================================

    5        -1.149499232801E+04     6.6311E-05     5.9977E-05    -1.2619E-01
MG BCs: +ve charge blocks (gridpoints):     31237 (   17458313).
MG BCs: -ve charge blocks (gridpoints):      8294 (    1106965).
MG BCs:     Elided blocks (gridpoints):    169391 (  177731187).
MG BCs: Computational effort saved:  99.9799%.
MG BCs: Charge after coarse-graining:           -9.0009925.
MG DL_MG: Calling solver with defect correction order = 8
MG DL_MG: Solver finished
MG Hartree energy from (\int phi*rho dr):              1430.642899
MG Hartree energy from (\int eps (grad phi)^2 dr):     1429.987780
MG Discrepancy due to finite box and discretization:     -0.655119 (  -0.04579%)
MG Correction to account for finite box:                  0.480107
MG Remaining discrepancy, due to discretization:         -0.175012 (  -0.01223%)
      ideal mu1:      -0.801924846375
             Q0:  -11495.056858634460
             G0:      -0.186562001719
   RMS gradient:       0.000066857168
MG BCs: +ve charge blocks (gridpoints):     31241 (   17457811).
MG BCs: -ve charge blocks (gridpoints):      8294 (    1107345).
MG BCs:     Elided blocks (gridpoints):    169387 (  177731309).
MG BCs: Computational effort saved:  99.9799%.
MG BCs: Charge after coarse-graining:           -9.0009923.
MG DL_MG: Calling solver with defect correction order = 8
MG DL_MG: Solver finished
MG Hartree energy from (\int phi*rho dr):              1429.453333
MG Hartree energy from (\int eps (grad phi)^2 dr):     1428.798204
MG Discrepancy due to finite box and discretization:     -0.655129 (  -0.04583%)
MG Correction to account for finite box:                  0.480073
MG Remaining discrepancy, due to discretization:         -0.175057 (  -0.01225%)
     Trial step:       0.593908149785
             Q1:  -11495.147007495863
 Quadratic coef:       0.020651831857
 Linear coef   :      -0.110800693261
           Qmin:  -11495.205474913537
Quadratic minimum step length (  1.593210597107) accepted
    Initial Ne1:    7191.99990041
      Final Ne1:    7192.00000000

=================== Penalty functional idempotency correction ==================
 RMS occupancy error at iteration   1:  0.007004 (step -0.2612 Ne1=   7192.0000)
 RMS occupancy error at iteration   2:  0.000726 (step -0.4685 Ne1=   7192.0000)
 RMS occupancy error at iteration   3:  0.000038 (step -0.5016 Ne1=   7192.0000)
            Final RMS occupancy error   :  0.000000 (Ne1=   7192.0000)
               Final occupancy bounds   : [  0.0000,  1.0000]
================================================================================

    6        -1.149505685863E+04     6.6857E-05     6.0471E-05    -6.4531E-02
MG BCs: +ve charge blocks (gridpoints):     31244 (   17456965).
MG BCs: -ve charge blocks (gridpoints):      8302 (    1108010).
MG BCs:     Elided blocks (gridpoints):    169384 (  177731490).
MG BCs: Computational effort saved:  99.9799%.
MG BCs: Charge after coarse-graining:           -9.0009920.
MG DL_MG: Calling solver with defect correction order = 8
MG DL_MG: Solver finished
MG Hartree energy from (\int phi*rho dr):              1427.506352
MG Hartree energy from (\int eps (grad phi)^2 dr):     1426.851169
MG Discrepancy due to finite box and discretization:     -0.655183 (  -0.04590%)
MG Correction to account for finite box:                  0.480044
MG Remaining discrepancy, due to discretization:         -0.175139 (  -0.01227%)
      ideal mu1:      -0.801958445031
             Q0:  -11495.122416449012
             G0:      -0.617227045466
   RMS gradient:       0.000120774479
MG BCs: +ve charge blocks (gridpoints):     31236 (   17461775).
MG BCs: -ve charge blocks (gridpoints):      8281 (    1105108).
MG BCs:     Elided blocks (gridpoints):    169392 (  177729582).
MG BCs: Computational effort saved:  99.9799%.
MG BCs: Charge after coarse-graining:           -9.0009938.
MG DL_MG: Calling solver with defect correction order = 8
MG DL_MG: Solver finished
MG Hartree energy from (\int phi*rho dr):              1434.121262
MG Hartree energy from (\int eps (grad phi)^2 dr):     1433.466287
MG Discrepancy due to finite box and discretization:     -0.654975 (  -0.04567%)
MG Correction to account for finite box:                  0.480029
MG Remaining discrepancy, due to discretization:         -0.174946 (  -0.01220%)
     Trial step:       0.972738792249
             Q1:  -11495.215582230128
 Quadratic coef:       0.507234909634
 Linear coef   :      -0.600400690749
           Qmin:  -11495.300086096056
Quadratic minimum step length (  0.575702728354) accepted
    Initial Ne1:    7191.99879450
      Final Ne1:    7192.00000000

=================== Penalty functional idempotency correction ==================
 RMS occupancy error at iteration   1:  0.000209 (step -0.4862 Ne1=   7192.0000)
 RMS occupancy error at iteration   2:  0.000002 (step -0.5000 Ne1=   7192.0000)
            Final RMS occupancy error   :  0.000000 (Ne1=   7192.0000)
               Final occupancy bounds   : [  0.0000,  1.0000]
================================================================================

    7        -1.149512241645E+04     1.2077E-04     1.0924E-04    -6.5558E-02
MG BCs: +ve charge blocks (gridpoints):     31241 (   17459831).
MG BCs: -ve charge blocks (gridpoints):      8291 (    1106325).
MG BCs:     Elided blocks (gridpoints):    169387 (  177730309).
MG BCs: Computational effort saved:  99.9799%.
MG BCs: Charge after coarse-graining:           -9.0009930.
MG DL_MG: Calling solver with defect correction order = 8
MG DL_MG: Solver finished
MG Hartree energy from (\int phi*rho dr):              1431.406604
MG Hartree energy from (\int eps (grad phi)^2 dr):     1430.751555
MG Discrepancy due to finite box and discretization:     -0.655049 (  -0.04576%)
MG Correction to account for finite box:                  0.480028
MG Remaining discrepancy, due to discretization:         -0.175021 (  -0.01223%)
      ideal mu1:      -0.803881990510
             Q0:  -11495.300774945645
             G0:      -0.320602750837
   RMS gradient:       0.000086881860
MG BCs: +ve charge blocks (gridpoints):     31238 (   17459636).
MG BCs: -ve charge blocks (gridpoints):      8287 (    1106350).
MG BCs:     Elided blocks (gridpoints):    169390 (  177730479).
MG BCs: Computational effort saved:  99.9799%.
MG BCs: Charge after coarse-graining:           -9.0009932.
MG DL_MG: Calling solver with defect correction order = 8
MG DL_MG: Solver finished
MG Hartree energy from (\int phi*rho dr):              1430.907306
MG Hartree energy from (\int eps (grad phi)^2 dr):     1430.252332
MG Discrepancy due to finite box and discretization:     -0.654974 (  -0.04577%)
MG Correction to account for finite box:                  0.480218
MG Remaining discrepancy, due to discretization:         -0.174756 (  -0.01221%)
     Trial step:       0.748337074234
             Q1:  -11495.414777365513
 Quadratic coef:       0.125916504685
 Linear coef   :      -0.239918924553
           Qmin:  -11495.415059190000
Quadratic minimum step length (  0.712933647986) accepted
    Initial Ne1:    7191.99922687
      Final Ne1:    7192.00000000

=================== Penalty functional idempotency correction ==================
 RMS occupancy error at iteration   1:  0.000974 (step -0.4395 Ne1=   7192.0000)
 RMS occupancy error at iteration   2:  0.000030 (step -0.4988 Ne1=   7192.0000)
            Final RMS occupancy error   :  0.000000 (Ne1=   7192.0000)
               Final occupancy bounds   : [ -0.0000,  1.0000]
================================================================================

    8        -1.149530077495E+04     8.6882E-05     7.8583E-05    -1.7836E-01
MG BCs: +ve charge blocks (gridpoints):     31239 (   17459649).
MG BCs: -ve charge blocks (gridpoints):      8287 (    1106353).
MG BCs:     Elided blocks (gridpoints):    169389 (  177730463).
MG BCs: Computational effort saved:  99.9799%.
MG BCs: Charge after coarse-graining:           -9.0009932.
MG DL_MG: Calling solver with defect correction order = 8
MG DL_MG: Solver finished
MG Hartree energy from (\int phi*rho dr):              1430.931721
MG Hartree energy from (\int eps (grad phi)^2 dr):     1430.276749
MG Discrepancy due to finite box and discretization:     -0.654971 (  -0.04577%)
MG Correction to account for finite box:                  0.480203
MG Remaining discrepancy, due to discretization:         -0.174768 (  -0.01221%)
      ideal mu1:      -0.803110303724
             Q0:  -11495.416027022060
             G0:      -0.208687094766
   RMS gradient:       0.000069787596
MG BCs: +ve charge blocks (gridpoints):     31237 (   17458401).
MG BCs: -ve charge blocks (gridpoints):      8297 (    1107059).
MG BCs:     Elided blocks (gridpoints):    169391 (  177731005).
MG BCs: Computational effort saved:  99.9799%.
MG BCs: Charge after coarse-graining:           -9.0009929.
MG DL_MG: Calling solver with defect correction order = 8
MG DL_MG: Solver finished
MG Hartree energy from (\int phi*rho dr):              1429.258629
MG Hartree energy from (\int eps (grad phi)^2 dr):     1428.603519
MG Discrepancy due to finite box and discretization:     -0.655110 (  -0.04584%)
MG Correction to account for finite box:                  0.480478
MG Remaining discrepancy, due to discretization:         -0.174631 (  -0.01222%)
     Trial step:       0.730420892538
             Q1:  -11495.475168269593
 Quadratic coef:       0.093288166487
 Linear coef   :      -0.152429414021
           Qmin:  -11495.478293028387
Quadratic minimum step length (  0.596740362851) accepted
    Initial Ne1:    7192.00013385
      Final Ne1:    7192.00000000

=================== Penalty functional idempotency correction ==================
 RMS occupancy error at iteration   1:  0.001414 (step -0.4194 Ne1=   7192.0000)
 RMS occupancy error at iteration   2:  0.000055 (step -0.4977 Ne1=   7192.0000)
 RMS occupancy error at iteration   3:  0.000000 (step -0.5000 Ne1=   7192.0000)
            Final RMS occupancy error   :  0.000000 (Ne1=   7192.0000)
               Final occupancy bounds   : [  0.0000,  1.0000]
================================================================================

    9        -1.149541602702E+04     6.9788E-05     6.3121E-05    -1.1525E-01
MG BCs: +ve charge blocks (gridpoints):     31236 (   17458629).
MG BCs: -ve charge blocks (gridpoints):      8295 (    1106935).
MG BCs:     Elided blocks (gridpoints):    169392 (  177730901).
MG BCs: Computational effort saved:  99.9799%.
MG BCs: Charge after coarse-graining:           -9.0009930.
MG DL_MG: Calling solver with defect correction order = 8
MG DL_MG: Solver finished
MG Hartree energy from (\int phi*rho dr):              1429.562317
MG Hartree energy from (\int eps (grad phi)^2 dr):     1428.907236
MG Discrepancy due to finite box and discretization:     -0.655080 (  -0.04582%)
MG Correction to account for finite box:                  0.480427
MG Remaining discrepancy, due to discretization:         -0.174654 (  -0.01222%)
      ideal mu1:      -0.802321346184
   10        -1.149548017336E+04     4.8964E-05     4.4287E-05    -6.4146E-02
Finished density kernel iterations (  10)

Writing density kernel to file "host_23281.vacuum_dkn" ... done


>>> Density kernel optimised for the current NGWF basis:
     ~~~~~~~~~~~~~~~~~~~~~~~~~~~~~~~~~~~~~~~~~~~~~~~~~~~~~~~~~~~
     Total energy                =  -1.14954801733606E+04  Eh
     Estimated bandgap           =  -3.5953E-01  Eh
     RMS occupancy error         =   6.3149E-12
     [H,K] commutator            =   4.4287E-05
     Occupancy bounds            = [  0.000:  1.000]
     ~~~~~~~~~~~~~~~~~~~~~~~~~~~~~~~~~~~~~~~~~~~~~~~~~~~~~~~~~~~




################################################################################
########################### NGWF CG iteration  001 #############################
################################################################################
****** Reciprocal space K.E. preconditioning with k_zero =  3.5000 a0^-1 *******

>>> Checking for convergence of NGWFs:   NOT CONVERGED
  ========================================================================
         NGWF RMS gradient =  1.6218E-03 >  2.0000E-06  | above tolerance
  ========================================================================

>>> Improving NGWFs using line search:
============ Calculation of NGWF S^-1 using Hotelling algorithm ================ 
         Iteration  |  Frobenius norm and Maximum abs value    (of I-S*S_n^-1)   
               1       0.23386441E+00     0.64052118E-02
               2       0.12623429E-02     0.57732537E-04
               3       0.61178727E-07     0.50797135E-08
               4       0.12875596E-12     0.53290705E-14
================================================================================
MG BCs: +ve charge blocks (gridpoints):     30763 (   17407311).
MG BCs: -ve charge blocks (gridpoints):      8316 (    1103479).
MG BCs:     Elided blocks (gridpoints):    169864 (  177785675).
MG BCs: Computational effort saved:  99.9801%.
MG BCs: Charge after coarse-graining:           -9.0009981.
MG DL_MG: Calling solver with defect correction order = 8
MG DL_MG: Solver finished
MG Hartree energy from (\int phi*rho dr):              1401.848366
MG Hartree energy from (\int eps (grad phi)^2 dr):     1401.194721
MG Discrepancy due to finite box and discretization:     -0.653645 (  -0.04663%)
MG Correction to account for finite box:                  0.480308
MG Remaining discrepancy, due to discretization:         -0.173337 (  -0.01236%)
============ Calculation of NGWF S^-1 using Hotelling algorithm ================ 
         Iteration  |  Frobenius norm and Maximum abs value    (of I-S*S_n^-1)   
               1       0.21713727E+01     0.49836971E-01
               2       0.96958367E-01     0.34928342E-02
               3       0.26622336E-03     0.18854452E-04
               4       0.34912958E-08     0.56298866E-09
               5       0.11442523E-12     0.55511151E-14
================================================================================
------------------------------- NGWF line search -------------------------------
RMS gradient                =       0.00162177337938
Trial step length           =               0.122474
Gradient along search dir.  =       -290.34080819226
Functional at step 0        =  -11495.48017336055636
Functional at step 1        =  -11528.29583900840953
Functional predicted        =  -11610.69665713059294
Selected quadratic step     =               0.793664
--------------------------- NGWF line search finished --------------------------
                                               
Writing NGWFs to file "host_23281.vacuum_tightbox_ngwfs"....  done

>>> Optimising kernel for current NGWFs:
   Initial electron number for spin 1:    7237.82182397
     Final electron number for spin 1:    7192.00000000

=================== Penalty functional idempotency correction ==================
 RMS occupancy error at iteration   1:  0.005206 (step -0.4831 Ne1=   7192.0000)
 RMS occupancy error at iteration   2:  0.000093 (step -0.5003 Ne1=   7192.0000)
            Final RMS occupancy error   :  0.000000 (Ne1=   7192.0000)
               Final occupancy bounds   : [  0.0000,  1.0000]
================================================================================

................................................................................
<<<<<<<<<<<<<< LNV (Original version) density kernel optimisation >>>>>>>>>>>>>>
~~~~~~~~~~~~~~~~~~~~~~~~~~~~~~~~~~~~~~~~~~~~~~~~~~~~~~~~~~~~~~~~~~~~~~~~~~~~~~~~
   iter  |      energy (Eh)       | rms gradient |  commutator  |   dE (Eh)
MG BCs: +ve charge blocks (gridpoints):     25187 (   17190769).
MG BCs: -ve charge blocks (gridpoints):      8443 (    1073142).
MG BCs:     Elided blocks (gridpoints):    175453 (  178032554).
MG BCs: Computational effort saved:  99.9829%.
MG BCs: Charge after coarse-graining:           -9.0007339.
MG DL_MG: Calling solver with defect correction order = 8
MG DL_MG: Solver finished
MG Hartree energy from (\int phi*rho dr):              1271.992409
MG Hartree energy from (\int eps (grad phi)^2 dr):     1271.342015
MG Discrepancy due to finite box and discretization:     -0.650394 (  -0.05113%)
MG Correction to account for finite box:                  0.479769
MG Remaining discrepancy, due to discretization:         -0.170626 (  -0.01341%)
      ideal mu1:      -0.745000609242
             Q0:  -11610.050599219161
             G0:      -9.739750899314
   RMS gradient:       0.000479762859
MG BCs: +ve charge blocks (gridpoints):     25248 (   17202345).
MG BCs: -ve charge blocks (gridpoints):      8425 (    1069938).
MG BCs:     Elided blocks (gridpoints):    175392 (  178024182).
MG BCs: Computational effort saved:  99.9828%.
MG BCs: Charge after coarse-graining:           -9.0007306.
MG DL_MG: Calling solver with defect correction order = 8
MG DL_MG: Solver finished
MG Hartree energy from (\int phi*rho dr):              1284.331344
MG Hartree energy from (\int eps (grad phi)^2 dr):     1283.677307
MG Discrepancy due to finite box and discretization:     -0.654037 (  -0.05092%)
MG Correction to account for finite box:                  0.478788
MG Remaining discrepancy, due to discretization:         -0.175249 (  -0.01365%)
     Trial step:       0.660205747057
             Q1:  -11610.131782319397
 Quadratic coef:       6.349056418399
 Linear coef   :      -6.430239518635
           Qmin:  -11611.678714388652
Quadratic minimum step length (  0.334323780212) accepted
    Initial Ne1:    7191.99911210
      Final Ne1:    7192.00000000

=================== Penalty functional idempotency correction ==================
 RMS occupancy error at iteration   1:  0.000366 (step -0.4985 Ne1=   7192.0000)
 RMS occupancy error at iteration   2:  0.000000 (step -0.5000 Ne1=   7192.0000)
            Final RMS occupancy error   :  0.000000 (Ne1=   7192.0000)
               Final occupancy bounds   : [  0.0000,  1.0000]
================================================================================

    1        -1.161005059922E+04     4.7976E-04     4.3393E-04
MG BCs: +ve charge blocks (gridpoints):     25218 (   17196660).
MG BCs: -ve charge blocks (gridpoints):      8431 (    1071478).
MG BCs:     Elided blocks (gridpoints):    175422 (  178028327).
MG BCs: Computational effort saved:  99.9829%.
MG BCs: Charge after coarse-graining:           -9.0007323.
MG DL_MG: Calling solver with defect correction order = 8
MG DL_MG: Solver finished
MG Hartree energy from (\int phi*rho dr):              1277.429722
MG Hartree energy from (\int eps (grad phi)^2 dr):     1276.777569
MG Discrepancy due to finite box and discretization:     -0.652153 (  -0.05105%)
MG Correction to account for finite box:                  0.479247
MG Remaining discrepancy, due to discretization:         -0.172905 (  -0.01354%)
      ideal mu1:      -0.751057624067
             Q0:  -11611.662324489444
             G0:      -0.894723113282
   RMS gradient:       0.000145693680
MG BCs: +ve charge blocks (gridpoints):     25224 (   17196041).
MG BCs: -ve charge blocks (gridpoints):      8434 (    1072301).
MG BCs:     Elided blocks (gridpoints):    175416 (  178028123).
MG BCs: Computational effort saved:  99.9829%.
MG BCs: Charge after coarse-graining:           -9.0007322.
MG DL_MG: Calling solver with defect correction order = 8
MG DL_MG: Solver finished
MG Hartree energy from (\int phi*rho dr):              1277.900797
MG Hartree energy from (\int eps (grad phi)^2 dr):     1277.248532
MG Discrepancy due to finite box and discretization:     -0.652265 (  -0.05104%)
MG Correction to account for finite box:                  0.479080
MG Remaining discrepancy, due to discretization:         -0.173185 (  -0.01355%)
     Trial step:       0.469811112123
             Q1:  -11611.866457523894
 Quadratic coef:       0.216217826443
 Linear coef   :      -0.420350860893
           Qmin:  -11611.866626383928
Quadratic minimum step length (  0.456681830280) accepted
    Initial Ne1:    7191.99988813
      Final Ne1:    7192.00000000

=================== Penalty functional idempotency correction ==================
 RMS occupancy error at iteration   1:  0.000143 (step -0.4993 Ne1=   7192.0000)
            Final RMS occupancy error   :  0.000000 (Ne1=   7192.0000)
               Final occupancy bounds   : [ -0.0000,  1.0000]
================================================================================

    2        -1.161166232449E+04     1.4569E-04     1.3178E-04    -1.6117E+00
MG BCs: +ve charge blocks (gridpoints):     25224 (   17196066).
MG BCs: -ve charge blocks (gridpoints):      8434 (    1072268).
MG BCs:     Elided blocks (gridpoints):    175416 (  178028131).
MG BCs: Computational effort saved:  99.9829%.
MG BCs: Charge after coarse-graining:           -9.0007322.
MG DL_MG: Calling solver with defect correction order = 8
MG DL_MG: Solver finished
MG Hartree energy from (\int phi*rho dr):              1277.887847
MG Hartree energy from (\int eps (grad phi)^2 dr):     1277.235585
MG Discrepancy due to finite box and discretization:     -0.652262 (  -0.05104%)
MG Correction to account for finite box:                  0.479085
MG Remaining discrepancy, due to discretization:         -0.173177 (  -0.01355%)
      ideal mu1:      -0.751660323483
             Q0:  -11611.867013835814
             G0:      -0.183692941920
   RMS gradient:       0.000065821446
MG BCs: +ve charge blocks (gridpoints):     25221 (   17195204).
MG BCs: -ve charge blocks (gridpoints):      8435 (    1072689).
MG BCs:     Elided blocks (gridpoints):    175419 (  178028572).
MG BCs: Computational effort saved:  99.9829%.
MG BCs: Charge after coarse-graining:           -9.0007322.
MG DL_MG: Calling solver with defect correction order = 8
MG DL_MG: Solver finished
MG Hartree energy from (\int phi*rho dr):              1277.229573
MG Hartree energy from (\int eps (grad phi)^2 dr):     1276.577506
MG Discrepancy due to finite box and discretization:     -0.652067 (  -0.05105%)
MG Correction to account for finite box:                  0.478955
MG Remaining discrepancy, due to discretization:         -0.173112 (  -0.01355%)
     Trial step:       0.463199955279
             Q1:  -11611.922208200907
 Quadratic coef:       0.029892197388
 Linear coef   :      -0.085086562482
           Qmin:  -11611.927562438355
Quadratic minimum step length (  0.659237115038) accepted
    Initial Ne1:    7192.00116702
      Final Ne1:    7192.00000000

=================== Penalty functional idempotency correction ==================
 RMS occupancy error at iteration   1:  0.000119 (step -0.4967 Ne1=   7192.0000)
 RMS occupancy error at iteration   2:  0.000001 (step -0.5000 Ne1=   7192.0000)
            Final RMS occupancy error   :  0.000000 (Ne1=   7192.0000)
               Final occupancy bounds   : [  0.0000,  1.0000]
================================================================================

    3        -1.161186701384E+04     6.5821E-05     5.9534E-05    -2.0469E-01
MG BCs: +ve charge blocks (gridpoints):     25221 (   17194810).
MG BCs: -ve charge blocks (gridpoints):      8435 (    1072866).
MG BCs:     Elided blocks (gridpoints):    175419 (  178028789).
MG BCs: Computational effort saved:  99.9829%.
MG BCs: Charge after coarse-graining:           -9.0007322.
MG DL_MG: Calling solver with defect correction order = 8
MG DL_MG: Solver finished
MG Hartree energy from (\int phi*rho dr):              1276.950368
MG Hartree energy from (\int eps (grad phi)^2 dr):     1276.298385
MG Discrepancy due to finite box and discretization:     -0.651984 (  -0.05106%)
MG Correction to account for finite box:                  0.478898
MG Remaining discrepancy, due to discretization:         -0.173086 (  -0.01355%)
      ideal mu1:      -0.750640204671
             Q0:  -11611.927671550424
             G0:      -0.056150619324
   RMS gradient:       0.000036374204
MG BCs: +ve charge blocks (gridpoints):     25221 (   17194634).
MG BCs: -ve charge blocks (gridpoints):      8435 (    1072887).
MG BCs:     Elided blocks (gridpoints):    175419 (  178028944).
MG BCs: Computational effort saved:  99.9829%.
MG BCs: Charge after coarse-graining:           -9.0007323.
MG DL_MG: Calling solver with defect correction order = 8
MG DL_MG: Solver finished
MG Hartree energy from (\int phi*rho dr):              1276.986286
MG Hartree energy from (\int eps (grad phi)^2 dr):     1276.334521
MG Discrepancy due to finite box and discretization:     -0.651765 (  -0.05104%)
MG Correction to account for finite box:                  0.478772
MG Remaining discrepancy, due to discretization:         -0.172993 (  -0.01355%)
     Trial step:       0.552592618666
             Q1:  -11611.947628983529
 Quadratic coef:       0.011070984667
 Linear coef   :      -0.031028417772
           Qmin:  -11611.949412225224
Quadratic minimum step length (  0.774369902312) accepted
    Initial Ne1:    7192.00041858
      Final Ne1:    7192.00000000

=================== Penalty functional idempotency correction ==================
 RMS occupancy error at iteration   1:  0.000173 (step -0.4907 Ne1=   7192.0000)
 RMS occupancy error at iteration   2:  0.000001 (step -0.5000 Ne1=   7192.0000)
            Final RMS occupancy error   :  0.000000 (Ne1=   7192.0000)
               Final occupancy bounds   : [  0.0000,  1.0000]
================================================================================

    4        -1.161192767155E+04     3.6374E-05     3.2900E-05    -6.0658E-02
MG BCs: +ve charge blocks (gridpoints):     25220 (   17194577).
MG BCs: -ve charge blocks (gridpoints):      8435 (    1072899).
MG BCs:     Elided blocks (gridpoints):    175420 (  178028989).
MG BCs: Computational effort saved:  99.9829%.
MG BCs: Charge after coarse-graining:           -9.0007323.
MG DL_MG: Calling solver with defect correction order = 8
MG DL_MG: Solver finished
MG Hartree energy from (\int phi*rho dr):              1277.001225
MG Hartree energy from (\int eps (grad phi)^2 dr):     1276.349551
MG Discrepancy due to finite box and discretization:     -0.651674 (  -0.05103%)
MG Correction to account for finite box:                  0.478718
MG Remaining discrepancy, due to discretization:         -0.172956 (  -0.01354%)
      ideal mu1:      -0.750903021796
             Q0:  -11611.949382797582
             G0:      -0.051111485496
   RMS gradient:       0.000034771752
MG BCs: +ve charge blocks (gridpoints):     25221 (   17195593).
MG BCs: -ve charge blocks (gridpoints):      8435 (    1072563).
MG BCs:     Elided blocks (gridpoints):    175419 (  178028309).
MG BCs: Computational effort saved:  99.9829%.
MG BCs: Charge after coarse-graining:           -9.0007321.
MG DL_MG: Calling solver with defect correction order = 8
MG DL_MG: Solver finished
MG Hartree energy from (\int phi*rho dr):              1277.632626
MG Hartree energy from (\int eps (grad phi)^2 dr):     1276.981281
MG Discrepancy due to finite box and discretization:     -0.651345 (  -0.05098%)
MG Correction to account for finite box:                  0.478433
MG Remaining discrepancy, due to discretization:         -0.172912 (  -0.01353%)
     Trial step:       0.654149136004
             Q1:  -11611.970617715619
 Quadratic coef:       0.012199616040
 Linear coef   :      -0.033434534077
           Qmin:  -11611.972290651102
Quadratic minimum step length (  0.896387702200) accepted
    Initial Ne1:    7192.00044266
      Final Ne1:    7192.00000000

=================== Penalty functional idempotency correction ==================
 RMS occupancy error at iteration   1:  0.000667 (step -0.4634 Ne1=   7192.0000)
 RMS occupancy error at iteration   2:  0.000005 (step -0.5000 Ne1=   7192.0000)
            Final RMS occupancy error   :  0.000000 (Ne1=   7192.0000)
               Final occupancy bounds   : [  0.0000,  1.0000]
================================================================================

    5        -1.161194938280E+04     3.4772E-05     3.1450E-05    -2.1711E-02
MG BCs: +ve charge blocks (gridpoints):     25219 (   17195957).
MG BCs: -ve charge blocks (gridpoints):      8435 (    1072401).
MG BCs:     Elided blocks (gridpoints):    175421 (  178028107).
MG BCs: Computational effort saved:  99.9829%.
MG BCs: Charge after coarse-graining:           -9.0007320.
MG DL_MG: Calling solver with defect correction order = 8
MG DL_MG: Solver finished
MG Hartree energy from (\int phi*rho dr):              1277.867844
MG Hartree energy from (\int eps (grad phi)^2 dr):     1277.216623
MG Discrepancy due to finite box and discretization:     -0.651220 (  -0.05096%)
MG Correction to account for finite box:                  0.478324
MG Remaining discrepancy, due to discretization:         -0.172896 (  -0.01353%)
      ideal mu1:      -0.751819088038
             Q0:  -11611.972037893371
             G0:      -0.059036501164
   RMS gradient:       0.000037415289
MG BCs: +ve charge blocks (gridpoints):     25222 (   17196002).
MG BCs: -ve charge blocks (gridpoints):      8434 (    1072525).
MG BCs:     Elided blocks (gridpoints):    175418 (  178027938).
MG BCs: Computational effort saved:  99.9829%.
MG BCs: Charge after coarse-graining:           -9.0007320.
MG DL_MG: Calling solver with defect correction order = 8
MG DL_MG: Solver finished
MG Hartree energy from (\int phi*rho dr):              1277.681933
MG Hartree energy from (\int eps (grad phi)^2 dr):     1277.031312
MG Discrepancy due to finite box and discretization:     -0.650621 (  -0.05092%)
MG Correction to account for finite box:                  0.477727
MG Remaining discrepancy, due to discretization:         -0.172894 (  -0.01353%)
     Trial step:       0.765748810589
             Q1:  -11612.001580892946
 Quadratic coef:       0.015664130973
 Linear coef   :      -0.045207130547
           Qmin:  -11612.004655161700
Quadratic minimum step length (  1.104986497692) accepted
    Initial Ne1:    7192.00062672
      Final Ne1:    7192.00000000

=================== Penalty functional idempotency correction ==================
 RMS occupancy error at iteration   1:  0.002766 (step -0.3777 Ne1=   7192.0000)
 RMS occupancy error at iteration   2:  0.000037 (step -0.4998 Ne1=   7192.0000)
            Final RMS occupancy error   :  0.000000 (Ne1=   7192.0000)
               Final occupancy bounds   : [ -0.0000,  1.0000]
================================================================================

    6        -1.161197203789E+04     3.7415E-05     3.3841E-05    -2.2655E-02
MG BCs: +ve charge blocks (gridpoints):     25222 (   17196078).
MG BCs: -ve charge blocks (gridpoints):      8434 (    1072526).
MG BCs:     Elided blocks (gridpoints):    175418 (  178027861).
MG BCs: Computational effort saved:  99.9829%.
MG BCs: Charge after coarse-graining:           -9.0007320.
MG DL_MG: Calling solver with defect correction order = 8
MG DL_MG: Solver finished
MG Hartree energy from (\int phi*rho dr):              1277.605940
MG Hartree energy from (\int eps (grad phi)^2 dr):     1276.955520
MG Discrepancy due to finite box and discretization:     -0.650420 (  -0.05091%)
MG Correction to account for finite box:                  0.477528
MG Remaining discrepancy, due to discretization:         -0.172892 (  -0.01353%)
      ideal mu1:      -0.751812362774
             Q0:  -11612.004111953545
             G0:      -0.080160863397
   RMS gradient:       0.000043524510
MG BCs: +ve charge blocks (gridpoints):     25219 (   17194276).
MG BCs: -ve charge blocks (gridpoints):      8434 (    1072961).
MG BCs:     Elided blocks (gridpoints):    175421 (  178029228).
MG BCs: Computational effort saved:  99.9829%.
MG BCs: Charge after coarse-graining:           -9.0007323.
MG DL_MG: Calling solver with defect correction order = 8
MG DL_MG: Solver finished
MG Hartree energy from (\int phi*rho dr):              1276.757836
MG Hartree energy from (\int eps (grad phi)^2 dr):     1276.107353
MG Discrepancy due to finite box and discretization:     -0.650483 (  -0.05095%)
MG Correction to account for finite box:                  0.477566
MG Remaining discrepancy, due to discretization:         -0.172918 (  -0.01354%)
     Trial step:       0.919859824280
             Q1:  -11612.026355010923
 Quadratic coef:       0.051493700341
 Linear coef   :      -0.073736757718
           Qmin:  -11612.030508917653
Quadratic minimum step length (  0.658599795204) accepted
    Initial Ne1:    7192.00014111
      Final Ne1:    7192.00000000

=================== Penalty functional idempotency correction ==================
 RMS occupancy error at iteration   1:  0.000056 (step -0.4963 Ne1=   7192.0000)
            Final RMS occupancy error   :  0.000000 (Ne1=   7192.0000)
               Final occupancy bounds   : [ -0.0000,  1.0000]
================================================================================

    7        -1.161200411195E+04     4.3525E-05     3.9367E-05    -3.2074E-02
MG BCs: +ve charge blocks (gridpoints):     25221 (   17194789).
MG BCs: -ve charge blocks (gridpoints):      8434 (    1072856).
MG BCs:     Elided blocks (gridpoints):    175419 (  178028820).
MG BCs: Computational effort saved:  99.9829%.
MG BCs: Charge after coarse-graining:           -9.0007322.
MG DL_MG: Calling solver with defect correction order = 8
MG DL_MG: Solver finished
MG Hartree energy from (\int phi*rho dr):              1276.997102
MG Hartree energy from (\int eps (grad phi)^2 dr):     1276.346634
MG Discrepancy due to finite box and discretization:     -0.650468 (  -0.05094%)
MG Correction to account for finite box:                  0.477558
MG Remaining discrepancy, due to discretization:         -0.172910 (  -0.01354%)
      ideal mu1:      -0.751146541985
             Q0:  -11612.030540801235
             G0:      -0.070329166904
   RMS gradient:       0.000040754047
MG BCs: +ve charge blocks (gridpoints):     25220 (   17194894).
MG BCs: -ve charge blocks (gridpoints):      8434 (    1072738).
MG BCs:     Elided blocks (gridpoints):    175420 (  178028833).
MG BCs: Computational effort saved:  99.9829%.
MG BCs: Charge after coarse-graining:           -9.0007322.
MG DL_MG: Calling solver with defect correction order = 8
MG DL_MG: Solver finished
MG Hartree energy from (\int phi*rho dr):              1276.879634
MG Hartree energy from (\int eps (grad phi)^2 dr):     1276.229281
MG Discrepancy due to finite box and discretization:     -0.650354 (  -0.05093%)
MG Correction to account for finite box:                  0.477377
MG Remaining discrepancy, due to discretization:         -0.172976 (  -0.01355%)
     Trial step:       0.778344070375
             Q1:  -11612.064500127919
[...]
 RMS occupancy error at iteration   1:  0.000000 (step -0.5000 Ne1=   7192.0000)
            Final RMS occupancy error   :  0.000000 (Ne1=   7192.0000)
               Final occupancy bounds   : [  0.0000,  1.0000]
================================================================================

    7        -1.164823914675E+04     3.7519E-09     3.3935E-09     0.0000E+00

Reusing previously generated solute cavity.
MG BCs: +ve charge blocks (gridpoints):     29441 (   19345588).
MG BCs: -ve charge blocks (gridpoints):      8435 (    1050178).
MG BCs:     Elided blocks (gridpoints):    171199 (  175900699).
MG BCs: Computational effort saved:  99.9807%.
MG BCs: Charge after coarse-graining:           -9.0009842.
MG DL_MG: Calling solver with defect correction order = 8
MG DL_MG: Solver finished
MG Hartree energy from (\int phi*rho dr):              1228.939546
MG Hartree energy from (\int eps (grad phi)^2 dr):     1228.760607
MG Discrepancy due to finite box and discretization:     -0.178940 (  -0.01456%)
MG Correction to account for finite box:                  0.006475
MG Remaining discrepancy, due to discretization:         -0.172464 (  -0.01403%)
      ideal mu1:      -0.514242532462
             Q0:  -11648.239146749489
             G0:      -0.000000000902
   RMS gradient:       0.000000003357

Reusing previously generated solute cavity.
MG BCs: +ve charge blocks (gridpoints):     29441 (   19345588).
MG BCs: -ve charge blocks (gridpoints):      8435 (    1050178).
MG BCs:     Elided blocks (gridpoints):    171199 (  175900699).
MG BCs: Computational effort saved:  99.9807%.
MG BCs: Charge after coarse-graining:           -9.0009842.
MG DL_MG: Calling solver with defect correction order = 8
MG DL_MG: Solver finished
MG Hartree energy from (\int phi*rho dr):              1228.939552
MG Hartree energy from (\int eps (grad phi)^2 dr):     1228.760612
MG Discrepancy due to finite box and discretization:     -0.178940 (  -0.01456%)
MG Correction to account for finite box:                  0.006475
MG Remaining discrepancy, due to discretization:         -0.172464 (  -0.01403%)
     Trial step:       0.158353196123
             Q1:  -11648.239146749373
 Quadratic coef:       0.000000000260
 Linear coef   :      -0.000000000143
           Qmin:  -11648.239146749509
Quadratic minimum step length (  0.043494457129) accepted
    Initial Ne1:    7192.00000000
      Final Ne1:    7192.00000000

=================== Penalty functional idempotency correction ==================
 RMS occupancy error at iteration   1:  0.000000 (step -0.5000 Ne1=   7192.0000)
            Final RMS occupancy error   :  0.000000 (Ne1=   7192.0000)
               Final occupancy bounds   : [ -0.0000,  1.0000]
================================================================================

    8        -1.164823914675E+04     3.3566E-09     3.0360E-09     1.1642E-10

Reusing previously generated solute cavity.
MG BCs: +ve charge blocks (gridpoints):     29441 (   19345588).
MG BCs: -ve charge blocks (gridpoints):      8435 (    1050178).
MG BCs:     Elided blocks (gridpoints):    171199 (  175900699).
MG BCs: Computational effort saved:  99.9807%.
MG BCs: Charge after coarse-graining:           -9.0009842.
MG DL_MG: Calling solver with defect correction order = 8
MG DL_MG: Solver finished
MG Hartree energy from (\int phi*rho dr):              1228.939548
MG Hartree energy from (\int eps (grad phi)^2 dr):     1228.760608
MG Discrepancy due to finite box and discretization:     -0.178940 (  -0.01456%)
MG Correction to account for finite box:                  0.006475
MG Remaining discrepancy, due to discretization:         -0.172464 (  -0.01403%)
      ideal mu1:      -0.514242532288
             Q0:  -11648.239146749489
             G0:      -0.000000001057
   RMS gradient:       0.000000003038

Reusing previously generated solute cavity.
MG BCs: +ve charge blocks (gridpoints):     29441 (   19345588).
MG BCs: -ve charge blocks (gridpoints):      8435 (    1050178).
MG BCs:     Elided blocks (gridpoints):    171199 (  175900699).
MG BCs: Computational effort saved:  99.9807%.
MG BCs: Charge after coarse-graining:           -9.0009842.
MG DL_MG: Calling solver with defect correction order = 8
MG DL_MG: Solver finished
MG Hartree energy from (\int phi*rho dr):              1228.939552
MG Hartree energy from (\int eps (grad phi)^2 dr):     1228.760612
MG Discrepancy due to finite box and discretization:     -0.178940 (  -0.01456%)
MG Correction to account for finite box:                  0.006475
MG Remaining discrepancy, due to discretization:         -0.172464 (  -0.01403%)
     Trial step:       0.082990880824
             Q1:  -11648.239146749373
 Quadratic coef:       0.000000000204
 Linear coef   :      -0.000000000088
           Qmin:  -11648.239146749498
Quadratic minimum step length (  0.017867632902) accepted
    Initial Ne1:    7192.00000000
      Final Ne1:    7192.00000000

=================== Penalty functional idempotency correction ==================
 RMS occupancy error at iteration   1:  0.000000 (step -0.5000 Ne1=   7192.0000)
            Final RMS occupancy error   :  0.000000 (Ne1=   7192.0000)
               Final occupancy bounds   : [ -0.0000,  1.0000]
================================================================================

    9        -1.164823914675E+04     3.0380E-09     2.7478E-09     0.0000E+00

Reusing previously generated solute cavity.
MG BCs: +ve charge blocks (gridpoints):     29441 (   19345588).
MG BCs: -ve charge blocks (gridpoints):      8435 (    1050178).
MG BCs:     Elided blocks (gridpoints):    171199 (  175900699).
MG BCs: Computational effort saved:  99.9807%.
MG BCs: Charge after coarse-graining:           -9.0009842.
MG DL_MG: Calling solver with defect correction order = 8
MG DL_MG: Solver finished
MG Hartree energy from (\int phi*rho dr):              1228.939549
MG Hartree energy from (\int eps (grad phi)^2 dr):     1228.760609
MG Discrepancy due to finite box and discretization:     -0.178940 (  -0.01456%)
MG Correction to account for finite box:                  0.006475
MG Remaining discrepancy, due to discretization:         -0.172464 (  -0.01403%)
      ideal mu1:      -0.514242532166
   10        -1.164823914675E+04     2.8756E-09     2.6009E-09     0.0000E+00
Finished density kernel iterations (  10)

Writing density kernel to file "host_23281.dkn" ... done


>>> Density kernel optimised for the current NGWF basis:
     ~~~~~~~~~~~~~~~~~~~~~~~~~~~~~~~~~~~~~~~~~~~~~~~~~~~~~~~~~~~
     Total energy                =  -1.16482391467495E+04  Eh
     Estimated bandgap           =   1.1250E-01  Eh
     RMS occupancy error         =   2.6937E-16
     [H,K] commutator            =   2.6009E-09
     Occupancy bounds            = [  0.000:  1.000]
     ~~~~~~~~~~~~~~~~~~~~~~~~~~~~~~~~~~~~~~~~~~~~~~~~~~~~~~~~~~~




################################################################################
########################### NGWF CG iteration  005 #############################
################################################################################
****** Reciprocal space K.E. preconditioning with k_zero =  3.5000 a0^-1 *******

>>> Checking for convergence of NGWFs: 
           ........................................................
           |         *** NGWF optimisation converged ***          |
           | RMS NGWF gradient =    0.00000101644998              |
           | Criteria satisfied:                                  |
           | -> RMS NGWF gradient lower than set threshold.       |
           ========================================================

Reusing previously generated solute cavity.
MG BCs: +ve charge blocks (gridpoints):     29441 (   19345588).
MG BCs: -ve charge blocks (gridpoints):      8435 (    1050178).
MG BCs:     Elided blocks (gridpoints):    171199 (  175900699).
MG BCs: Computational effort saved:  99.9807%.
MG BCs: Charge after coarse-graining:           -9.0009842.
MG DL_MG: Calling solver with defect correction order = 8
MG DL_MG: Solver finished
MG Hartree energy from (\int phi*rho dr):              1228.939549
MG Hartree energy from (\int eps (grad phi)^2 dr):     1228.760609
MG Discrepancy due to finite box and discretization:     -0.178940 (  -0.01456%)
MG Correction to account for finite box:                  0.006475
MG Remaining discrepancy, due to discretization:         -0.172464 (  -0.01403%)

================================================================================
           ---------------- ENERGY COMPONENTS (Eh) ----------------
           | Kinetic                    :     8409.94854400940312 |
           | Pseudo. (local,OBC,corr'd) :    -4990.48184232541280 |
           | Pseudopotential (non-local):     1446.24300759891048 |
           | Hartree (molecular)        :     1228.93954862910073 |
           | Exchange-correlation       :    -3334.31063999716571 |
           | Ion-ion (open BC)          :   827162.02916952571832 |
           | Smeared ion non-self corr. :  -827114.07793314347509 |
           | Smeared ion self corr.     :   -14457.16956389741972 |
           | Solvent cavitation energy  :        2.27897483191030 |
           | Solute-solvent dis-rep en. :       -1.63841198103111 |
           | Total                      :   -11648.23914674947628 |
           --------------------------------------------------------
           ------ LOCAL ENERGY COMPONENTS FROM MATRIX TRACES ------
           | Pseudopotential (local)    :    -4990.48184232542280 |
           | Hartree                    :    -1985.74194398930786 |
           --------------------------------------------------------
           Integrated density           :     7191.99999999802549
           Integrated density tr(KS)    :     7191.99999999999909
================================================================================


                        <<<<< CALCULATION SUMMARY >>>>>                         
|ITER|    RMS GRADIENT   |     TOTAL ENERGY    |   step   |     Epredicted              
   0     0.00003854353595 -11648.18729080457706   0.546560 -11648.23210736901456        
   1     0.00001220943534 -11648.23805309948511   0.111835 -11648.23897326652514        
   2     0.00000529256809 -11648.23911111720372   0.019501 -11648.23914126687487        
   3     0.00000232170182 -11648.23914541327395   0.003814 -11648.23914654811415        
   4     0.00000101644998 -11648.23914674948901  <-- CG                                 

=================== Finished the calculation in solvent ========================
= Adjusting the following parameters: 
= read_denskern: F
= read_tightbox_ngwfs: F
= maxit_pen: 0 (restored to user-specified value)
= restart read filename prefix: ""
= restart write filename prefix: ""
================================================================================

================================================================================
IS: Calculation in solvent completed (NGWFs converged).      

Individual components of total energy in solvent:     hartree           kcal/mol
- Usual non-electrostatic DFT terms:    -12877.81925822946869    -8080953.414494
- Electrostatic fixed charge energy:      1228.93954862910073      771171.193085
- Apolar cavitation energy:                  2.27897483191030        1430.078267
- Apolar dispersion-repulsion energy:       -1.63841198103111       -1028.119018
 -------------------------------------------------------------------------------
- Total energy in solvent:              -11648.23914674948901    -7309380.262160

Components of total energy in solvent:                hartree           kcal/mol
- Usual non-electrostatic DFT terms:    -12877.81925822946869    -8080953.414494
- Electrostatic energy:                   1228.93954862910073      771171.193085
- Apolar energy terms:                       0.64056285087919         401.959249
 -------------------------------------------------------------------------------
- Total energy in solvent:              -11648.23914674948901    -7309380.262160

Calculation of free energy of solvation:              hartree           kcal/mol
- Total energy in solvent:         (+)  -11648.23914674948901    -7309380.262160
- Total energy in vacuum:          (-)  -11644.28475957759656    -7306898.846800
 -------------------------------------------------------------------------------
- Total free energy of solvation:           -3.95438717189245       -2481.415361

Components of polar term in f.e. of solvation:        hartree           kcal/mol
- Electrostatic:                            -4.90896764501008       -3080.423638
- Change in nonelectrostatic DFT terms:      0.31401762223868         197.049029
 -------------------------------------------------------------------------------
- Polar term in f.e. of solvation:          -4.59495002277140       -2883.374610

Components of free energy of solvation:               hartree           kcal/mol
- Polar term in f.e. of solvation: (+)      -4.59495002277140       -2883.374610
- Apolar (cavitation, dis., rep.): (+)       0.64056285087919         401.959249
 -------------------------------------------------------------------------------
- Total free energy of solvation:           -3.95438717189221       -2481.415361
================================================================================


------------------------------ TIMING INFORMATION ------------------------------
AVERAGE TIME:   80797.028s on     40 node(s)                                    
TOTAL TIME:     80797.029s on     40 node(s)                                    
================= AVERAGE TIMINGS FROM ALL NODES (CUMULATIVE) ==================
|| TAG                                    #calls    cpu time   %total  Gflops ||
|| work_imbalance                       :     1        0.00s   0.000%  ------ ||
|| parallel_prepare_fd_halos_request    :  2307        0.02s   0.000%  ------ ||
|| sparse_set_to_garbage                :   246        0.06s   0.000%  ------ ||
|| parallel_prepare_fd_halos_satisfy    :  2307        0.07s   0.000%  ------ ||
|| parallel_prepare_fd_halos_alloc      :  2307        0.08s   0.000%  ------ ||
|| ngwfs_initialise_from_radial         :     1        0.17s   0.000%  ------ ||
|| basis_extract_function_from_box      :  6342        0.22s   0.000%  ------ ||
|| restart_ngwfs_tightbox_input         :     1        0.89s   0.001%  ------ ||
|| pseudopotentials_nonlocal_mat        :    36        1.47s   0.002%  ------ ||
|| restart_kernel_read                  :     1        3.01s   0.004%  ------ ||
|| parallel_prepare_fd_halos_comms_imbal:  2307        4.37s   0.005%  ------ ||
|| openbc_locps_radial                  :     1        4.41s   0.005%  ------ ||
|| density_init_guess_real              :     1       10.62s   0.013%  ------ ||
|| parallel_prepare_fd_halos_clear      :  2307       16.46s   0.020%  ------ ||
|| sparse_init                          :     2       23.01s   0.028%  ------ ||
|| projectors_func_ovlp_box             :    36       28.80s   0.036%  ------ ||
|| parallel_prepare_fd_halos_comms_wait :  2307       29.25s   0.036%  ------ ||
|| projectors_init_fftbox_recip         :   245       32.94s   0.041%  ------ ||
|| restart_kernel_write                 :    20       33.59s   0.042%  ------ ||
|| function_ops_brappd_ketppd           :    36       33.76s   0.042%  ------ ||
|| palser_mano_kernel_optimise          :     1       44.93s   0.056%  ------ ||
|| parallel_prepare_fd_halos            :  2307       50.26s   0.062%  ------ ||
|| pseudo_make_structure_factor         :     2       53.97s   0.067%  ------ ||
|| ngwf_gradient_coeffs                 :    19       74.99s   0.093%  ------ ||
|| sparse_embed_hotelling_invert_embed  :    36      111.04s   0.137%  ------ ||
|| restart_ngwfs_tightbox_output        :    17      118.92s   0.147%  ------ ||
|| finite_difference_derivative         :  2307      127.33s   0.158%  ------ ||
|| basis_copy_function_to_box           : 196.5k     139.49s   0.173%  ------ ||
|| openbc_locps_on_grid                 :     2      198.59s   0.246%  ------ ||
|| integrals_kinetic                    :    36      216.62s   0.268%  ------ ||
|| projectors_gradient_batch            :   209      260.74s   0.323%  ------ ||
|| sparse_trace                         :  6266      322.83s   0.400%  ------ ||
|| fourier_apply_box_pair               : 55525      382.93s   0.474% 596.078 ||
|| kernel_purify                        :   588      416.24s   0.515%  ------ ||
|| basis_dot_function_with_box          : 22.39M     418.07s   0.517%  ------ ||
|| lnv_gradient_norm                    :   190      663.39s   0.821%  ------ ||
|| hamiltonian_energy_components        :     4      747.37s   0.925%  ------ ||
|| kernel_fix                           :   190      752.64s   0.932%  ------ ||
|| integrals_locpot_mat_els_batch       :  2189     1082.71s   1.340%  ------ ||
|| basis_add_function_to_box            : 59.99M    1115.65s   1.381%  ------ ||
|| ke_density_batch_grad_apply          :  4213     1272.83s   1.575%  ------ ||
|| ke_density_batch_row_sums            :  4213     1525.40s   1.888%  ------ ||
|| density_batch_row_sums               :  4213     1526.85s   1.890%  ------ ||
|| fourier_apply_cell_backward          : 10348     1743.15s   2.157%  81.998 ||
|| density_fftbox_deposit_to_cell       : 62429     1891.18s   2.341%  ------ ||
|| ke_density_fftbox_deposit_to_cell    : 62429     2046.05s   2.532%  ------ ||
|| fourier_apply_cell_forward           : 10346     2047.86s   2.535%  69.784 ||
|| cell_grid_deposit_box_real           : 127.2k    2239.64s   2.772%  ------ ||
|| sparse_product                       :  7875     2532.24s   3.134%  ------ ||
|| cell_grid_extract_box_real           : 156.9k    2569.07s   3.180%  ------ ||
|| multigrid_prepare_bound_cond         :   384     2957.24s   3.660%  ------ ||
|| ngwf_gradient_build_batch            :   209     3002.59s   3.716%  ------ ||
|| ngwf_gradient_batch                  :   209     3364.97s   4.165%  ------ ||
|| ngwf_gradient_lnv                    :    19     3581.99s   4.433%  ------ ||
|| potential_apply_to_ngwf_batch        :  2189     4085.09s   5.056%  ------ ||
|| density_fftbox_interpolate_multiply  : 62429     4653.49s   5.759%  ------ ||
|| xc_energy_potential                  :   384     5088.88s   6.298%  ------ ||
|| integrals_locpot_dbl_grid            :   199     5187.02s   6.420%  ------ ||
|| density_batch_interp_deposit         :  4213     7415.78s   9.178%  ------ ||
|| dl_mg_solver_calls                   :   384     8317.71s  10.295%  ------ ||
|| nlxc_vdw_energy                      :   766     8508.66s  10.531%  ------ ||
|| density_on_dbl_grid                  :   383     9480.00s  11.733%  ------ ||
|| potential_apply_to_fftbox_batch      :  6270    11012.42s  13.630%  ------ ||
|| multigrid_calculate_hartree          :   384    11459.55s  14.183%  ------ ||
|| integrals_div_locpot_grad_functions  :   190    16403.98s  20.303%  ------ ||
|| ke_density_fftbox_interpolate_multipl: 62429    18405.42s  22.780%  ------ ||
|| ke_density_batch_interp_deposit      :  4213    21391.72s  26.476%  ------ ||
|| fourier_apply_box                    : 1.418M   23986.07s  29.687% 804.489 ||
|| ke_density_on_dbl_grid               :   383    24759.37s  30.644%  ------ ||
|| hamiltonian_lhxc_calculate           :   379    50814.99s  62.892%  ------ ||
|| lnv_denskernel_optimise_cg           :    19    72673.25s  89.945%  ------ ||
|| ngwf_cg_optimise                     :     2    79967.85s  98.974%  ------ ||
|| total_time                           :     1    80797.03s 100.000%  ------ ||
================================================================================
Overhead of generating timer report: 
- 0 ms averaging over threads,
- 7 ms ensuring consistency across MPI ranks,
- 2 ms printing in order.

Job completed: 25-02-2020 22:45 (-0000)

