 +---------------------------------------------------------------+
 |                                                               |
 |        ####### #     # ####### ####### ####### ######         |
 |        #     # ##    # #          #    #       #     #        |
 |        #     # # #   # #          #    #       #     #        |
 |        #     # #  #  # #####      #    #####   ######         |
 |        #     # #   # # #          #    #       #              |
 |        #     # #    ## #          #    #       #              |
 |        ####### #     # #######    #    ####### #              |
 |                                                               |
 |        Linear-Scaling Ab Initio Total Energy Program          |
 |                                                               |
 |          Release for academic collaborators of ODG            |
 |                                             Version 5.3.2.6.  |
 |                                                               |
 +---------------------------------------------------------------+
 |                                                               |
 |  Authors:                                                     |
 |  Jacek Dziedzic, Peter D. Haynes, Nicholas D. M. Hine,        |
 |  Arash. A. Mostofi, Mike C. Payne and Chris-Kriton Skylaris   |
 |                                                               |
 |  Contributors:                                                |
 |  J. Aarons, L. Andrinopoulos, P. W. Avraam, R. A. Bell,       |
 |  A. Bhandari, G. A. Bramley, R. J. Charlton, S. J. Clark,     |
 |  R. J. Clements, G. C. Constantinescu, F. Corsetti,           |
 |  N. Corsini, O. Dieguez, S. M. M. Dubois, K. K. B. Duff,      |
 |  J. M. Escartin, A. Greco, H. Helal, Q. O. Hill, L. P. Lee,   |
 |  J.-H. Li, E. B. Linscott, G. Moynihan, D. D. O`Regan,        |
 |  O. K. Okan, M. J. S. Phipps, C. J. Pickard,                  |
 |  J. C. A. Prentice, M. I. J. Probert, L. E. Ratcliff,         |
 |  M. Robinson, A. Ruiz Serrano, J. S. Spencer, E. W. Tait,     |
 |  G. Teobaldi, D. Turban, V. Vitale, K. A. Wilkinson,          |
 |  C. Weber, J. C. Womack, N. Yeung and T. J. Zuehlsdorff       |
 |                                                               |
 |                                   Copyright (c) 2004-2019     |
 |                                                               |
 |  Please cite:                                                 |
 |  "Introducing ONETEP: Linear-scaling density functional       |
 |   simulations on parallel computers".                         |
 |   C.-K. Skylaris, P. D. Haynes, A. A. Mostofi, M. C. Payne.   |
 |   J. Chem. Phys. 122 084119 (2005).                           |
 |                                                               |
 |          in all publications arising from your use of ONETEP. |
 |                                                               |
 +---------------------------------------------------------------+
 |                                                               |
 |   ONETEP is based on developments described in the following  |
 |   publications:                                               |
 |                                                               |
 |  "Nonorthogonal generalized Wannier function pseudopotential  |
 |   plane-wave method".                                         |
 |   C.-K. Skylaris, A. A. Mostofi, P. D. Haynes, O. Dieguez,    |
 |   M. C. Payne.                                                |
 |   Phys. Rev. B 66 035119 (2002).                              |
 |                                                               |
 |  "Preconditioned iterative minimization for linear-scaling    |
 |   electronic structure calculations".                         |
 |   A. A. Mostofi, P. D. Haynes, C.-K. Skylaris, M. C. Payne.   |
 |   J. Chem. Phys. 119(17), pp.8842-8848 (2003).                |
 |                                                               |
 |  "Total-energy calculations on a real space grid with         |
 |   localized functions and a plane-wave basis".                |
 |   A. A. Mostofi, C.-K. Skylaris, P. D. Haynes, M. C. Payne.   |
 |   Comput. Phys. Commun. 147, pp.788-802 (2002).               |
 |                                                               |
 |  "Accurate kinetic energy evaluation in electronic structure  |
 |   calculations with localized functions on real space grids"  |
 |   C.-K. Skylaris, A. A. Mostofi, P. D. Haynes, C. J. Pickard, |
 |   M. C. Payne.                                                |
 |   Comput. Phys. Commun. 140, pp.315-322 (2001).               |
 |                                                               |
 |  "Accurate ionic forces and geometry optimization in linear-  |
 |   scaling density-functional theory with local orbitals"      |
 |   N. D. M. Hine, M. Robinson, P. D. Haynes, C.-K. Skylaris,   |
 |   M. C. Payne, and A. A. Mostofi.                             |
 |   Phys. Rev. B 83 195102 (2011).                              |
 |                                                               |
 +---------------------------------------------------------------+

Job started: 05-03-2020 09:42 (-0000)
 
Reading parameters from file "host_38481.dat" ...... done

If your calculation crashes here, before "Checking processes and threads..."
is displayed, then your stack size is insufficient.
If so, use "ulimit -s unlimited" at runtime.
You can disable this check with "check_stack_size F".

Checking processes and threads...
   Determining the default number of threads...
      No default threads set at compilation time: defaulting to 1.
      OpenMP library call suggests 4 threads.
      Hybrid MPI-OpenMP compilation detected.
      Number of MPI processes > 1.
      OMP_NUM_THREADS environment variable present and
      its value matches the one obtained from the OpenMP library call.
      Using this value as default.
      Default threads: 4
      Default applies to threads_max and threads_num_fftboxes.
      Settings in the input file override this default.
   ... done

   Running with 40 MPI processes.
   There are 10 MPI processes running on the same node as the root process.
   Each MPI process is using: 
               1 threads for simulation cell FFTs.
               1 threads for parallel FFT box operations.
               4 threads for loops over batched FFT box operations.
               4 threads in other parallel regions.
... done

Basic input checks...... done

Reading geometry and species blocks from file "host_38481.dat" ...
  <species_atomic_set> block not found: NGWF initialisation set to SOLVE
IS: Dielectric excluded regions:
    - NONE.
    
  Number of PPD points along a3 set to 1.  This is 
  the default value, it may have been provided also in the input file.
... done
 Writing xyz coordinates to file "host_38481.xyz" ... done


--------------------------------------------------------------------------------
---------------------------------- INPUT FILE ----------------------------------
--------------------------------------------------------------------------------

cutoff_energy       : 800 eV                                                    
xc_functional B97M-V                                                            
task SINGLEPOINT                                                                
write_xyz true                                                                  
output_detail VERBOSE                                                           
ngwf_threshold_orig : 0.000002                                                  
kernel_cutoff       : 1000                                                      
k_zero              : 3.5                                                       
elec_cg_max 0                                                                   
occ_mix 1.0                                                                     
dispersion 0                                                                    
maxit_ngwf_cg 40                                                                
minit_lnv 10                                                                    
maxit_lnv 10                                                                    
write_denskern T                                                                
write_tightbox_ngwfs T                                                          
charge 9                                                                        
is_implicit_solvent T                                                           
is_auto_solvation T                                                             
is_include_apolar T                                                             
is_smeared_ion_rep T                                                            
is_solvent_surf_tension 4.7624E-5 Ha/bohr**2                                    
is_apolar_scaling_factor 0.281075                                               
is_solvation_beta 1.3                                                           
is_density_threshold 0.00035                                                    
is_bulk_permittivity 78.54                                                      
is_dielectric_model fix_initial                                                 
is_smeared_ion_width 0.8                                                        
mg_defco_fd_order 8                                                             
is_bc_coarseness 10                                                             
is_bc_surface_coarseness 1                                                      
fine_grid_scale 2.0                                                             
%block species                                                                  
N   N   7 4 8.0                                                                 
H   H   1 1 8.0                                                                 
C   C   6 4 8.0                                                                 
S   S  16 9 8.0                                                                 
O   O   8 4 8.0                                                                 
%endblock species                                                               
%block species_pot                                                              
N   N_00.recpot                                                                 
H   H_04.recpot                                                                 
C   C_01.recpot                                                                 
S   S_00.recpot                                                                 
O   O_02.recpot                                                                 
%endblock species_pot                                                           
%block lattice_cart                                                             
137.614   0.000   0.000                                                         
0.000 142.646   0.000                                                           
0.000   0.000   160.855                                                         
%endblock lattice_cart                                                          
%block positions_abs                                                            
     Hash =  -000004708998633109409916
%endblock positions_abs                                                         

--------------------------------------------------------------------------------
-------------------------------- END INPUT FILE --------------------------------
--------------------------------------------------------------------------------


 
 ESDF WARNING(1): "kernelcutoff" (esdf_physical) has no units. Assume "bohr".
 ESDF WARNING(2): "kzero" (esdf_physical) has no units. Assume "1/bohr".
 ESDF WARNING(3
 ): "issmearedionwidth" (esdf_physical) has no units. Assume "bohr".
<<<<<<<<<<<<<<<<<<<<<<<<<<<<<<<<< Full system >>>>>>>>>>>>>>>>>>>>>>>>>>>>>>>>>>
<<<<<<<<<<<<<<<<<<<<<<<<< Pseudopotential information >>>>>>>>>>>>>>>>>>>>>>>>>>
File: N_00.recpot [ 2001 points up to Gmax=  52.9 (1/bohr)]
  Atomic number:  7;  ionic charge:  5.000000
    Shell 1: l = 0; rc = 1.48 bohr
File: H_04.recpot [ 2001 points up to Gmax=  52.9 (1/bohr)]
  Atomic number:  1;  ionic charge:  1.000000
    Local potential
File: C_01.recpot [ 2001 points up to Gmax=  52.9 (1/bohr)]
  Atomic number:  6;  ionic charge:  4.000000
    Shell 1: l = 0; rc = 1.48 bohr
File: S_00.recpot [ 2001 points up to Gmax=  52.9 (1/bohr)]
  Atomic number: 16;  ionic charge:  6.000000
    Shell 1: l = 0; rc = 1.90 bohr
    Shell 2: l = 2; rc = 1.84 bohr
File: O_02.recpot [ 2001 points up to Gmax=  52.9 (1/bohr)]
  Atomic number:  8;  ionic charge:  6.000000
    Shell 1: l = 0; rc = 1.31 bohr
<<<<<<<<<<<<<<<<<<<<<<<<<<<<<<<<<<<<<<<<>>>>>>>>>>>>>>>>>>>>>>>>>>>>>>>>>>>>>>>>

-------------------------- Atom counting information ---------------------------
Symbol    Natoms    Nngwfs    Nprojs
  N        236       944       236
  H       1311      1311         0
  C        810      3240       810
  S          6        54        36
  O        239       956       239
.......   ......    ......    ......
Totals:   2602      6505      1321
--------------------------------------------------------------------------------

=============================== PSINC grid sizes ===============================
                      Simulation cell:  273 x 286 x 320
                              FFT-box:   99 x 105 x  99
                                  PPD:    7 x  11 x   1
Grid space d1=  0.504080586081a0 (KE cutoff=  29.89538Eh = 813.49465eV)
Grid space d2=  0.498762237762a0 (KE cutoff=  30.53633Eh = 830.93588eV)
Grid space d3=  0.502671875000a0 (KE cutoff=  30.06317Eh = 818.06059eV)
================================================================================

********************* Fourier parallelisation information **********************
       Coarse grid (whole simulation cell) dimensions:    273   286   320
          Real-space ('12') slabs/node (min max mean):      8     8     8
         Recip-space ('23') slabs/node (min max mean):      3     4     3
********************************************************************************

********************* Fourier parallelisation information **********************
       Double grid (whole simulation cell) dimensions:    546   572   640
          Real-space ('12') slabs/node (min max mean):     16    16    16
         Recip-space ('23') slabs/node (min max mean):      6     7     6
********************************************************************************
ONETEP fine grid is 546 x 572 x 640 gridpoints, 137.6140 x 142.6460 x 160.8550 bohr.
FD multigrid is     545 x 569 x 633 gridpoints, 137.3620 x 141.8979 x 159.0956 bohr.


Calculating local pseudopotential in open BC on a radial grid ...
Discrepancy between calculated realspace psloc and -Z/x on [5a0,255.264a0]:
max |rel. diff| # avg |rel. diff| #  avg rel. diff #  f # pseudopotential file
 0.000296759711    0.000009439468   0.000000085927   54  'N_00.recpot'
 0.000490027943    0.000021572324  -0.000000031900   54  'H_04.recpot'
 0.000320795249    0.000014598087   0.000000111901   54  'C_01.recpot'
 0.000388730920    0.000016096375   0.000000514750   54  'S_00.recpot'
 0.000828383344    0.000035421288   0.000000087443   54  'O_02.recpot'
... done
 WARNING: meta-GGA functionality under development.
          Using this functional is experimental.
          Minimum tau threshold, xc_min_tau =   1.00000000E-12
 WARNING: Using alternative XC functional PBE for 
          radial densities (xc_radial).

Atom SCF Calculation for N  : Z (AE atom) =   7 : Z (PS atom) =   5
Config String:
Orbitals (num,occ):  2     2.00 3.00
Orbitals   (num,l):  2        0    1
Real-space Grid (nr,dr,rmax): 1203    0.0066555740    8.0000000000
Spherical Bessel Basis (nsws,lmax,cutoff):   47    1  176.3951722778
Confining potential (l,width,scale):  0    3.0000000000  100.0000000000
Confining potential (l,width,scale):  1    3.0000000000  100.0000000000
  1         -4.7312375307   -3.4155304497    7.0523828109   -1.9351020946
  2         -9.7309464766   -2.0532547791    8.2966052865   -2.2494486027
  3         -9.6627394379   -2.1124926340    8.2327997121   -2.2369778124
  4         -9.6814993499   -2.1215521045    8.2229805960   -2.2365178421
  5         -9.6843326483   -2.1250939529    8.2191374534   -2.2362718126
  6         -9.6859628709   -2.1267894855    8.2172963573   -2.2362066344
  7         -9.6867347035   -2.1276425665    8.2163697352   -2.2361903369
  8         -9.6870802100   -2.1280764625    8.2158983890   -2.2361891460
  9         -9.6872290423   -2.1282977424    8.2156580222   -2.2361920435
 10         -9.6872901988   -2.1284107021    8.2155353368   -2.2361953393
 11         -9.6873135296   -2.1284684031    8.2154726809   -2.2361979819
 12         -9.6873212476   -2.1284978948    8.2154406648   -2.2361998431
 13         -9.6873229586   -2.1285129774    8.2154242957   -2.2362010676
 14         -9.6873226456   -2.1285206957    8.2154159216   -2.2362018403
 15         -9.6873218534   -2.1285246479    8.2154116349   -2.2362023142
 16         -9.6873212599   -2.1285262679    8.2154098784   -2.2362025420
 17         -9.6873207834   -2.1285272564    8.2154088068   -2.2362026955
 18         -9.6873204210   -2.1285278597    8.2154081529   -2.2362027982
 19         -9.6873201550   -2.1285282280    8.2154077538   -2.2362028667
 20         -9.6873199645   -2.1285284529    8.2154075102   -2.2362029121
 21         -9.6873198305   -2.1285285903    8.2154073614   -2.2362029421
 22         -9.6873197377   -2.1285286742    8.2154072705   -2.2362029618
Atom SCF converged after  22 iterations to a total energy of     -9.68731974

Atom SCF Calculation for H  : Z (AE atom) =   1 : Z (PS atom) =   1
Config String:
Orbitals (num,occ):  1     1.00
Orbitals   (num,l):  1        0
Real-space Grid (nr,dr,rmax): 1203    0.0066555740    8.0000000000
Spherical Bessel Basis (nsws,lmax,cutoff):   47    0  176.3951722778
Confining potential (l,width,scale):  0    3.0000000000  100.0000000000
  1         -0.3194257691   -0.2393854593    0.2820953124   -0.2424203209
  2         -0.3951823392   -0.2377116493    0.2886404059   -0.2475147891
  3         -0.4317044583   -0.2352244387    0.2921333887   -0.2514046172
  4         -0.4470703708   -0.2341892222    0.2934391879   -0.2531009782
  5         -0.4532132900   -0.2338556667    0.2938388426   -0.2537313520
  6         -0.4556579251   -0.2337612552    0.2939448584   -0.2539550462
  7         -0.4566418315   -0.2337377355    0.2939680120   -0.2540342273
  8         -0.4570437922   -0.2337331116    0.2939708287   -0.2540627372
  9         -0.4572102946   -0.2337328328    0.2939698291   -0.2540732650
 10         -0.4572800424   -0.2337332404    0.2939687193   -0.2540772588
 11         -0.4573095100   -0.2337335791    0.2939680317   -0.2540788122
 12         -0.4573220379   -0.2337337762    0.2939676699   -0.2540794294
 13         -0.4573273880   -0.2337338775    0.2939674931   -0.2540796787
 14         -0.4573296803   -0.2337339266    0.2939674099   -0.2540797808
 15         -0.4573306647   -0.2337339495    0.2939673718   -0.2540798230
 16         -0.4573310882   -0.2337339601    0.2939673545   -0.2540798406
 17         -0.4573312706   -0.2337339649    0.2939673467   -0.2540798479
 18         -0.4573313493   -0.2337339670    0.2939673433   -0.2540798510
Atom SCF converged after  18 iterations to a total energy of     -0.45733135

Atom SCF Calculation for C  : Z (AE atom) =   6 : Z (PS atom) =   4
Config String:
Orbitals (num,occ):  2     2.00 2.00
Orbitals   (num,l):  2        0    1
Real-space Grid (nr,dr,rmax): 1203    0.0066555740    8.0000000000
Spherical Bessel Basis (nsws,lmax,cutoff):   47    1  176.3951722778
Confining potential (l,width,scale):  0    3.0000000000  100.0000000000
Confining potential (l,width,scale):  1    3.0000000000  100.0000000000
  1         -5.2976922011   -1.3069684169    4.5135249990   -1.4493313817
  2         -5.3721716256   -1.3429755895    4.4750154450   -1.4361613026
  3         -5.3809959565   -1.3617365618    4.4541655428   -1.4305930207
  4         -5.3918938866   -1.3667928461    4.4484735100   -1.4294652294
  5         -5.3956096428   -1.3688539142    4.4461376126   -1.4290734646
  6         -5.3968271862   -1.3696852393    4.4451910874   -1.4289366866
  7         -5.3972028401   -1.3700178062    4.4448112275   -1.4288900460
  8         -5.3973067903   -1.3701500158    4.4446598370   -1.4288749220
  9         -5.3973286940   -1.3702023868    4.4445997329   -1.4288704293
 10         -5.3973289850   -1.3702230869    4.4445759233   -1.4288693188
 11         -5.3973254264   -1.3702312560    4.4445665049   -1.4288691775
 12         -5.3973224003   -1.3702344755    4.4445627836   -1.4288692549
 13         -5.3973208708   -1.3702354890    4.4445616088   -1.4288693270
 14         -5.3973198783   -1.3702360102    4.4445610034   -1.4288693814
 15         -5.3973192535   -1.3702362780    4.4445606917   -1.4288694190
 16         -5.3973188684   -1.3702364155    4.4445605313   -1.4288694437
 17         -5.3973186349   -1.3702364860    4.4445604489   -1.4288694595
 18         -5.3973184951   -1.3702365221    4.4445604065   -1.4288694693
 19         -5.3973184122   -1.3702365405    4.4445603848   -1.4288694753
Atom SCF converged after  19 iterations to a total energy of     -5.39731841

Atom SCF Calculation for S  : Z (AE atom) =  16 : Z (PS atom) =   6
Config String:
Orbitals (num,occ):  3     2.00 4.00 0.00
Orbitals   (num,l):  3        0    1    2
Real-space Grid (nr,dr,rmax): 1203    0.0066555740    8.0000000000
Spherical Bessel Basis (nsws,lmax,cutoff):   47    2  176.3951722778
Confining potential (l,width,scale):  0    3.0000000000  100.0000000000
Confining potential (l,width,scale):  1    3.0000000000  100.0000000000
Confining potential (l,width,scale):  2    3.0000000000  100.0000000000
  1        -12.4735062396   -1.0328741412   10.1554312477   -2.4512393157
  2         -9.9458301913   -2.4607392455    8.3041325857   -2.0306994528
  3        -10.1450417646   -2.2931184565    8.4831893826   -2.0812538287
  4        -10.1528335592   -2.2733105793    8.5050388867   -2.0896035179
  5        -10.1571940363   -2.2633716629    8.5160794258   -2.0939370707
  6        -10.1594380571   -2.2584938667    8.5215163935   -2.0961289008
  7        -10.1605856507   -2.2561081821    8.5241804044   -2.0972291378
  8        -10.1611799191   -2.2549395235    8.5254868240   -2.0977806248
  9        -10.1614918752   -2.2543658586    8.5261285885   -2.0980571586
 10        -10.1616572884   -2.2540839121    8.5264441898   -2.0981959233
 11        -10.1617455602   -2.2539453058    8.5265994231   -2.0982656006
 12        -10.1617928447   -2.2538772062    8.5266757320   -2.0983006047
 13        -10.1618182292   -2.2538437891    8.5267131983   -2.0983181961
 14        -10.1618318741   -2.2538274201    8.5267315620   -2.0983270391
 15        -10.1618392144   -2.2538194197    8.5267405433   -2.0983314852
 16        -10.1618431651   -2.2538155200    8.5267449245   -2.0983337210
 17        -10.1618452923   -2.2538136252    8.5267470551   -2.0983348455
 18        -10.1618464380   -2.2538127080    8.5267480875   -2.0983354110
 19        -10.1618470552   -2.2538122659    8.5267485856   -2.0983356955
 20        -10.1618473878   -2.2538120540    8.5267488248   -2.0983358386
 21        -10.1618475670   -2.2538119530    8.5267489389   -2.0983359106
 22        -10.1618476637   -2.2538119053    8.5267489929   -2.0983359468
Atom SCF converged after  22 iterations to a total energy of    -10.16184766

Atom SCF Calculation for O  : Z (AE atom) =   8 : Z (PS atom) =   6
Config String:
Orbitals (num,occ):  2     2.00 4.00
Orbitals   (num,l):  2        0    1
Real-space Grid (nr,dr,rmax): 1203    0.0066555740    8.0000000000
Spherical Bessel Basis (nsws,lmax,cutoff):   47    1  176.3951722778
Confining potential (l,width,scale):  0    3.0000000000  100.0000000000
Confining potential (l,width,scale):  1    3.0000000000  100.0000000000
  1         -1.8735052164   -7.5539365035   10.1554312477   -2.4512393157
  2        -16.0318313751   -3.1285771268   13.6395848164   -3.2358799643
  3        -15.9524020423   -3.0762819706   13.6967272503   -3.2536856837
  4        -15.8521515939   -3.0781493909   13.6951909330   -3.2561700440
  5        -15.8357139793   -3.0748501933   13.6988803334   -3.2580493133
  6        -15.8246052853   -3.0740779781   13.6997881576   -3.2588327446
  7        -15.8189019501   -3.0737449687   13.7001869911   -3.2592378801
  8        -15.8159785510   -3.0736026016   13.7003615168   -3.2594475790
  9        -15.8144776168   -3.0735437994   13.7004360379   -3.2595560735
 10        -15.8137058024   -3.0735207882   13.7004667348   -3.2596122456
 11        -15.8133083127   -3.0735125946   13.7004786868   -3.2596413656
 12        -15.8131032938   -3.0735102195   13.7004828997   -3.2596564858
 13        -15.8129973902   -3.0735099286   13.7004840891   -3.2596643505
 14        -15.8129426040   -3.0735102506   13.7004842061   -3.2596684489
 15        -15.8129142203   -3.0735106556   13.7004840157   -3.2596705887
 16        -15.8128994940   -3.0735109855   13.7004837906   -3.2596717080
 17        -15.8128918425   -3.0735112169   13.7004836103   -3.2596722946
 18        -15.8128878614   -3.0735113674   13.7004834848   -3.2596726026
 19        -15.8128857871   -3.0735114608   13.7004834035   -3.2596727646
 20        -15.8128847048   -3.0735115170   13.7004833533   -3.2596728500
 21        -15.8128841394   -3.0735115501   13.7004833231   -3.2596728951
 22        -15.8128838436   -3.0735115693   13.7004833054   -3.2596729190
 23        -15.8128836887   -3.0735115802   13.7004832951   -3.2596729316
 24        -15.8128836074   -3.0735115864   13.7004832893   -3.2596729383
Atom SCF converged after  24 iterations to a total energy of    -15.81288361

========================== Calculation in vacuum ==============================
= Adjusting the following parameters: 
= is_implicit_solvent: F
= is_include_apolar: F
= write_denskern: T
= write_tightbox_ngwfs: T
= restart read filename prefix: ""
= restart write filename prefix: "vacuum_"
===============================================================================

Determining parallel strategy ...
... using space-filling curve
... NGWF load balancing: max    163;  min    162;  average    163
... Projector load balancing: max     36;  min     32;  average     33
... done
Calculating direct Ion-Ion energy ...
Ion-Ion Energy        :    825819.69414443220012
Basis initialisation ...... NGWF spheres initialised
... Projector spheres initialised
... NGWF tight boxes initialised
... Tight-boxes gathered
... NGWF basis size (local,global):    1115889  44673427
... Nonlocal pseudopotential projector initialisation
... done

========================== Sparse matrix information ===========================
                        Overlap matrix filling:   6.70%
                        Density kernel filling: 100.00%
              NGWF-Proj overlap matrix filling:   1.76%
                    Hamiltonian matrix filling:   7.57%
                  NGWF diagonal matrix filling:   0.05%
                             KS matrix filling: 100.00% 
                           KSKS matrix filling: 100.00% 
================================================================================

Sparse matrix initialisation ... done

Generating smeared ion density ... done
Smeared ion self correction:     -14457.169564
Smeared ion non-self correction: -825771.636323
NGWF initialisation ...... done
============ Calculation of NGWF S^-1 using Hotelling algorithm ================ 
         Iteration  |  Frobenius norm and Maximum abs value    (of I-S*S_n^-1)   
               1       0.78505491E+02     0.98276430E+00
               2       0.76672109E+02     0.96594695E+00
               3       0.73696128E+02     0.93350565E+00
               4       0.69453784E+02     0.87389503E+00
               5       0.64157986E+02     0.77081239E+00
               6       0.58197218E+02     0.70558472E+00
               7       0.52190598E+02     0.67001761E+00
               8       0.46638154E+02     0.64407148E+00
               9       0.40597057E+02     0.60282254E+00
              10       0.32379760E+02     0.53389104E+00
              11       0.21843919E+02     0.43269361E+00
              12       0.11226762E+02     0.29454105E+00
              13       0.37373412E+01     0.13921877E+00
              14       0.60420651E+00     0.33547708E-01
              15       0.30240597E-01     0.26270689E-02
              16       0.17775249E-03     0.21036644E-04
              17       0.10411303E-07     0.15609048E-08
              18       0.95537981E-13     0.44408921E-14
================================================================================
Calculating local pseudopotential in open BC on the fine real space grid ...
... done

MG BCs: +ve charge blocks (gridpoints):     20737 (   16325101).
MG BCs: -ve charge blocks (gridpoints):      8130 (    1095986).
MG BCs:     Elided blocks (gridpoints):    179903 (  178875378).
MG BCs: Computational effort saved:  99.9853%.
MG BCs: Charge after coarse-graining:           -9.0002272.
MG DL_MG: Calling solver with defect correction order = 8
MG DL_MG: Solver finished
MG Hartree energy from (\int phi*rho dr):              1462.719584
MG Hartree energy from (\int eps (grad phi)^2 dr):     1462.108544
MG Discrepancy due to finite box and discretization:     -0.611040 (  -0.04177%)
MG Correction to account for finite box:                  0.464276
MG Remaining discrepancy, due to discretization:         -0.146764 (  -0.01003%)
 WARNING: xc_energy_potential using alternative initial XC functional PBE.
Up spin density kernel initialisation ... 
======= Optimisation of K by Palser-Manolopoulos canonical purification ======== 
         Iteration  |  Band structure energy |    c_n   
               1       -2583.47326535906768    0.5266021
               2       -2759.10191739929269    0.5169240
               3       -2938.75509084350733    0.5155280
               4       -3088.32664298705549    0.5292861
               5       -3179.92023708988199    0.5651719
               6       -3218.08050289076618    0.6089162
               7       -3231.09384350800337    0.6189574
               8       -3236.77290041635933    0.6159190
               9       -3239.51399831381605    0.6297794
              10       -3240.62930313959441    0.6636917
              11       -3241.03776328158710    0.7055384
              12       -3241.19571514027848    0.7235433
              13       -3241.27326814993103    0.6882746
              14       -3241.32852920964706    0.6246263
              15       -3241.36969184087411    0.5574791
              16       -3241.39304042149024    0.5138405
              17       -3241.40060751582223    0.5114962
              18       -3241.40219228631759    0.5104298
              19       -3241.40261708206754    0.5016356
              20       -3241.40267148282874    0.5000214
              21       -3241.40267246917483    0.5000302
              22       -3241.40267246950498    0.5000302
Termination criterion satisfied: band energy change below threshold.
Final occupancy bounds: [   -0.00000000000000:    1.00000000000000]
Closest occupancy to 0.5:     1.00000000000000
================================================================================
... done

Writing density kernel to file "host_38481.vacuum_dkn" ... done

>>> Optimising kernel for current NGWFs:
   Initial electron number for spin 1:    7192.00000000
     Final electron number for spin 1:    7192.00000000

=================== Penalty functional idempotency correction ==================
 RMS occupancy error at iteration   1:  0.000000 (step -0.5000 Ne1=   7192.0000)
            Final RMS occupancy error   :  0.000000 (Ne1=   7192.0000)
               Final occupancy bounds   : [ -0.0000,  1.0000]
================================================================================

................................................................................
<<<<<<<<<<<<<< LNV (Original version) density kernel optimisation >>>>>>>>>>>>>>
~~~~~~~~~~~~~~~~~~~~~~~~~~~~~~~~~~~~~~~~~~~~~~~~~~~~~~~~~~~~~~~~~~~~~~~~~~~~~~~~
   iter  |      energy (Eh)       | rms gradient |  commutator  |   dE (Eh)
MG BCs: +ve charge blocks (gridpoints):     31322 (   17437055).
MG BCs: -ve charge blocks (gridpoints):      8476 (    1129413).
MG BCs:     Elided blocks (gridpoints):    169310 (  177729997).
MG BCs: Computational effort saved:  99.9797%.
MG BCs: Charge after coarse-graining:           -9.0009651.
MG DL_MG: Calling solver with defect correction order = 8
MG DL_MG: Solver finished
MG Hartree energy from (\int phi*rho dr):              1417.238406
MG Hartree energy from (\int eps (grad phi)^2 dr):     1416.578179
MG Discrepancy due to finite box and discretization:     -0.660227 (  -0.04659%)
MG Correction to account for finite box:                  0.471646
MG Remaining discrepancy, due to discretization:         -0.188582 (  -0.01331%)
      ideal mu1:      -0.751715725720
             Q0:  -11472.418669062899
             G0:    -125.790713485967
   RMS gradient:       0.001724157713
MG BCs: +ve charge blocks (gridpoints):     31264 (   17515545).
MG BCs: -ve charge blocks (gridpoints):      8360 (    1106238).
MG BCs:     Elided blocks (gridpoints):    169367 (  177674682).
MG BCs: Computational effort saved:  99.9798%.
MG BCs: Charge after coarse-graining:           -9.0009877.
MG DL_MG: Calling solver with defect correction order = 8
MG DL_MG: Solver finished
MG Hartree energy from (\int phi*rho dr):              1439.090619
MG Hartree energy from (\int eps (grad phi)^2 dr):     1438.446509
MG Discrepancy due to finite box and discretization:     -0.644109 (  -0.04476%)
MG Correction to account for finite box:                  0.470783
MG Remaining discrepancy, due to discretization:         -0.173326 (  -0.01204%)
     Trial step:       0.500000000000
             Q1:  -11484.555879455525
 Quadratic coef:      50.758146350357
 Linear coef   :     -62.895356742984
           Qmin:  -11491.902368647407
Quadratic minimum step length (  0.309779617979) accepted
    Initial Ne1:    7192.00000000
      Final Ne1:    7192.00000000

=================== Penalty functional idempotency correction ==================
 RMS occupancy error at iteration   1:  0.003203 (step -0.4891 Ne1=   7192.0000)
 RMS occupancy error at iteration   2:  0.000023 (step -0.5000 Ne1=   7192.0000)
            Final RMS occupancy error   :  0.000000 (Ne1=   7192.0000)
               Final occupancy bounds   : [  0.0000,  1.0000]
================================================================================

    1        -1.147241866906E+04     1.7242E-03     1.5595E-03
MG BCs: +ve charge blocks (gridpoints):     31292 (   17487405).
MG BCs: -ve charge blocks (gridpoints):      8418 (    1115208).
MG BCs:     Elided blocks (gridpoints):    169339 (  177693852).
MG BCs: Computational effort saved:  99.9798%.
MG BCs: Charge after coarse-graining:           -9.0009790.
MG DL_MG: Calling solver with defect correction order = 8
MG DL_MG: Solver finished
MG Hartree energy from (\int phi*rho dr):              1424.213783
MG Hartree energy from (\int eps (grad phi)^2 dr):     1423.564379
MG Discrepancy due to finite box and discretization:     -0.649405 (  -0.04560%)
MG Correction to account for finite box:                  0.470989
MG Remaining discrepancy, due to discretization:         -0.178416 (  -0.01253%)
      ideal mu1:      -0.792135690539
             Q0:  -11492.288127054111
             G0:     -11.261345711103
   RMS gradient:       0.000512111336
MG BCs: +ve charge blocks (gridpoints):     31277 (   17504553).
MG BCs: -ve charge blocks (gridpoints):      8384 (    1108339).
MG BCs:     Elided blocks (gridpoints):    169355 (  177683573).
MG BCs: Computational effort saved:  99.9798%.
MG BCs: Charge after coarse-graining:           -9.0009835.
MG DL_MG: Calling solver with defect correction order = 8
MG DL_MG: Solver finished
MG Hartree energy from (\int phi*rho dr):              1429.850495
MG Hartree energy from (\int eps (grad phi)^2 dr):     1429.204686
MG Discrepancy due to finite box and discretization:     -0.645809 (  -0.04517%)
MG Correction to account for finite box:                  0.470443
MG Remaining discrepancy, due to discretization:         -0.175366 (  -0.01226%)
     Trial step:       0.393560426097
             Q1:  -11494.871191855171
 Quadratic coef:       1.848955215426
 Linear coef   :      -4.432020016486
           Qmin:  -11494.944059613030
Quadratic minimum step length (  0.471690085191) accepted
    Initial Ne1:    7191.99993430
      Final Ne1:    7192.00000000

=================== Penalty functional idempotency correction ==================
 RMS occupancy error at iteration   1:  0.001533 (step -0.4945 Ne1=   7192.0000)
 RMS occupancy error at iteration   2:  0.000007 (step -0.5000 Ne1=   7192.0000)
            Final RMS occupancy error   :  0.000000 (Ne1=   7192.0000)
               Final occupancy bounds   : [  0.0000,  1.0000]
================================================================================

    2        -1.149228812705E+04     5.1211E-04     4.6319E-04    -1.9869E+01
MG BCs: +ve charge blocks (gridpoints):     31273 (   17508038).
MG BCs: -ve charge blocks (gridpoints):      8375 (    1106881).
MG BCs:     Elided blocks (gridpoints):    169359 (  177681546).
MG BCs: Computational effort saved:  99.9798%.
MG BCs: Charge after coarse-graining:           -9.0009845.
MG DL_MG: Calling solver with defect correction order = 8
MG DL_MG: Solver finished
MG Hartree energy from (\int phi*rho dr):              1430.995153
MG Hartree energy from (\int eps (grad phi)^2 dr):     1430.350010
MG Discrepancy due to finite box and discretization:     -0.645143 (  -0.04508%)
MG Correction to account for finite box:                  0.470346
MG Remaining discrepancy, due to discretization:         -0.174798 (  -0.01222%)
      ideal mu1:      -0.813042351358
             Q0:  -11494.978822665056
             G0:      -1.842557414082
   RMS gradient:       0.000207222827
MG BCs: +ve charge blocks (gridpoints):     31278 (   17509045).
MG BCs: -ve charge blocks (gridpoints):      8378 (    1106887).
MG BCs:     Elided blocks (gridpoints):    169353 (  177680533).
MG BCs: Computational effort saved:  99.9798%.
MG BCs: Charge after coarse-graining:           -9.0009845.
MG DL_MG: Calling solver with defect correction order = 8
MG DL_MG: Solver finished
MG Hartree energy from (\int phi*rho dr):              1430.398205
MG Hartree energy from (\int eps (grad phi)^2 dr):     1429.753556
MG Discrepancy due to finite box and discretization:     -0.644649 (  -0.04507%)
MG Correction to account for finite box:                  0.470030
MG Remaining discrepancy, due to discretization:         -0.174619 (  -0.01221%)
     Trial step:       0.430857924279
             Q1:  -11495.452064726851
 Quadratic coef:       0.320638401001
 Linear coef   :      -0.793880462796
           Qmin:  -11495.470222156851
Quadratic minimum step length (  0.533388526230) accepted
    Initial Ne1:    7191.99997803
      Final Ne1:    7192.00000000

=================== Penalty functional idempotency correction ==================
 RMS occupancy error at iteration   1:  0.000578 (step -0.4978 Ne1=   7192.0000)
 RMS occupancy error at iteration   2:  0.000001 (step -0.5000 Ne1=   7192.0000)
            Final RMS occupancy error   :  0.000000 (Ne1=   7192.0000)
               Final occupancy bounds   : [  0.0000,  1.0000]
================================================================================

    3        -1.149497882267E+04     2.0722E-04     1.8743E-04    -2.6907E+00
MG BCs: +ve charge blocks (gridpoints):     31278 (   17509331).
MG BCs: -ve charge blocks (gridpoints):      8379 (    1106817).
MG BCs:     Elided blocks (gridpoints):    169353 (  177680317).
MG BCs: Computational effort saved:  99.9798%.
MG BCs: Charge after coarse-graining:           -9.0009846.
MG DL_MG: Calling solver with defect correction order = 8
MG DL_MG: Solver finished
MG Hartree energy from (\int phi*rho dr):              1430.260849
MG Hartree energy from (\int eps (grad phi)^2 dr):     1429.616305
MG Discrepancy due to finite box and discretization:     -0.644543 (  -0.04506%)
MG Correction to account for finite box:                  0.469957
MG Remaining discrepancy, due to discretization:         -0.174587 (  -0.01221%)
      ideal mu1:      -0.815985182515
             Q0:  -11495.474881430855
             G0:      -0.395731416084
   RMS gradient:       0.000096210667
MG BCs: +ve charge blocks (gridpoints):     31280 (   17509785).
MG BCs: -ve charge blocks (gridpoints):      8381 (    1106843).
MG BCs:     Elided blocks (gridpoints):    169351 (  177679837).
MG BCs: Computational effort saved:  99.9798%.
MG BCs: Charge after coarse-graining:           -9.0009844.
MG DL_MG: Calling solver with defect correction order = 8
MG DL_MG: Solver finished
MG Hartree energy from (\int phi*rho dr):              1431.300780
MG Hartree energy from (\int eps (grad phi)^2 dr):     1430.656173
MG Discrepancy due to finite box and discretization:     -0.644607 (  -0.04504%)
MG Correction to account for finite box:                  0.469868
MG Remaining discrepancy, due to discretization:         -0.174739 (  -0.01221%)
     Trial step:       0.479389896896
             Q1:  -11495.573074236512
 Quadratic coef:       0.091516837098
 Linear coef   :      -0.189709642755
           Qmin:  -11495.573195986120
Quadratic minimum step length (  0.496875159614) accepted
    Initial Ne1:    7191.99999546
      Final Ne1:    7192.00000000

=================== Penalty functional idempotency correction ==================
 RMS occupancy error at iteration   1:  0.000184 (step -0.4993 Ne1=   7192.0000)
            Final RMS occupancy error   :  0.000000 (Ne1=   7192.0000)
               Final occupancy bounds   : [ -0.0000,  1.0000]
================================================================================

    4        -1.149547488143E+04     9.6211E-05     8.7020E-05    -4.9606E-01
MG BCs: +ve charge blocks (gridpoints):     31280 (   17509828).
MG BCs: -ve charge blocks (gridpoints):      8380 (    1106836).
MG BCs:     Elided blocks (gridpoints):    169351 (  177679801).
MG BCs: Computational effort saved:  99.9798%.
MG BCs: Charge after coarse-graining:           -9.0009844.
MG DL_MG: Calling solver with defect correction order = 8
MG DL_MG: Solver finished
MG Hartree energy from (\int phi*rho dr):              1431.338968
MG Hartree energy from (\int eps (grad phi)^2 dr):     1430.694359
MG Discrepancy due to finite box and discretization:     -0.644609 (  -0.04504%)
MG Correction to account for finite box:                  0.469864
MG Remaining discrepancy, due to discretization:         -0.174745 (  -0.01221%)
      ideal mu1:      -0.815725521755
             Q0:  -11495.573619717034
             G0:      -0.101478879420
   RMS gradient:       0.000048869036
MG BCs: +ve charge blocks (gridpoints):     31282 (   17509463).
MG BCs: -ve charge blocks (gridpoints):      8382 (    1107003).
MG BCs:     Elided blocks (gridpoints):    169349 (  177679999).
MG BCs: Computational effort saved:  99.9798%.
MG BCs: Charge after coarse-graining:           -9.0009841.
MG DL_MG: Calling solver with defect correction order = 8
MG DL_MG: Solver finished
MG Hartree energy from (\int phi*rho dr):              1431.040021
MG Hartree energy from (\int eps (grad phi)^2 dr):     1430.395274
MG Discrepancy due to finite box and discretization:     -0.644747 (  -0.04505%)
MG Correction to account for finite box:                  0.469864
MG Remaining discrepancy, due to discretization:         -0.174883 (  -0.01222%)
     Trial step:       0.488054230119
             Q1:  -11495.597314687446
 Quadratic coef:       0.025832225956
 Linear coef   :      -0.049527196369
           Qmin:  -11495.597358894451
Quadratic minimum step length (  0.467864398035) accepted
    Initial Ne1:    7192.00171130
      Final Ne1:    7192.00000000

=================== Penalty functional idempotency correction ==================
 RMS occupancy error at iteration   1:  0.000060 (step -0.4997 Ne1=   7192.0000)
            Final RMS occupancy error   :  0.000000 (Ne1=   7192.0000)
               Final occupancy bounds   : [ -0.0000,  1.0000]
================================================================================

    5        -1.149557361972E+04     4.8869E-05     4.4201E-05    -9.8738E-02
MG BCs: +ve charge blocks (gridpoints):     31282 (   17509493).
MG BCs: -ve charge blocks (gridpoints):      8382 (    1106983).
MG BCs:     Elided blocks (gridpoints):    169349 (  177679989).
MG BCs: Computational effort saved:  99.9798%.
MG BCs: Charge after coarse-graining:           -9.0009841.
MG DL_MG: Calling solver with defect correction order = 8
MG DL_MG: Solver finished
MG Hartree energy from (\int phi*rho dr):              1431.052382
MG Hartree energy from (\int eps (grad phi)^2 dr):     1430.407641
MG Discrepancy due to finite box and discretization:     -0.644741 (  -0.04505%)
MG Correction to account for finite box:                  0.469864
MG Remaining discrepancy, due to discretization:         -0.174877 (  -0.01222%)
      ideal mu1:      -0.815169356940
             Q0:  -11495.597401996492
             G0:      -0.024734261316
   RMS gradient:       0.000024150275
MG BCs: +ve charge blocks (gridpoints):     31282 (   17509286).
MG BCs: -ve charge blocks (gridpoints):      8381 (    1107143).
MG BCs:     Elided blocks (gridpoints):    169349 (  177680036).
MG BCs: Computational effort saved:  99.9798%.
MG BCs: Charge after coarse-graining:           -9.0009840.
MG DL_MG: Calling solver with defect correction order = 8
MG DL_MG: Solver finished
MG Hartree energy from (\int phi*rho dr):              1430.568991
MG Hartree energy from (\int eps (grad phi)^2 dr):     1429.924230
MG Discrepancy due to finite box and discretization:     -0.644760 (  -0.04507%)
MG Correction to account for finite box:                  0.469877
MG Remaining discrepancy, due to discretization:         -0.174883 (  -0.01222%)
     Trial step:       0.477852695486
             Q1:  -11495.604624532047
 Quadratic coef:       0.004596797886
 Linear coef   :      -0.011819333441
           Qmin:  -11495.604999494059
Quadratic minimum step length (  0.614329853504) accepted
    Initial Ne1:    7192.00080840
      Final Ne1:    7192.00000000

=================== Penalty functional idempotency correction ==================
 RMS occupancy error at iteration   1:  0.000026 (step -0.4999 Ne1=   7192.0000)
            Final RMS occupancy error   :  0.000000 (Ne1=   7192.0000)
               Final occupancy bounds   : [ -0.0000,  1.0000]
================================================================================

    6        -1.149559740200E+04     2.4150E-05     2.1843E-05    -2.3782E-02
MG BCs: +ve charge blocks (gridpoints):     31282 (   17509240).
MG BCs: -ve charge blocks (gridpoints):      8382 (    1107198).
MG BCs:     Elided blocks (gridpoints):    169349 (  177680027).
MG BCs: Computational effort saved:  99.9798%.
MG BCs: Charge after coarse-graining:           -9.0009840.
MG DL_MG: Calling solver with defect correction order = 8
MG DL_MG: Solver finished
MG Hartree energy from (\int phi*rho dr):              1430.430751
MG Hartree energy from (\int eps (grad phi)^2 dr):     1429.785985
MG Discrepancy due to finite box and discretization:     -0.644766 (  -0.04507%)
MG Correction to account for finite box:                  0.469880
MG Remaining discrepancy, due to discretization:         -0.174885 (  -0.01223%)
      ideal mu1:      -0.815107989633
             Q0:  -11495.605005036225
             G0:      -0.009297130263
   RMS gradient:       0.000014822694
MG BCs: +ve charge blocks (gridpoints):     31282 (   17509563).
MG BCs: -ve charge blocks (gridpoints):      8381 (    1106948).
MG BCs:     Elided blocks (gridpoints):    169349 (  177679954).
MG BCs: Computational effort saved:  99.9798%.
MG BCs: Charge after coarse-graining:           -9.0009842.
MG DL_MG: Calling solver with defect correction order = 8
MG DL_MG: Solver finished
MG Hartree energy from (\int phi*rho dr):              1430.961519
MG Hartree energy from (\int eps (grad phi)^2 dr):     1430.316754
MG Discrepancy due to finite box and discretization:     -0.644765 (  -0.04506%)
MG Correction to account for finite box:                  0.469870
MG Remaining discrepancy, due to discretization:         -0.174895 (  -0.01222%)
     Trial step:       0.541811015405
             Q1:  -11495.607426710776
 Quadratic coef:       0.002615613037
 Linear coef   :      -0.005037287588
           Qmin:  -11495.607430305739
Quadratic minimum step length (  0.521724326999) accepted
    Initial Ne1:    7192.00006107
      Final Ne1:    7192.00000000

=================== Penalty functional idempotency correction ==================
 RMS occupancy error at iteration   1:  0.000001 (step -0.5000 Ne1=   7192.0000)
            Final RMS occupancy error   :  0.000000 (Ne1=   7192.0000)
               Final occupancy bounds   : [  0.0000,  1.0000]
================================================================================

    7        -1.149560500504E+04     1.4823E-05     1.3407E-05    -7.6030E-03
MG BCs: +ve charge blocks (gridpoints):     31282 (   17509550).
MG BCs: -ve charge blocks (gridpoints):      8381 (    1106963).
MG BCs:     Elided blocks (gridpoints):    169349 (  177679952).
MG BCs: Computational effort saved:  99.9798%.
MG BCs: Charge after coarse-graining:           -9.0009841.
MG DL_MG: Calling solver with defect correction order = 8
MG DL_MG: Solver finished
MG Hartree energy from (\int phi*rho dr):              1430.941826
MG Hartree energy from (\int eps (grad phi)^2 dr):     1430.297061
MG Discrepancy due to finite box and discretization:     -0.644765 (  -0.04506%)
MG Correction to account for finite box:                  0.469870
MG Remaining discrepancy, due to discretization:         -0.174895 (  -0.01222%)
      ideal mu1:      -0.815424720627
             Q0:  -11495.607430322212
             G0:      -0.005091483494
   RMS gradient:       0.000010969398
MG BCs: +ve charge blocks (gridpoints):     31282 (   17509622).
MG BCs: -ve charge blocks (gridpoints):      8382 (    1106930).
MG BCs:     Elided blocks (gridpoints):    169349 (  177679913).
MG BCs: Computational effort saved:  99.9798%.
MG BCs: Charge after coarse-graining:           -9.0009842.
MG DL_MG: Calling solver with defect correction order = 8
MG DL_MG: Solver finished
MG Hartree energy from (\int phi*rho dr):              1430.968092
MG Hartree energy from (\int eps (grad phi)^2 dr):     1430.323350
MG Discrepancy due to finite box and discretization:     -0.644742 (  -0.04506%)
MG Correction to account for finite box:                  0.469858
MG Remaining discrepancy, due to discretization:         -0.174885 (  -0.01222%)
     Trial step:       0.531672819855
             Q1:  -11495.609429414733
 Quadratic coef:       0.000707910865
 Linear coef   :      -0.002707003386
           Qmin:  -11495.610018171788
Quadratic minimum step length (  1.016540495461) accepted
    Initial Ne1:    7192.00006468
      Final Ne1:    7192.00000000

=================== Penalty functional idempotency correction ==================
 RMS occupancy error at iteration   1:  0.000014 (step -0.4996 Ne1=   7192.0000)
            Final RMS occupancy error   :  0.000000 (Ne1=   7192.0000)
               Final occupancy bounds   : [ -0.0000,  1.0000]
================================================================================

    8        -1.149560743032E+04     1.0969E-05     9.9216E-06    -2.4253E-03
MG BCs: +ve charge blocks (gridpoints):     31283 (   17509684).
MG BCs: -ve charge blocks (gridpoints):      8382 (    1106893).
MG BCs:     Elided blocks (gridpoints):    169348 (  177679888).
MG BCs: Computational effort saved:  99.9798%.
MG BCs: Charge after coarse-graining:           -9.0009842.
MG DL_MG: Calling solver with defect correction order = 8
MG DL_MG: Solver finished
MG Hartree energy from (\int phi*rho dr):              1430.991154
MG Hartree energy from (\int eps (grad phi)^2 dr):     1430.346434
MG Discrepancy due to finite box and discretization:     -0.644720 (  -0.04505%)
MG Correction to account for finite box:                  0.469845
MG Remaining discrepancy, due to discretization:         -0.174875 (  -0.01222%)
      ideal mu1:      -0.815473492363
             Q0:  -11495.610013281577
             G0:      -0.007002007988
   RMS gradient:       0.000012887766
MG BCs: +ve charge blocks (gridpoints):     31283 (   17509555).
MG BCs: -ve charge blocks (gridpoints):      8382 (    1106989).
MG BCs:     Elided blocks (gridpoints):    169348 (  177679921).
MG BCs: Computational effort saved:  99.9798%.
MG BCs: Charge after coarse-graining:           -9.0009841.
MG DL_MG: Calling solver with defect correction order = 8
MG DL_MG: Solver finished
MG Hartree energy from (\int phi*rho dr):              1430.706848
MG Hartree energy from (\int eps (grad phi)^2 dr):     1430.062160
MG Discrepancy due to finite box and discretization:     -0.644688 (  -0.04506%)
MG Correction to account for finite box:                  0.469825
MG Remaining discrepancy, due to discretization:         -0.174863 (  -0.01222%)
     Trial step:       0.735164574581
             Q1:  -11495.613170007826
 Quadratic coef:       0.001990901976
 Linear coef   :      -0.005147628224
           Qmin:  -11495.613340677482
Quadratic minimum step length (  0.950411913629) accepted
    Initial Ne1:    7192.00015775
      Final Ne1:    7192.00000000

=================== Penalty functional idempotency correction ==================
 RMS occupancy error at iteration   1:  0.000070 (step -0.4977 Ne1=   7192.0000)
            Final RMS occupancy error   :  0.000000 (Ne1=   7192.0000)
               Final occupancy bounds   : [ -0.0000,  1.0000]
================================================================================

    9        -1.149561001328E+04     1.2888E-05     1.1657E-05    -2.5830E-03
MG BCs: +ve charge blocks (gridpoints):     31283 (   17509518).
MG BCs: -ve charge blocks (gridpoints):      8382 (    1107031).
MG BCs:     Elided blocks (gridpoints):    169348 (  177679916).
MG BCs: Computational effort saved:  99.9798%.
MG BCs: Charge after coarse-graining:           -9.0009841.
MG DL_MG: Calling solver with defect correction order = 8
MG DL_MG: Solver finished
MG Hartree energy from (\int phi*rho dr):              1430.622218
MG Hartree energy from (\int eps (grad phi)^2 dr):     1429.977541
MG Discrepancy due to finite box and discretization:     -0.644677 (  -0.04506%)
MG Correction to account for finite box:                  0.469817
MG Remaining discrepancy, due to discretization:         -0.174859 (  -0.01222%)
      ideal mu1:      -0.815148900109
   10        -1.149561332555E+04     1.4157E-05     1.2805E-05    -3.3123E-03
Finished density kernel iterations (  10)

Writing density kernel to file "host_38481.vacuum_dkn" ... done


>>> Density kernel optimised for the current NGWF basis:
     ~~~~~~~~~~~~~~~~~~~~~~~~~~~~~~~~~~~~~~~~~~~~~~~~~~~~~~~~~~~
     Total energy                =  -1.14956133255492E+04  Eh
     Estimated bandgap           =  -2.2446E-01  Eh
     RMS occupancy error         =   1.2948E-07
     [H,K] commutator            =   1.2805E-05
     Occupancy bounds            = [ -0.000:  1.000]
     ~~~~~~~~~~~~~~~~~~~~~~~~~~~~~~~~~~~~~~~~~~~~~~~~~~~~~~~~~~~




################################################################################
########################### NGWF CG iteration  001 #############################
################################################################################
****** Reciprocal space K.E. preconditioning with k_zero =  3.5000 a0^-1 *******

>>> Checking for convergence of NGWFs:   NOT CONVERGED
  ========================================================================
         NGWF RMS gradient =  1.6240E-03 >  2.0000E-06  | above tolerance
  ========================================================================

>>> Improving NGWFs using line search:
============ Calculation of NGWF S^-1 using Hotelling algorithm ================ 
         Iteration  |  Frobenius norm and Maximum abs value    (of I-S*S_n^-1)   
               1       0.23373324E+00     0.61585138E-02
               2       0.12645022E-02     0.53406324E-04
               3       0.62066528E-07     0.42506995E-08
               4       0.12963644E-12     0.57731597E-14
================================================================================
MG BCs: +ve charge blocks (gridpoints):     30838 (   17459339).
MG BCs: -ve charge blocks (gridpoints):      8371 (    1103554).
MG BCs:     Elided blocks (gridpoints):    169797 (  177733572).
MG BCs: Computational effort saved:  99.9800%.
MG BCs: Charge after coarse-graining:           -9.0009884.
MG DL_MG: Calling solver with defect correction order = 8
MG DL_MG: Solver finished
MG Hartree energy from (\int phi*rho dr):              1402.752058
MG Hartree energy from (\int eps (grad phi)^2 dr):     1402.108769
MG Discrepancy due to finite box and discretization:     -0.643288 (  -0.04586%)
MG Correction to account for finite box:                  0.469757
MG Remaining discrepancy, due to discretization:         -0.173532 (  -0.01237%)
============ Calculation of NGWF S^-1 using Hotelling algorithm ================ 
         Iteration  |  Frobenius norm and Maximum abs value    (of I-S*S_n^-1)   
               1       0.21712153E+01     0.47660459E-01
               2       0.97033620E-01     0.30394107E-02
               3       0.26802202E-03     0.14034775E-04
               4       0.35570876E-08     0.31382685E-09
               5       0.11395417E-12     0.68833828E-14
================================================================================
------------------------------- NGWF line search -------------------------------
RMS gradient                =       0.00162397236868
Trial step length           =               0.122474
Gradient along search dir.  =       -291.12869777413
Functional at step 0        =  -11495.61332554917317
Functional at step 1        =  -11528.51831937895622
Functional predicted        =  -11611.15411265108378
Selected quadratic step     =               0.793744
--------------------------- NGWF line search finished --------------------------
                                               
Writing NGWFs to file "host_38481.vacuum_tightbox_ngwfs"....  done

>>> Optimising kernel for current NGWFs:
   Initial electron number for spin 1:    7237.87731808
     Final electron number for spin 1:    7192.00000000

=================== Penalty functional idempotency correction ==================
 RMS occupancy error at iteration   1:  0.005214 (step -0.4830 Ne1=   7192.0000)
 RMS occupancy error at iteration   2:  0.000094 (step -0.5003 Ne1=   7192.0000)
            Final RMS occupancy error   :  0.000000 (Ne1=   7192.0000)
               Final occupancy bounds   : [  0.0000,  1.0000]
================================================================================

................................................................................
<<<<<<<<<<<<<< LNV (Original version) density kernel optimisation >>>>>>>>>>>>>>
~~~~~~~~~~~~~~~~~~~~~~~~~~~~~~~~~~~~~~~~~~~~~~~~~~~~~~~~~~~~~~~~~~~~~~~~~~~~~~~~
   iter  |      energy (Eh)       | rms gradient |  commutator  |   dE (Eh)
MG BCs: +ve charge blocks (gridpoints):     25110 (   17235764).
MG BCs: -ve charge blocks (gridpoints):      8496 (    1073241).
MG BCs:     Elided blocks (gridpoints):    175530 (  177987460).
MG BCs: Computational effort saved:  99.9829%.
MG BCs: Charge after coarse-graining:           -9.0007233.
MG DL_MG: Calling solver with defect correction order = 8
MG DL_MG: Solver finished
MG Hartree energy from (\int phi*rho dr):              1272.169321
MG Hartree energy from (\int eps (grad phi)^2 dr):     1271.528995
MG Discrepancy due to finite box and discretization:     -0.640327 (  -0.05033%)
MG Correction to account for finite box:                  0.469469
MG Remaining discrepancy, due to discretization:         -0.170858 (  -0.01343%)
      ideal mu1:      -0.757437743917
             Q0:  -11610.504950508825
             G0:      -9.629304859081
   RMS gradient:       0.000477034915
MG BCs: +ve charge blocks (gridpoints):     25186 (   17250300).
MG BCs: -ve charge blocks (gridpoints):      8489 (    1069334).
MG BCs:     Elided blocks (gridpoints):    175454 (  177976831).
MG BCs: Computational effort saved:  99.9828%.
MG BCs: Charge after coarse-graining:           -9.0007190.
MG DL_MG: Calling solver with defect correction order = 8
MG DL_MG: Solver finished
MG Hartree energy from (\int phi*rho dr):              1288.355160
MG Hartree energy from (\int eps (grad phi)^2 dr):     1287.709416
MG Discrepancy due to finite box and discretization:     -0.645744 (  -0.05012%)
MG Correction to account for finite box:                  0.469096
MG Remaining discrepancy, due to discretization:         -0.176648 (  -0.01371%)
     Trial step:       0.835888252196
             Q1:  -11608.472609941848
 Quadratic coef:      10.081363375499
 Linear coef   :      -8.049022808523
           Qmin:  -11612.111547894490
Quadratic minimum step length (  0.333689172620) accepted
    Initial Ne1:    7191.99907105
      Final Ne1:    7192.00000000

=================== Penalty functional idempotency correction ==================
 RMS occupancy error at iteration   1:  0.000359 (step -0.4985 Ne1=   7192.0000)
 RMS occupancy error at iteration   2:  0.000000 (step -0.5000 Ne1=   7192.0000)
            Final RMS occupancy error   :  0.000000 (Ne1=   7192.0000)
               Final occupancy bounds   : [  0.0000,  1.0000]
================================================================================

    1        -1.161050495051E+04     4.7703E-04     4.3147E-04
MG BCs: +ve charge blocks (gridpoints):     25135 (   17241806).
MG BCs: -ve charge blocks (gridpoints):      8490 (    1071670).
MG BCs:     Elided blocks (gridpoints):    175505 (  177982989).
MG BCs: Computational effort saved:  99.9829%.
MG BCs: Charge after coarse-graining:           -9.0007214.
MG DL_MG: Calling solver with defect correction order = 8
MG DL_MG: Solver finished
MG Hartree energy from (\int phi*rho dr):              1277.396577
MG Hartree energy from (\int eps (grad phi)^2 dr):     1276.754211
MG Discrepancy due to finite box and discretization:     -0.642366 (  -0.05029%)
MG Correction to account for finite box:                  0.469290
MG Remaining discrepancy, due to discretization:         -0.173076 (  -0.01355%)
      ideal mu1:      -0.762929013630
             Q0:  -11612.085393547080
             G0:      -0.873154747477
   RMS gradient:       0.000144406246
MG BCs: +ve charge blocks (gridpoints):     25136 (   17241267).
MG BCs: -ve charge blocks (gridpoints):      8488 (    1072599).
MG BCs:     Elided blocks (gridpoints):    175504 (  177982599).
MG BCs: Computational effort saved:  99.9829%.
MG BCs: Charge after coarse-graining:           -9.0007213.
MG DL_MG: Calling solver with defect correction order = 8
MG DL_MG: Solver finished
MG Hartree energy from (\int phi*rho dr):              1277.989658
MG Hartree energy from (\int eps (grad phi)^2 dr):     1277.347035
MG Discrepancy due to finite box and discretization:     -0.642623 (  -0.05028%)
MG Correction to account for finite box:                  0.469281
MG Remaining discrepancy, due to discretization:         -0.173341 (  -0.01356%)
     Trial step:       0.528135266081
             Q1:  -11612.279012886691
 Quadratic coef:       0.267524475277
 Linear coef   :      -0.461143814888
           Qmin:  -11612.284117063677
Quadratic minimum step length (  0.455185102457) accepted
    Initial Ne1:    7191.99988387
      Final Ne1:    7192.00000000

=================== Penalty functional idempotency correction ==================
 RMS occupancy error at iteration   1:  0.000136 (step -0.4995 Ne1=   7192.0000)
            Final RMS occupancy error   :  0.000000 (Ne1=   7192.0000)
               Final occupancy bounds   : [ -0.0000,  1.0000]
================================================================================

    2        -1.161208539355E+04     1.4441E-04     1.3061E-04    -1.5804E+00
MG BCs: +ve charge blocks (gridpoints):     25135 (   17241322).
MG BCs: -ve charge blocks (gridpoints):      8490 (    1072476).
MG BCs:     Elided blocks (gridpoints):    175505 (  177982667).
MG BCs: Computational effort saved:  99.9829%.
MG BCs: Charge after coarse-graining:           -9.0007213.
MG DL_MG: Calling solver with defect correction order = 8
MG DL_MG: Solver finished
MG Hartree energy from (\int phi*rho dr):              1277.908425
MG Hartree energy from (\int eps (grad phi)^2 dr):     1277.265840
MG Discrepancy due to finite box and discretization:     -0.642586 (  -0.05028%)
MG Correction to account for finite box:                  0.469282
MG Remaining discrepancy, due to discretization:         -0.173304 (  -0.01356%)
      ideal mu1:      -0.763535352176
             Q0:  -11612.284520374844
             G0:      -0.170509890956
   RMS gradient:       0.000063412757
MG BCs: +ve charge blocks (gridpoints):     25137 (   17240743).
MG BCs: -ve charge blocks (gridpoints):      8491 (    1072801).
MG BCs:     Elided blocks (gridpoints):    175503 (  177982921).
MG BCs: Computational effort saved:  99.9829%.
MG BCs: Charge after coarse-graining:           -9.0007213.
MG DL_MG: Calling solver with defect correction order = 8
MG DL_MG: Solver finished
MG Hartree energy from (\int phi*rho dr):              1277.297766
MG Hartree energy from (\int eps (grad phi)^2 dr):     1276.655263
MG Discrepancy due to finite box and discretization:     -0.642503 (  -0.05030%)
MG Correction to account for finite box:                  0.469286
MG Remaining discrepancy, due to discretization:         -0.173217 (  -0.01356%)
     Trial step:       0.490305318350
             Q1:  -11612.335043160478
 Quadratic coef:       0.033079120733
 Linear coef   :      -0.083601906367
           Qmin:  -11612.337342809309
Quadratic minimum step length (  0.619582056719) accepted
    Initial Ne1:    7192.00054177
      Final Ne1:    7192.00000000

=================== Penalty functional idempotency correction ==================
 RMS occupancy error at iteration   1:  0.000069 (step -0.4997 Ne1=   7192.0000)
            Final RMS occupancy error   :  0.000000 (Ne1=   7192.0000)
               Final occupancy bounds   : [ -0.0000,  1.0000]
================================================================================

    3        -1.161228452037E+04     6.3413E-05     5.7355E-05    -1.9913E-01
MG BCs: +ve charge blocks (gridpoints):     25139 (   17240552).
MG BCs: -ve charge blocks (gridpoints):      8493 (    1072891).
MG BCs:     Elided blocks (gridpoints):    175501 (  177983022).
MG BCs: Computational effort saved:  99.9829%.
MG BCs: Charge after coarse-graining:           -9.0007213.
MG DL_MG: Calling solver with defect correction order = 8
MG DL_MG: Solver finished
MG Hartree energy from (\int phi*rho dr):              1277.136373
MG Hartree energy from (\int eps (grad phi)^2 dr):     1276.493891
MG Discrepancy due to finite box and discretization:     -0.642482 (  -0.05031%)
MG Correction to account for finite box:                  0.469287
MG Remaining discrepancy, due to discretization:         -0.173195 (  -0.01356%)
      ideal mu1:      -0.762501192204
             Q0:  -11612.337443953846
             G0:      -0.033509086266
   RMS gradient:       0.000028096940
MG BCs: +ve charge blocks (gridpoints):     25138 (   17240287).
MG BCs: -ve charge blocks (gridpoints):      8493 (    1072966).
MG BCs:     Elided blocks (gridpoints):    175502 (  177983212).
MG BCs: Computational effort saved:  99.9829%.
MG BCs: Charge after coarse-graining:           -9.0007214.
MG DL_MG: Calling solver with defect correction order = 8
MG DL_MG: Solver finished
MG Hartree energy from (\int phi*rho dr):              1277.175871
MG Hartree energy from (\int eps (grad phi)^2 dr):     1276.533473
MG Discrepancy due to finite box and discretization:     -0.642398 (  -0.05030%)
MG Correction to account for finite box:                  0.469288
MG Remaining discrepancy, due to discretization:         -0.173110 (  -0.01355%)
     Trial step:       0.551166379202
             Q1:  -11612.346638085088
 Quadratic coef:       0.009274950506
 Linear coef   :      -0.018469081748
           Qmin:  -11612.346638261146
Quadratic minimum step length (  0.548765026183) accepted
    Initial Ne1:    7192.00025052
      Final Ne1:    7192.00000000

=================== Penalty functional idempotency correction ==================
 RMS occupancy error at iteration   1:  0.000019 (step -0.4999 Ne1=   7192.0000)
            Final RMS occupancy error   :  0.000000 (Ne1=   7192.0000)
               Final occupancy bounds   : [ -0.0000,  1.0000]
================================================================================

    4        -1.161233744395E+04     2.8097E-05     2.5413E-05    -5.2924E-02
MG BCs: +ve charge blocks (gridpoints):     25138 (   17240287).
MG BCs: -ve charge blocks (gridpoints):      8493 (    1072964).
MG BCs:     Elided blocks (gridpoints):    175502 (  177983214).
MG BCs: Computational effort saved:  99.9829%.
MG BCs: Charge after coarse-graining:           -9.0007214.
MG DL_MG: Calling solver with defect correction order = 8
MG DL_MG: Solver finished
MG Hartree energy from (\int phi*rho dr):              1277.175697
MG Hartree energy from (\int eps (grad phi)^2 dr):     1276.533299
MG Discrepancy due to finite box and discretization:     -0.642398 (  -0.05030%)
MG Correction to account for finite box:                  0.469288
MG Remaining discrepancy, due to discretization:         -0.173111 (  -0.01355%)
      ideal mu1:      -0.762615333382
             Q0:  -11612.346643406665
             G0:      -0.010596227567
   RMS gradient:       0.000015821153
MG BCs: +ve charge blocks (gridpoints):     25138 (   17240729).
MG BCs: -ve charge blocks (gridpoints):      8491 (    1072798).
MG BCs:     Elided blocks (gridpoints):    175502 (  177982938).
MG BCs: Computational effort saved:  99.9829%.
MG BCs: Charge after coarse-graining:           -9.0007213.
MG DL_MG: Calling solver with defect correction order = 8
MG DL_MG: Solver finished
MG Hartree energy from (\int phi*rho dr):              1277.521941
MG Hartree energy from (\int eps (grad phi)^2 dr):     1276.879568
MG Discrepancy due to finite box and discretization:     -0.642373 (  -0.05028%)
MG Correction to account for finite box:                  0.469279
MG Remaining discrepancy, due to discretization:         -0.173094 (  -0.01355%)
     Trial step:       0.549964392042
             Q1:  -11612.349466174026
 Quadratic coef:       0.003004780490
 Linear coef   :      -0.005827547852
           Qmin:  -11612.349468930366
Quadratic minimum step length (  0.533307478184) accepted
    Initial Ne1:    7192.00009188
      Final Ne1:    7192.00000000

=================== Penalty functional idempotency correction ==================
 RMS occupancy error at iteration   1:  0.000008 (step -0.5000 Ne1=   7192.0000)
            Final RMS occupancy error   :  0.000000 (Ne1=   7192.0000)
               Final occupancy bounds   : [ -0.0000,  1.0000]
================================================================================

    5        -1.161234664341E+04     1.5821E-05     1.4310E-05    -9.1995E-03
MG BCs: +ve charge blocks (gridpoints):     25138 (   17240722).
MG BCs: -ve charge blocks (gridpoints):      8491 (    1072806).
MG BCs:     Elided blocks (gridpoints):    175502 (  177982937).
MG BCs: Computational effort saved:  99.9829%.
MG BCs: Charge after coarse-graining:           -9.0007213.
MG DL_MG: Calling solver with defect correction order = 8
MG DL_MG: Solver finished
MG Hartree energy from (\int phi*rho dr):              1277.511441
MG Hartree energy from (\int eps (grad phi)^2 dr):     1276.869067
MG Discrepancy due to finite box and discretization:     -0.642374 (  -0.05028%)
MG Correction to account for finite box:                  0.469280
MG Remaining discrepancy, due to discretization:         -0.173094 (  -0.01355%)
      ideal mu1:      -0.762838230604
             Q0:  -11612.349469726905
             G0:      -0.003034498204
   RMS gradient:       0.000008466670
MG BCs: +ve charge blocks (gridpoints):     25139 (   17240669).
MG BCs: -ve charge blocks (gridpoints):      8492 (    1072850).
MG BCs:     Elided blocks (gridpoints):    175501 (  177982946).
MG BCs: Computational effort saved:  99.9829%.
MG BCs: Charge after coarse-graining:           -9.0007213.
MG DL_MG: Calling solver with defect correction order = 8
MG DL_MG: Solver finished
MG Hartree energy from (\int phi*rho dr):              1277.454891
MG Hartree energy from (\int eps (grad phi)^2 dr):     1276.812528
MG Discrepancy due to finite box and discretization:     -0.642363 (  -0.05028%)
MG Correction to account for finite box:                  0.469273
MG Remaining discrepancy, due to discretization:         -0.173089 (  -0.01355%)
     Trial step:       0.541571900130
             Q1:  -11612.350496667787
 Quadratic coef:       0.000616458077
 Linear coef   :      -0.001643398958
           Qmin:  -11612.350565000143
Quadratic minimum step length (  0.721880959298) accepted
    Initial Ne1:    7192.00004316
      Final Ne1:    7192.00000000

=================== Penalty functional idempotency correction ==================
 RMS occupancy error at iteration   1:  0.000006 (step -0.4999 Ne1=   7192.0000)
            Final RMS occupancy error   :  0.000000 (Ne1=   7192.0000)
               Final occupancy bounds   : [ -0.0000,  1.0000]
================================================================================

    6        -1.161234946973E+04     8.4667E-06     7.6579E-06    -2.8263E-03
MG BCs: +ve charge blocks (gridpoints):     25139 (   17240665).
MG BCs: -ve charge blocks (gridpoints):      8492 (    1072858).
MG BCs:     Elided blocks (gridpoints):    175501 (  177982942).
MG BCs: Computational effort saved:  99.9829%.
MG BCs: Charge after coarse-graining:           -9.0007213.
MG DL_MG: Calling solver with defect correction order = 8
MG DL_MG: Solver finished
MG Hartree energy from (\int phi*rho dr):              1277.436035
MG Hartree energy from (\int eps (grad phi)^2 dr):     1276.793676
MG Discrepancy due to finite box and discretization:     -0.642359 (  -0.05029%)
MG Correction to account for finite box:                  0.469271
MG Remaining discrepancy, due to discretization:         -0.173088 (  -0.01355%)
      ideal mu1:      -0.762742708707
             Q0:  -11612.350565002300
             G0:      -0.001823481166
   RMS gradient:       0.000006564526
MG BCs: +ve charge blocks (gridpoints):     25138 (   17240551).
MG BCs: -ve charge blocks (gridpoints):      8492 (    1072871).
MG BCs:     Elided blocks (gridpoints):    175502 (  177983043).
MG BCs: Computational effort saved:  99.9829%.
MG BCs: Charge after coarse-graining:           -9.0007213.
MG DL_MG: Calling solver with defect correction order = 8
MG DL_MG: Solver finished
MG Hartree energy from (\int phi*rho dr):              1277.381298
MG Hartree energy from (\int eps (grad phi)^2 dr):     1276.738938
MG Discrepancy due to finite box and discretization:     -0.642360 (  -0.05029%)
MG Correction to account for finite box:                  0.469269
MG Remaining discrepancy, due to discretization:         -0.173090 (  -0.01355%)
     Trial step:       0.625260300031
             Q1:  -11612.351067400887
 Quadratic coef:       0.000637751795
 Linear coef   :      -0.001140150381
           Qmin:  -11612.351074582555
Quadratic minimum step length (  0.558909261499) accepted
    Initial Ne1:    7192.00001611
      Final Ne1:    7192.00000000

=================== Penalty functional idempotency correction ==================
 RMS occupancy error at iteration   1:  0.000001 (step -0.5000 Ne1=   7192.0000)
            Final RMS occupancy error   :  0.000000 (Ne1=   7192.0000)
               Final occupancy bounds   : [  0.0000,  1.0000]
================================================================================

    7        -1.161235056500E+04     6.5645E-06     5.9375E-06    -1.0953E-03
MG BCs: +ve charge blocks (gridpoints):     25138 (   17240564).
MG BCs: -ve charge blocks (gridpoints):      8492 (    1072865).
MG BCs:     Elided blocks (gridpoints):    175502 (  177983036).
MG BCs: Computational effort saved:  99.9829%.
MG BCs: Charge after coarse-graining:           -9.0007213.
MG DL_MG: Calling solver with defect correction order = 8
MG DL_MG: Solver finished
MG Hartree energy from (\int phi*rho dr):              1277.387097
MG Hartree energy from (\int eps (grad phi)^2 dr):     1276.744737
MG Discrepancy due to finite box and discretization:     -0.642360 (  -0.05029%)
MG Correction to account for finite box:                  0.469270
MG Remaining discrepancy, due to discretization:         -0.173090 (  -0.01355%)
      ideal mu1:      -0.762661329670
             Q0:  -11612.351074593258
             G0:      -0.001503116553
   RMS gradient:       0.000005960162
MG BCs: +ve charge blocks (gridpoints):     25138 (   17240560).
MG BCs: -ve charge blocks (gridpoints):      8492 (    1072876).
MG BCs:     Elided blocks (gridpoints):    175502 (  177983029).
MG BCs: Computational effort saved:  99.9829%.
MG BCs: Charge after coarse-graining:           -9.0007213.
MG DL_MG: Calling solver with defect correction order = 8
MG DL_MG: Solver finished
MG Hartree energy from (\int phi*rho dr):              1277.355230
MG Hartree energy from (\int eps (grad phi)^2 dr):     1276.712874
MG Discrepancy due to finite box and discretization:     -0.642356 (  -0.05029%)
MG Correction to account for finite box:                  0.469266
MG Remaining discrepancy, due to discretization:         -0.173090 (  -0.01355%)
     Trial step:       0.591154609671
             Q1:  -11612.351826656959
 Quadratic coef:       0.000136510578
 Linear coef   :      -0.000888574279
           Qmin:  -11612.352520569571
Quadratic minimum step length (  1.923970978375) accepted
    Initial Ne1:    7192.00004534
      Final Ne1:    7192.00000000

=================== Penalty functional idempotency correction ==================
 RMS occupancy error at iteration   1:  0.000043 (step -0.4970 Ne1=   7192.0000)
            Final RMS occupancy error   :  0.000000 (Ne1=   7192.0000)
               Final occupancy bounds   : [ -0.0000,  1.0000]
================================================================================

    8        -1.161235107459E+04     5.9602E-06     5.3908E-06    -5.0959E-04
MG BCs: +ve charge blocks (gridpoints):     25139 (   17240546).
MG BCs: -ve charge blocks (gridpoints):      8492 (    1072879).
MG BCs:     Elided blocks (gridpoints):    175501 (  177983040).
MG BCs: Computational effort saved:  99.9829%.
MG BCs: Charge after coarse-graining:           -9.0007213.
MG DL_MG: Calling solver with defect correction order = 8
MG DL_MG: Solver finished
MG Hartree energy from (\int phi*rho dr):              1277.281489
MG Hartree energy from (\int eps (grad phi)^2 dr):     1276.639145
[...]
 RMS occupancy error at iteration   1:  0.000000 (step -0.5000 Ne1=   7192.0000)
            Final RMS occupancy error   :  0.000000 (Ne1=   7192.0000)
               Final occupancy bounds   : [ -0.0000,  1.0000]
================================================================================

    7        -1.164810802487E+04     5.5158E-09     4.9889E-09     1.1642E-10

Reusing previously generated solute cavity.
MG BCs: +ve charge blocks (gridpoints):     29448 (   19363089).
MG BCs: -ve charge blocks (gridpoints):      8523 (    1050470).
MG BCs:     Elided blocks (gridpoints):    171192 (  175882906).
MG BCs: Computational effort saved:  99.9807%.
MG BCs: Charge after coarse-graining:           -9.0009804.
MG DL_MG: Calling solver with defect correction order = 8
MG DL_MG: Solver finished
MG Hartree energy from (\int phi*rho dr):              1229.081493
MG Hartree energy from (\int eps (grad phi)^2 dr):     1228.902448
MG Discrepancy due to finite box and discretization:     -0.179045 (  -0.01457%)
MG Correction to account for finite box:                  0.006405
MG Remaining discrepancy, due to discretization:         -0.172639 (  -0.01405%)
      ideal mu1:      -0.513914029241
             Q0:  -11648.108024867950
             G0:      -0.000000001880
   RMS gradient:       0.000000004863

Reusing previously generated solute cavity.
MG BCs: +ve charge blocks (gridpoints):     29448 (   19363089).
MG BCs: -ve charge blocks (gridpoints):      8523 (    1050470).
MG BCs:     Elided blocks (gridpoints):    171192 (  175882906).
MG BCs: Computational effort saved:  99.9807%.
MG BCs: Charge after coarse-graining:           -9.0009804.
MG DL_MG: Calling solver with defect correction order = 8
MG DL_MG: Solver finished
MG Hartree energy from (\int phi*rho dr):              1229.081498
MG Hartree energy from (\int eps (grad phi)^2 dr):     1228.902453
MG Discrepancy due to finite box and discretization:     -0.179045 (  -0.01457%)
MG Correction to account for finite box:                  0.006405
MG Remaining discrepancy, due to discretization:         -0.172639 (  -0.01405%)
     Trial step:       0.175049901002
             Q1:  -11648.108024867717
 Quadratic coef:       0.000000000562
 Linear coef   :      -0.000000000329
           Qmin:  -11648.108024867997
Quadratic minimum step length (  0.051238930815) accepted
    Initial Ne1:    7192.00000000
      Final Ne1:    7192.00000000

=================== Penalty functional idempotency correction ==================
 RMS occupancy error at iteration   1:  0.000000 (step -0.5000 Ne1=   7192.0000)
            Final RMS occupancy error   :  0.000000 (Ne1=   7192.0000)
               Final occupancy bounds   : [ -0.0000,  1.0000]
================================================================================

    8        -1.164810802487E+04     4.8631E-09     4.3985E-09     1.1642E-10

Reusing previously generated solute cavity.
MG BCs: +ve charge blocks (gridpoints):     29448 (   19363089).
MG BCs: -ve charge blocks (gridpoints):      8523 (    1050470).
MG BCs:     Elided blocks (gridpoints):    171192 (  175882906).
MG BCs: Computational effort saved:  99.9807%.
MG BCs: Charge after coarse-graining:           -9.0009804.
MG DL_MG: Calling solver with defect correction order = 8
MG DL_MG: Solver finished
MG Hartree energy from (\int phi*rho dr):              1229.081494
MG Hartree energy from (\int eps (grad phi)^2 dr):     1228.902450
MG Discrepancy due to finite box and discretization:     -0.179045 (  -0.01457%)
MG Correction to account for finite box:                  0.006405
MG Remaining discrepancy, due to discretization:         -0.172639 (  -0.01405%)
      ideal mu1:      -0.513914028128
             Q0:  -11648.108024867950
             G0:      -0.000000002085
   RMS gradient:       0.000000004310

Reusing previously generated solute cavity.
MG BCs: +ve charge blocks (gridpoints):     29448 (   19363089).
MG BCs: -ve charge blocks (gridpoints):      8523 (    1050470).
MG BCs:     Elided blocks (gridpoints):    171192 (  175882906).
MG BCs: Computational effort saved:  99.9807%.
MG BCs: Charge after coarse-graining:           -9.0009804.
MG DL_MG: Calling solver with defect correction order = 8
MG DL_MG: Solver finished
MG Hartree energy from (\int phi*rho dr):              1229.081497
MG Hartree energy from (\int eps (grad phi)^2 dr):     1228.902453
MG Discrepancy due to finite box and discretization:     -0.179045 (  -0.01457%)
MG Correction to account for finite box:                  0.006405
MG Remaining discrepancy, due to discretization:         -0.172639 (  -0.01405%)
     Trial step:       0.094706756710
             Q1:  -11648.108024867717
 Quadratic coef:       0.000000000431
 Linear coef   :      -0.000000000197
           Qmin:  -11648.108024867972
Quadratic minimum step length (  0.021690443468) accepted
    Initial Ne1:    7192.00000000
      Final Ne1:    7192.00000000

=================== Penalty functional idempotency correction ==================
 RMS occupancy error at iteration   1:  0.000000 (step -0.5000 Ne1=   7192.0000)
            Final RMS occupancy error   :  0.000000 (Ne1=   7192.0000)
               Final occupancy bounds   : [  0.0000,  1.0000]
================================================================================

    9        -1.164810802487E+04     4.3104E-09     3.8986E-09     0.0000E+00

Reusing previously generated solute cavity.
MG BCs: +ve charge blocks (gridpoints):     29448 (   19363089).
MG BCs: -ve charge blocks (gridpoints):      8523 (    1050470).
MG BCs:     Elided blocks (gridpoints):    171192 (  175882906).
MG BCs: Computational effort saved:  99.9807%.
MG BCs: Charge after coarse-graining:           -9.0009804.
MG DL_MG: Calling solver with defect correction order = 8
MG DL_MG: Solver finished
MG Hartree energy from (\int phi*rho dr):              1229.081495
MG Hartree energy from (\int eps (grad phi)^2 dr):     1228.902450
MG Discrepancy due to finite box and discretization:     -0.179045 (  -0.01457%)
MG Correction to account for finite box:                  0.006405
MG Remaining discrepancy, due to discretization:         -0.172639 (  -0.01405%)
      ideal mu1:      -0.513914027508
   10        -1.164810802487E+04     4.0379E-09     3.6522E-09     0.0000E+00
Finished density kernel iterations (  10)

Writing density kernel to file "host_38481.dkn" ... done


>>> Density kernel optimised for the current NGWF basis:
     ~~~~~~~~~~~~~~~~~~~~~~~~~~~~~~~~~~~~~~~~~~~~~~~~~~~~~~~~~~~
     Total energy                =  -1.16481080248680E+04  Eh
     Estimated bandgap           =   1.1524E-01  Eh
     RMS occupancy error         =   2.8097E-16
     [H,K] commutator            =   3.6522E-09
     Occupancy bounds            = [  0.000:  1.000]
     ~~~~~~~~~~~~~~~~~~~~~~~~~~~~~~~~~~~~~~~~~~~~~~~~~~~~~~~~~~~




################################################################################
########################### NGWF CG iteration  005 #############################
################################################################################
****** Reciprocal space K.E. preconditioning with k_zero =  3.5000 a0^-1 *******

>>> Checking for convergence of NGWFs: 
           ........................................................
           |         *** NGWF optimisation converged ***          |
           | RMS NGWF gradient =    0.00000112608160              |
           | Criteria satisfied:                                  |
           | -> RMS NGWF gradient lower than set threshold.       |
           ========================================================

Reusing previously generated solute cavity.
MG BCs: +ve charge blocks (gridpoints):     29448 (   19363089).
MG BCs: -ve charge blocks (gridpoints):      8523 (    1050470).
MG BCs:     Elided blocks (gridpoints):    171192 (  175882906).
MG BCs: Computational effort saved:  99.9807%.
MG BCs: Charge after coarse-graining:           -9.0009804.
MG DL_MG: Calling solver with defect correction order = 8
MG DL_MG: Solver finished
MG Hartree energy from (\int phi*rho dr):              1229.081495
MG Hartree energy from (\int eps (grad phi)^2 dr):     1228.902450
MG Discrepancy due to finite box and discretization:     -0.179045 (  -0.01457%)
MG Correction to account for finite box:                  0.006405
MG Remaining discrepancy, due to discretization:         -0.172639 (  -0.01405%)

================================================================================
           ---------------- ENERGY COMPONENTS (Eh) ----------------
           | Kinetic                    :     8410.26191711490537 |
           | Pseudo. (local,OBC,corr'd) :    -4991.04287402391310 |
           | Pseudopotential (non-local):     1446.24001502249439 |
           | Hartree (molecular)        :     1229.08149489035463 |
           | Exchange-correlation       :    -3334.18785594668634 |
           | Ion-ion (open BC)          :   825819.69414443220012 |
           | Smeared ion non-self corr. :  -825771.63632264151238 |
           | Smeared ion self corr.     :   -14457.16956389741972 |
           | Solvent cavitation energy  :        2.31617960206029 |
           | Solute-solvent dis-rep en. :       -1.66515942041120 |
           | Total                      :   -11648.10802486789908 |
           --------------------------------------------------------
           ------ LOCAL ENERGY COMPONENTS FROM MATRIX TRACES ------
           | Pseudopotential (local)    :    -4991.04287402393493 |
           | Hartree                    :    -1984.50659147768442 |
           --------------------------------------------------------
           Integrated density           :     7191.99999999806914
           Integrated density tr(KS)    :     7192.00000000000000
================================================================================


                        <<<<< CALCULATION SUMMARY >>>>>                         
|ITER|    RMS GRADIENT   |     TOTAL ENERGY    |   step   |     Epredicted              
   0     0.00003992020058 -11648.05104497366119   0.561362 -11648.10042212530243        
   1     0.00001232136829 -11648.10690088337287   0.112627 -11648.10784463624077        
   2     0.00000551899584 -11648.10798325529322   0.020906 -11648.10801840192835        
   3     0.00000249968716 -11648.10802310833242   0.004365 -11648.10802461384810        
   4     0.00000112608160 -11648.10802486795001  <-- CG                                 

=================== Finished the calculation in solvent ========================
= Adjusting the following parameters: 
= read_denskern: F
= read_tightbox_ngwfs: F
= maxit_pen: 0 (restored to user-specified value)
= restart read filename prefix: ""
= restart write filename prefix: ""
================================================================================

================================================================================
IS: Calculation in solvent completed (NGWFs converged).      

Individual components of total energy in solvent:     hartree           kcal/mol
- Usual non-electrostatic DFT terms:    -12877.84053993995440    -8080966.768969
- Electrostatic fixed charge energy:      1229.08149489035463      771260.265707
- Apolar cavitation energy:                  2.31617960206029        1453.424612
- Apolar dispersion-repulsion energy:       -1.66515942041120       -1044.903289
 -------------------------------------------------------------------------------
- Total energy in solvent:              -11648.10802486795001    -7309297.981939

Components of total energy in solvent:                hartree           kcal/mol
- Usual non-electrostatic DFT terms:    -12877.84053993995440    -8080966.768969
- Electrostatic energy:                   1229.08149489035463      771260.265707
- Apolar energy terms:                       0.65102018164910         408.521323
 -------------------------------------------------------------------------------
- Total energy in solvent:              -11648.10802486795001    -7309297.981939

Calculation of free energy of solvation:              hartree           kcal/mol
- Total energy in solvent:         (+)  -11648.10802486795001    -7309297.981939
- Total energy in vacuum:          (-)  -11644.05611334333662    -7306755.369125
 -------------------------------------------------------------------------------
- Total free energy of solvation:           -4.05191152461339       -2542.612815

Components of polar term in f.e. of solvation:        hartree           kcal/mol
- Electrostatic:                            -4.91257405424790       -3082.686694
- Change in nonelectrostatic DFT terms:      0.20964234798521         131.552557
 -------------------------------------------------------------------------------
- Polar term in f.e. of solvation:          -4.70293170626269       -2951.134138

Components of free energy of solvation:               hartree           kcal/mol
- Polar term in f.e. of solvation: (+)      -4.70293170626269       -2951.134138
- Apolar (cavitation, dis., rep.): (+)       0.65102018164910         408.521323
 -------------------------------------------------------------------------------
- Total free energy of solvation:           -4.05191152461359       -2542.612815
================================================================================


------------------------------ TIMING INFORMATION ------------------------------
AVERAGE TIME:   72431.894s on     40 node(s)                                    
TOTAL TIME:     72431.895s on     40 node(s)                                    
================= AVERAGE TIMINGS FROM ALL NODES (CUMULATIVE) ==================
|| TAG                                    #calls    cpu time   %total  Gflops ||
|| work_imbalance                       :     1        0.00s   0.000%  ------ ||
|| parallel_prepare_fd_halos_request    :  2073        0.02s   0.000%  ------ ||
|| sparse_set_to_garbage                :   218        0.05s   0.000%  ------ ||
|| parallel_prepare_fd_halos_satisfy    :  2073        0.06s   0.000%  ------ ||
|| parallel_prepare_fd_halos_alloc      :  2073        0.07s   0.000%  ------ ||
|| ngwfs_initialise_from_radial         :     1        0.17s   0.000%  ------ ||
|| basis_extract_function_from_box      :  5691        0.20s   0.000%  ------ ||
|| restart_ngwfs_tightbox_input         :     1        1.02s   0.001%  ------ ||
|| pseudopotentials_nonlocal_mat        :    32        1.22s   0.002%  ------ ||
|| density_init_guess_real              :     1        4.14s   0.006%  ------ ||
|| parallel_prepare_fd_halos_comms_imbal:  2073        4.15s   0.006%  ------ ||
|| restart_kernel_read                  :     1        5.15s   0.007%  ------ ||
|| openbc_locps_radial                  :     1        5.31s   0.007%  ------ ||
|| restart_kernel_write                 :    18       13.53s   0.019%  ------ ||
|| parallel_prepare_fd_halos_clear      :  2073       14.88s   0.021%  ------ ||
|| sparse_init                          :     2       23.32s   0.032%  ------ ||
|| projectors_func_ovlp_box             :    32       25.60s   0.035%  ------ ||
|| parallel_prepare_fd_halos_comms_wait :  2073       26.12s   0.036%  ------ ||
|| function_ops_brappd_ketppd           :    32       29.07s   0.040%  ------ ||
|| projectors_init_fftbox_recip         :   219       29.51s   0.041%  ------ ||
|| palser_mano_kernel_optimise          :     1       38.86s   0.054%  ------ ||
|| parallel_prepare_fd_halos            :  2073       45.32s   0.063%  ------ ||
|| pseudo_make_structure_factor         :     2       54.72s   0.076%  ------ ||
|| ngwf_gradient_coeffs                 :    17       67.98s   0.094%  ------ ||
|| restart_ngwfs_tightbox_output        :    15       99.17s   0.137%  ------ ||
|| sparse_embed_hotelling_invert_embed  :    32       99.46s   0.137%  ------ ||
|| finite_difference_derivative         :  2073      114.01s   0.157%  ------ ||
|| basis_copy_function_to_box           : 176.3k     124.93s   0.172%  ------ ||
|| openbc_locps_on_grid                 :     2      184.45s   0.255%  ------ ||
|| integrals_kinetic                    :    32      189.05s   0.261%  ------ ||
|| projectors_gradient_batch            :   187      234.07s   0.323%  ------ ||
|| sparse_trace                         :  5331      277.68s   0.383%  ------ ||
|| fourier_apply_box_pair               : 49663      343.92s   0.475% 593.624 ||
|| kernel_purify                        :   527      374.83s   0.517%  ------ ||
|| basis_dot_function_with_box          : 19.99M     377.74s   0.522%  ------ ||
|| lnv_gradient_norm                    :   170      612.31s   0.845%  ------ ||
|| kernel_fix                           :   170      613.32s   0.847%  ------ ||
|| hamiltonian_energy_components        :     4      743.38s   1.026%  ------ ||
|| integrals_locpot_mat_els_batch       :  1969      946.74s   1.307%  ------ ||
|| basis_add_function_to_box            : 53.60M    1010.15s   1.395%  ------ ||
|| ke_density_batch_grad_apply          :  3784     1149.69s   1.587%  ------ ||
|| ke_density_batch_row_sums            :  3784     1325.43s   1.830%  ------ ||
|| density_batch_row_sums               :  3784     1326.68s   1.832%  ------ ||
|| fourier_apply_cell_backward          :  9295     1556.84s   2.149%  82.468 ||
|| density_fftbox_deposit_to_cell       : 56072     1682.49s   2.323%  ------ ||
|| ke_density_fftbox_deposit_to_cell    : 56072     1987.96s   2.745%  ------ ||
|| fourier_apply_cell_forward           :  9293     2000.58s   2.762%  64.163 ||
|| cell_grid_deposit_box_real           : 114.3k    2059.70s   2.844%  ------ ||
|| sparse_product                       :  6876     2265.64s   3.128%  ------ ||
|| cell_grid_extract_box_real           : 140.6k    2316.25s   3.198%  ------ ||
|| multigrid_prepare_bound_cond         :   345     2685.96s   3.708%  ------ ||
|| ngwf_gradient_build_batch            :   187     2705.44s   3.735%  ------ ||
|| ngwf_gradient_batch                  :   187     3032.88s   4.187%  ------ ||
|| ngwf_gradient_lnv                    :    17     3242.40s   4.476%  ------ ||
|| potential_apply_to_ngwf_batch        :  1969     3674.52s   5.073%  ------ ||
|| density_fftbox_interpolate_multiply  : 56072     4200.28s   5.799%  ------ ||
|| integrals_locpot_dbl_grid            :   179     4639.46s   6.405%  ------ ||
|| xc_energy_potential                  :   345     4738.37s   6.542%  ------ ||
|| density_batch_interp_deposit         :  3784     6635.11s   9.160%  ------ ||
|| dl_mg_solver_calls                   :   345     7150.15s   9.872%  ------ ||
|| nlxc_vdw_energy                      :   688     7945.89s  10.970%  ------ ||
|| density_on_dbl_grid                  :   344     8395.38s  11.591%  ------ ||
|| potential_apply_to_fftbox_batch      :  5610     9936.65s  13.719%  ------ ||
|| multigrid_calculate_hartree          :   345    10001.09s  13.808%  ------ ||
|| integrals_div_locpot_grad_functions  :   170    14831.30s  20.476%  ------ ||
|| ke_density_fftbox_interpolate_multipl: 56072    16526.87s  22.817%  ------ ||
|| ke_density_batch_interp_deposit      :  3784    19334.68s  26.694%  ------ ||
|| fourier_apply_box                    : 1.272M   21529.24s  29.723% 804.157 ||
|| ke_density_on_dbl_grid               :   344    22278.92s  30.758%  ------ ||
|| hamiltonian_lhxc_calculate           :   340    45376.05s  62.647%  ------ ||
|| lnv_denskernel_optimise_cg           :    17    65052.03s  89.811%  ------ ||
|| ngwf_cg_optimise                     :     2    71644.57s  98.913%  ------ ||
|| total_time                           :     1    72431.89s 100.000%  ------ ||
================================================================================
Overhead of generating timer report: 
- 0 ms averaging over threads,
- 6 ms ensuring consistency across MPI ranks,
- 2 ms printing in order.

Job completed: 06-03-2020 05:49 (-0000)

