 +---------------------------------------------------------------+
 |                                                               |
 |        ####### #     # ####### ####### ####### ######         |
 |        #     # ##    # #          #    #       #     #        |
 |        #     # # #   # #          #    #       #     #        |
 |        #     # #  #  # #####      #    #####   ######         |
 |        #     # #   # # #          #    #       #              |
 |        #     # #    ## #          #    #       #              |
 |        ####### #     # #######    #    ####### #              |
 |                                                               |
 |        Linear-Scaling Ab Initio Total Energy Program          |
 |                                                               |
 |          Release for academic collaborators of ODG            |
 |                                             Version 5.3.2.6.  |
 |                                                               |
 +---------------------------------------------------------------+
 |                                                               |
 |  Authors:                                                     |
 |  Jacek Dziedzic, Peter D. Haynes, Nicholas D. M. Hine,        |
 |  Arash. A. Mostofi, Mike C. Payne and Chris-Kriton Skylaris   |
 |                                                               |
 |  Contributors:                                                |
 |  J. Aarons, L. Andrinopoulos, P. W. Avraam, R. A. Bell,       |
 |  A. Bhandari, G. A. Bramley, R. J. Charlton, S. J. Clark,     |
 |  R. J. Clements, G. C. Constantinescu, F. Corsetti,           |
 |  N. Corsini, O. Dieguez, S. M. M. Dubois, K. K. B. Duff,      |
 |  J. M. Escartin, A. Greco, H. Helal, Q. O. Hill, L. P. Lee,   |
 |  J.-H. Li, E. B. Linscott, G. Moynihan, D. D. O`Regan,        |
 |  O. K. Okan, M. J. S. Phipps, C. J. Pickard,                  |
 |  J. C. A. Prentice, M. I. J. Probert, L. E. Ratcliff,         |
 |  M. Robinson, A. Ruiz Serrano, J. S. Spencer, E. W. Tait,     |
 |  G. Teobaldi, D. Turban, V. Vitale, K. A. Wilkinson,          |
 |  C. Weber, J. C. Womack, N. Yeung and T. J. Zuehlsdorff       |
 |                                                               |
 |                                   Copyright (c) 2004-2019     |
 |                                                               |
 |  Please cite:                                                 |
 |  "Introducing ONETEP: Linear-scaling density functional       |
 |   simulations on parallel computers".                         |
 |   C.-K. Skylaris, P. D. Haynes, A. A. Mostofi, M. C. Payne.   |
 |   J. Chem. Phys. 122 084119 (2005).                           |
 |                                                               |
 |          in all publications arising from your use of ONETEP. |
 |                                                               |
 +---------------------------------------------------------------+
 |                                                               |
 |   ONETEP is based on developments described in the following  |
 |   publications:                                               |
 |                                                               |
 |  "Nonorthogonal generalized Wannier function pseudopotential  |
 |   plane-wave method".                                         |
 |   C.-K. Skylaris, A. A. Mostofi, P. D. Haynes, O. Dieguez,    |
 |   M. C. Payne.                                                |
 |   Phys. Rev. B 66 035119 (2002).                              |
 |                                                               |
 |  "Preconditioned iterative minimization for linear-scaling    |
 |   electronic structure calculations".                         |
 |   A. A. Mostofi, P. D. Haynes, C.-K. Skylaris, M. C. Payne.   |
 |   J. Chem. Phys. 119(17), pp.8842-8848 (2003).                |
 |                                                               |
 |  "Total-energy calculations on a real space grid with         |
 |   localized functions and a plane-wave basis".                |
 |   A. A. Mostofi, C.-K. Skylaris, P. D. Haynes, M. C. Payne.   |
 |   Comput. Phys. Commun. 147, pp.788-802 (2002).               |
 |                                                               |
 |  "Accurate kinetic energy evaluation in electronic structure  |
 |   calculations with localized functions on real space grids"  |
 |   C.-K. Skylaris, A. A. Mostofi, P. D. Haynes, C. J. Pickard, |
 |   M. C. Payne.                                                |
 |   Comput. Phys. Commun. 140, pp.315-322 (2001).               |
 |                                                               |
 |  "Accurate ionic forces and geometry optimization in linear-  |
 |   scaling density-functional theory with local orbitals"      |
 |   N. D. M. Hine, M. Robinson, P. D. Haynes, C.-K. Skylaris,   |
 |   M. C. Payne, and A. A. Mostofi.                             |
 |   Phys. Rev. B 83 195102 (2011).                              |
 |                                                               |
 +---------------------------------------------------------------+

Job started: 08-01-2020 12:59 (-0000)
 
Reading parameters from file "host_24801.dat" ...... done

If your calculation crashes here, before "Checking processes and threads..."
is displayed, then your stack size is insufficient.
If so, use "ulimit -s unlimited" at runtime.
You can disable this check with "check_stack_size F".

Checking processes and threads...
   Determining the default number of threads...
      No default threads set at compilation time: defaulting to 1.
      OpenMP library call suggests 4 threads.
      Hybrid MPI-OpenMP compilation detected.
      Number of MPI processes > 1.
      OMP_NUM_THREADS environment variable present and
      its value matches the one obtained from the OpenMP library call.
      Using this value as default.
      Default threads: 4
      Default applies to threads_max and threads_num_fftboxes.
      Settings in the input file override this default.
   ... done

   Running with 40 MPI processes.
   There are 10 MPI processes running on the same node as the root process.
   Each MPI process is using: 
               1 threads for simulation cell FFTs.
               1 threads for parallel FFT box operations.
               4 threads for loops over batched FFT box operations.
               4 threads in other parallel regions.
... done

Basic input checks...... done

Reading geometry and species blocks from file "host_24801.dat" ...
  <species_atomic_set> block not found: NGWF initialisation set to SOLVE
IS: Dielectric excluded regions:
    - NONE.
    
  Number of PPD points along a3 set to 1.  This is 
  the default value, it may have been provided also in the input file.
... done
 Writing xyz coordinates to file "host_24801.xyz" ... done


--------------------------------------------------------------------------------
---------------------------------- INPUT FILE ----------------------------------
--------------------------------------------------------------------------------

cutoff_energy       : 800 eV                                                    
xc_functional B97M-V                                                            
task SINGLEPOINT                                                                
write_xyz true                                                                  
output_detail VERBOSE                                                           
ngwf_threshold_orig : 0.000002                                                  
kernel_cutoff       : 1000                                                      
k_zero              : 3.5                                                       
elec_cg_max 0                                                                   
occ_mix 1.0                                                                     
dispersion 0                                                                    
maxit_ngwf_cg 40                                                                
minit_lnv 10                                                                    
maxit_lnv 10                                                                    
write_denskern T                                                                
write_tightbox_ngwfs T                                                          
charge 9                                                                        
is_implicit_solvent T                                                           
is_auto_solvation T                                                             
is_include_apolar T                                                             
is_smeared_ion_rep T                                                            
is_solvent_surf_tension 4.7624E-5 Ha/bohr**2                                    
is_apolar_scaling_factor 0.281075                                               
is_solvation_beta 1.3                                                           
is_density_threshold 0.00035                                                    
is_bulk_permittivity 78.54                                                      
is_dielectric_model fix_initial                                                 
is_smeared_ion_width 0.8                                                        
mg_defco_fd_order 8                                                             
is_bc_coarseness 10                                                             
is_bc_surface_coarseness 1                                                      
fine_grid_scale 2.0                                                             
%block species                                                                  
N   N   7 4 8.0                                                                 
H   H   1 1 8.0                                                                 
C   C   6 4 8.0                                                                 
S   S  16 9 8.0                                                                 
O   O   8 4 8.0                                                                 
%endblock species                                                               
%block species_pot                                                              
N   N_00.recpot                                                                 
H   H_04.recpot                                                                 
C   C_01.recpot                                                                 
S   S_00.recpot                                                                 
O   O_02.recpot                                                                 
%endblock species_pot                                                           
%block lattice_cart                                                             
137.614   0.000   0.000                                                         
0.000 142.646   0.000                                                           
0.000   0.000   160.855                                                         
%endblock lattice_cart                                                          
%block positions_abs                                                            
     Hash =  -000000922575040791695477
%endblock positions_abs                                                         

--------------------------------------------------------------------------------
-------------------------------- END INPUT FILE --------------------------------
--------------------------------------------------------------------------------


 
 ESDF WARNING(1): "kernelcutoff" (esdf_physical) has no units. Assume "bohr".
 ESDF WARNING(2): "kzero" (esdf_physical) has no units. Assume "1/bohr".
 ESDF WARNING(3
 ): "issmearedionwidth" (esdf_physical) has no units. Assume "bohr".
<<<<<<<<<<<<<<<<<<<<<<<<<<<<<<<<< Full system >>>>>>>>>>>>>>>>>>>>>>>>>>>>>>>>>>
<<<<<<<<<<<<<<<<<<<<<<<<< Pseudopotential information >>>>>>>>>>>>>>>>>>>>>>>>>>
File: N_00.recpot [ 2001 points up to Gmax=  52.9 (1/bohr)]
  Atomic number:  7;  ionic charge:  5.000000
    Shell 1: l = 0; rc = 1.48 bohr
File: H_04.recpot [ 2001 points up to Gmax=  52.9 (1/bohr)]
  Atomic number:  1;  ionic charge:  1.000000
    Local potential
File: C_01.recpot [ 2001 points up to Gmax=  52.9 (1/bohr)]
  Atomic number:  6;  ionic charge:  4.000000
    Shell 1: l = 0; rc = 1.48 bohr
File: S_00.recpot [ 2001 points up to Gmax=  52.9 (1/bohr)]
  Atomic number: 16;  ionic charge:  6.000000
    Shell 1: l = 0; rc = 1.90 bohr
    Shell 2: l = 2; rc = 1.84 bohr
File: O_02.recpot [ 2001 points up to Gmax=  52.9 (1/bohr)]
  Atomic number:  8;  ionic charge:  6.000000
    Shell 1: l = 0; rc = 1.31 bohr
<<<<<<<<<<<<<<<<<<<<<<<<<<<<<<<<<<<<<<<<>>>>>>>>>>>>>>>>>>>>>>>>>>>>>>>>>>>>>>>>

-------------------------- Atom counting information ---------------------------
Symbol    Natoms    Nngwfs    Nprojs
  N        236       944       236
  H       1311      1311         0
  C        810      3240       810
  S          6        54        36
  O        239       956       239
.......   ......    ......    ......
Totals:   2602      6505      1321
--------------------------------------------------------------------------------

=============================== PSINC grid sizes ===============================
                      Simulation cell:  273 x 286 x 320
                              FFT-box:   99 x 105 x  99
                                  PPD:    7 x  11 x   1
Grid space d1=  0.504080586081a0 (KE cutoff=  29.89538Eh = 813.49465eV)
Grid space d2=  0.498762237762a0 (KE cutoff=  30.53633Eh = 830.93588eV)
Grid space d3=  0.502671875000a0 (KE cutoff=  30.06317Eh = 818.06059eV)
================================================================================

********************* Fourier parallelisation information **********************
       Coarse grid (whole simulation cell) dimensions:    273   286   320
          Real-space ('12') slabs/node (min max mean):      8     8     8
         Recip-space ('23') slabs/node (min max mean):      3     4     3
********************************************************************************

********************* Fourier parallelisation information **********************
       Double grid (whole simulation cell) dimensions:    546   572   640
          Real-space ('12') slabs/node (min max mean):     16    16    16
         Recip-space ('23') slabs/node (min max mean):      6     7     6
********************************************************************************
ONETEP fine grid is 546 x 572 x 640 gridpoints, 137.6140 x 142.6460 x 160.8550 bohr.
FD multigrid is     545 x 569 x 633 gridpoints, 137.3620 x 141.8979 x 159.0956 bohr.


Calculating local pseudopotential in open BC on a radial grid ...
Discrepancy between calculated realspace psloc and -Z/x on [5a0,255.264a0]:
max |rel. diff| # avg |rel. diff| #  avg rel. diff #  f # pseudopotential file
 0.000296759711    0.000009439468   0.000000085927   54  'N_00.recpot'
 0.000490027943    0.000021572324  -0.000000031900   54  'H_04.recpot'
 0.000320795249    0.000014598087   0.000000111901   54  'C_01.recpot'
 0.000388730920    0.000016096375   0.000000514750   54  'S_00.recpot'
 0.000828383344    0.000035421288   0.000000087443   54  'O_02.recpot'
... done
 WARNING: meta-GGA functionality under development.
          Using this functional is experimental.
          Minimum tau threshold, xc_min_tau =   1.00000000E-12
 WARNING: Using alternative XC functional PBE for 
          radial densities (xc_radial).

Atom SCF Calculation for N  : Z (AE atom) =   7 : Z (PS atom) =   5
Config String:
Orbitals (num,occ):  2     2.00 3.00
Orbitals   (num,l):  2        0    1
Real-space Grid (nr,dr,rmax): 1203    0.0066555740    8.0000000000
Spherical Bessel Basis (nsws,lmax,cutoff):   47    1  176.3951722778
Confining potential (l,width,scale):  0    3.0000000000  100.0000000000
Confining potential (l,width,scale):  1    3.0000000000  100.0000000000
  1         -4.7312375307   -3.4155304497    7.0523828109   -1.9351020946
  2         -9.7309464766   -2.0532547791    8.2966052865   -2.2494486027
  3         -9.6627394379   -2.1124926340    8.2327997121   -2.2369778124
  4         -9.6814993499   -2.1215521045    8.2229805960   -2.2365178421
  5         -9.6843326483   -2.1250939529    8.2191374534   -2.2362718126
  6         -9.6859628709   -2.1267894855    8.2172963573   -2.2362066344
  7         -9.6867347035   -2.1276425665    8.2163697352   -2.2361903369
  8         -9.6870802100   -2.1280764625    8.2158983890   -2.2361891460
  9         -9.6872290423   -2.1282977424    8.2156580222   -2.2361920435
 10         -9.6872901988   -2.1284107021    8.2155353368   -2.2361953393
 11         -9.6873135296   -2.1284684031    8.2154726809   -2.2361979819
 12         -9.6873212476   -2.1284978948    8.2154406648   -2.2361998431
 13         -9.6873229586   -2.1285129774    8.2154242957   -2.2362010676
 14         -9.6873226456   -2.1285206957    8.2154159216   -2.2362018403
 15         -9.6873218534   -2.1285246479    8.2154116349   -2.2362023142
 16         -9.6873212599   -2.1285262679    8.2154098784   -2.2362025420
 17         -9.6873207834   -2.1285272564    8.2154088068   -2.2362026955
 18         -9.6873204210   -2.1285278597    8.2154081529   -2.2362027982
 19         -9.6873201550   -2.1285282280    8.2154077538   -2.2362028667
 20         -9.6873199645   -2.1285284529    8.2154075102   -2.2362029121
 21         -9.6873198305   -2.1285285903    8.2154073614   -2.2362029421
 22         -9.6873197377   -2.1285286742    8.2154072705   -2.2362029618
Atom SCF converged after  22 iterations to a total energy of     -9.68731974

Atom SCF Calculation for H  : Z (AE atom) =   1 : Z (PS atom) =   1
Config String:
Orbitals (num,occ):  1     1.00
Orbitals   (num,l):  1        0
Real-space Grid (nr,dr,rmax): 1203    0.0066555740    8.0000000000
Spherical Bessel Basis (nsws,lmax,cutoff):   47    0  176.3951722778
Confining potential (l,width,scale):  0    3.0000000000  100.0000000000
  1         -0.3194257691   -0.2393854593    0.2820953124   -0.2424203209
  2         -0.3951823392   -0.2377116493    0.2886404059   -0.2475147891
  3         -0.4317044583   -0.2352244387    0.2921333887   -0.2514046172
  4         -0.4470703708   -0.2341892222    0.2934391879   -0.2531009782
  5         -0.4532132900   -0.2338556667    0.2938388426   -0.2537313520
  6         -0.4556579251   -0.2337612552    0.2939448584   -0.2539550462
  7         -0.4566418315   -0.2337377355    0.2939680120   -0.2540342273
  8         -0.4570437922   -0.2337331116    0.2939708287   -0.2540627372
  9         -0.4572102946   -0.2337328328    0.2939698291   -0.2540732650
 10         -0.4572800424   -0.2337332404    0.2939687193   -0.2540772588
 11         -0.4573095100   -0.2337335791    0.2939680317   -0.2540788122
 12         -0.4573220379   -0.2337337762    0.2939676699   -0.2540794294
 13         -0.4573273880   -0.2337338775    0.2939674931   -0.2540796787
 14         -0.4573296803   -0.2337339266    0.2939674099   -0.2540797808
 15         -0.4573306647   -0.2337339495    0.2939673718   -0.2540798230
 16         -0.4573310882   -0.2337339601    0.2939673545   -0.2540798406
 17         -0.4573312706   -0.2337339649    0.2939673467   -0.2540798479
 18         -0.4573313493   -0.2337339670    0.2939673433   -0.2540798510
Atom SCF converged after  18 iterations to a total energy of     -0.45733135

Atom SCF Calculation for C  : Z (AE atom) =   6 : Z (PS atom) =   4
Config String:
Orbitals (num,occ):  2     2.00 2.00
Orbitals   (num,l):  2        0    1
Real-space Grid (nr,dr,rmax): 1203    0.0066555740    8.0000000000
Spherical Bessel Basis (nsws,lmax,cutoff):   47    1  176.3951722778
Confining potential (l,width,scale):  0    3.0000000000  100.0000000000
Confining potential (l,width,scale):  1    3.0000000000  100.0000000000
  1         -5.2976922011   -1.3069684169    4.5135249990   -1.4493313817
  2         -5.3721716256   -1.3429755895    4.4750154450   -1.4361613026
  3         -5.3809959565   -1.3617365618    4.4541655428   -1.4305930207
  4         -5.3918938866   -1.3667928461    4.4484735100   -1.4294652294
  5         -5.3956096428   -1.3688539142    4.4461376126   -1.4290734646
  6         -5.3968271862   -1.3696852393    4.4451910874   -1.4289366866
  7         -5.3972028401   -1.3700178062    4.4448112275   -1.4288900460
  8         -5.3973067903   -1.3701500158    4.4446598370   -1.4288749220
  9         -5.3973286940   -1.3702023868    4.4445997329   -1.4288704293
 10         -5.3973289850   -1.3702230869    4.4445759233   -1.4288693188
 11         -5.3973254264   -1.3702312560    4.4445665049   -1.4288691775
 12         -5.3973224003   -1.3702344755    4.4445627836   -1.4288692549
 13         -5.3973208708   -1.3702354890    4.4445616088   -1.4288693270
 14         -5.3973198783   -1.3702360102    4.4445610034   -1.4288693814
 15         -5.3973192535   -1.3702362780    4.4445606917   -1.4288694190
 16         -5.3973188684   -1.3702364155    4.4445605313   -1.4288694437
 17         -5.3973186349   -1.3702364860    4.4445604489   -1.4288694595
 18         -5.3973184951   -1.3702365221    4.4445604065   -1.4288694693
 19         -5.3973184122   -1.3702365405    4.4445603848   -1.4288694753
Atom SCF converged after  19 iterations to a total energy of     -5.39731841

Atom SCF Calculation for S  : Z (AE atom) =  16 : Z (PS atom) =   6
Config String:
Orbitals (num,occ):  3     2.00 4.00 0.00
Orbitals   (num,l):  3        0    1    2
Real-space Grid (nr,dr,rmax): 1203    0.0066555740    8.0000000000
Spherical Bessel Basis (nsws,lmax,cutoff):   47    2  176.3951722778
Confining potential (l,width,scale):  0    3.0000000000  100.0000000000
Confining potential (l,width,scale):  1    3.0000000000  100.0000000000
Confining potential (l,width,scale):  2    3.0000000000  100.0000000000
  1        -12.4735062396   -1.0328741412   10.1554312477   -2.4512393157
  2         -9.9458301913   -2.4607392455    8.3041325857   -2.0306994528
  3        -10.1450417646   -2.2931184565    8.4831893826   -2.0812538287
  4        -10.1528335592   -2.2733105793    8.5050388867   -2.0896035179
  5        -10.1571940363   -2.2633716629    8.5160794258   -2.0939370707
  6        -10.1594380571   -2.2584938667    8.5215163935   -2.0961289008
  7        -10.1605856507   -2.2561081821    8.5241804044   -2.0972291378
  8        -10.1611799191   -2.2549395235    8.5254868240   -2.0977806248
  9        -10.1614918752   -2.2543658586    8.5261285885   -2.0980571586
 10        -10.1616572884   -2.2540839121    8.5264441898   -2.0981959233
 11        -10.1617455602   -2.2539453058    8.5265994231   -2.0982656006
 12        -10.1617928447   -2.2538772062    8.5266757320   -2.0983006047
 13        -10.1618182292   -2.2538437891    8.5267131983   -2.0983181961
 14        -10.1618318741   -2.2538274201    8.5267315620   -2.0983270391
 15        -10.1618392144   -2.2538194197    8.5267405433   -2.0983314852
 16        -10.1618431651   -2.2538155200    8.5267449245   -2.0983337210
 17        -10.1618452923   -2.2538136252    8.5267470551   -2.0983348455
 18        -10.1618464380   -2.2538127080    8.5267480875   -2.0983354110
 19        -10.1618470552   -2.2538122659    8.5267485856   -2.0983356955
 20        -10.1618473878   -2.2538120540    8.5267488248   -2.0983358386
 21        -10.1618475670   -2.2538119530    8.5267489389   -2.0983359106
 22        -10.1618476637   -2.2538119053    8.5267489929   -2.0983359468
Atom SCF converged after  22 iterations to a total energy of    -10.16184766

Atom SCF Calculation for O  : Z (AE atom) =   8 : Z (PS atom) =   6
Config String:
Orbitals (num,occ):  2     2.00 4.00
Orbitals   (num,l):  2        0    1
Real-space Grid (nr,dr,rmax): 1203    0.0066555740    8.0000000000
Spherical Bessel Basis (nsws,lmax,cutoff):   47    1  176.3951722778
Confining potential (l,width,scale):  0    3.0000000000  100.0000000000
Confining potential (l,width,scale):  1    3.0000000000  100.0000000000
  1         -1.8735052164   -7.5539365035   10.1554312477   -2.4512393157
  2        -16.0318313751   -3.1285771268   13.6395848164   -3.2358799643
  3        -15.9524020423   -3.0762819706   13.6967272503   -3.2536856837
  4        -15.8521515939   -3.0781493909   13.6951909330   -3.2561700440
  5        -15.8357139793   -3.0748501933   13.6988803334   -3.2580493133
  6        -15.8246052853   -3.0740779781   13.6997881576   -3.2588327446
  7        -15.8189019501   -3.0737449687   13.7001869911   -3.2592378801
  8        -15.8159785510   -3.0736026016   13.7003615168   -3.2594475790
  9        -15.8144776168   -3.0735437994   13.7004360379   -3.2595560735
 10        -15.8137058024   -3.0735207882   13.7004667348   -3.2596122456
 11        -15.8133083127   -3.0735125946   13.7004786868   -3.2596413656
 12        -15.8131032938   -3.0735102195   13.7004828997   -3.2596564858
 13        -15.8129973902   -3.0735099286   13.7004840891   -3.2596643505
 14        -15.8129426040   -3.0735102506   13.7004842061   -3.2596684489
 15        -15.8129142203   -3.0735106556   13.7004840157   -3.2596705887
 16        -15.8128994940   -3.0735109855   13.7004837906   -3.2596717080
 17        -15.8128918425   -3.0735112169   13.7004836103   -3.2596722946
 18        -15.8128878614   -3.0735113674   13.7004834848   -3.2596726026
 19        -15.8128857871   -3.0735114608   13.7004834035   -3.2596727646
 20        -15.8128847048   -3.0735115170   13.7004833533   -3.2596728500
 21        -15.8128841394   -3.0735115501   13.7004833231   -3.2596728951
 22        -15.8128838436   -3.0735115693   13.7004833054   -3.2596729190
 23        -15.8128836887   -3.0735115802   13.7004832951   -3.2596729316
 24        -15.8128836074   -3.0735115864   13.7004832893   -3.2596729383
Atom SCF converged after  24 iterations to a total energy of    -15.81288361

========================== Calculation in vacuum ==============================
= Adjusting the following parameters: 
= is_implicit_solvent: F
= is_include_apolar: F
= write_denskern: T
= write_tightbox_ngwfs: T
= restart read filename prefix: ""
= restart write filename prefix: "vacuum_"
===============================================================================

Determining parallel strategy ...
... using space-filling curve
... NGWF load balancing: max    163;  min    162;  average    163
... Projector load balancing: max     36;  min     32;  average     33
... done
Calculating direct Ion-Ion energy ...
Ion-Ion Energy        :    827887.68038631556556
Basis initialisation ...... NGWF spheres initialised
... Projector spheres initialised
... NGWF tight boxes initialised
... Tight-boxes gathered
... NGWF basis size (local,global):    1117201  44690499
... Nonlocal pseudopotential projector initialisation
... done

========================== Sparse matrix information ===========================
                        Overlap matrix filling:   6.74%
                        Density kernel filling: 100.00%
              NGWF-Proj overlap matrix filling:   1.78%
                    Hamiltonian matrix filling:   7.61%
                  NGWF diagonal matrix filling:   0.05%
                             KS matrix filling: 100.00% 
                           KSKS matrix filling: 100.00% 
================================================================================

Sparse matrix initialisation ... done

Generating smeared ion density ... done
Smeared ion self correction:     -14457.169564
Smeared ion non-self correction: -827839.576231
NGWF initialisation ...... done
============ Calculation of NGWF S^-1 using Hotelling algorithm ================ 
         Iteration  |  Frobenius norm and Maximum abs value    (of I-S*S_n^-1)   
               1       0.78615882E+02     0.98352566E+00
               2       0.76862131E+02     0.96743563E+00
               3       0.73988348E+02     0.93655715E+00
               4       0.69843661E+02     0.87963969E+00
               5       0.64619537E+02     0.78099738E+00
               6       0.58694825E+02     0.70789578E+00
               7       0.52666535E+02     0.67228888E+00
               8       0.47090760E+02     0.64754926E+00
               9       0.41162582E+02     0.60931283E+00
              10       0.33155495E+02     0.54233849E+00
              11       0.22739890E+02     0.43334928E+00
              12       0.11982176E+02     0.28342366E+00
              13       0.41441342E+01     0.13185418E+00
              14       0.70960522E+00     0.37910359E-01
              15       0.39308734E-01     0.39943893E-02
              16       0.30076650E-03     0.47323431E-04
              17       0.31003068E-07     0.67476467E-08
              18       0.10248897E-12     0.98809849E-14
================================================================================
Calculating local pseudopotential in open BC on the fine real space grid ...
... done

MG BCs: +ve charge blocks (gridpoints):     20776 (   16344442).
MG BCs: -ve charge blocks (gridpoints):      8085 (    1095772).
MG BCs:     Elided blocks (gridpoints):    179864 (  178856251).
MG BCs: Computational effort saved:  99.9853%.
MG BCs: Charge after coarse-graining:           -9.0002314.
MG DL_MG: Calling solver with defect correction order = 8
MG DL_MG: Solver finished
MG Hartree energy from (\int phi*rho dr):              1462.481378
MG Hartree energy from (\int eps (grad phi)^2 dr):     1461.870504
MG Discrepancy due to finite box and discretization:     -0.610873 (  -0.04177%)
MG Correction to account for finite box:                  0.464084
MG Remaining discrepancy, due to discretization:         -0.146789 (  -0.01004%)
 WARNING: xc_energy_potential using alternative initial XC functional PBE.
Up spin density kernel initialisation ... 
======= Optimisation of K by Palser-Manolopoulos canonical purification ======== 
         Iteration  |  Band structure energy |    c_n   
               1       -2572.49513734049788    0.5281386
               2       -2747.89543436952727    0.5178462
               3       -2929.35667956410543    0.5152522
               4       -3082.90505151286561    0.5277078
               5       -3179.06017265947958    0.5625147
               6       -3220.01217371985149    0.6079791
               7       -3233.91146846670563    0.6205100
               8       -3239.88215386911861    0.6175573
               9       -3242.79665625170401    0.6310658
              10       -3244.00242117443349    0.6644871
              11       -3244.44983433189736    0.7047004
              12       -3244.62510542320342    0.7204242
              13       -3244.71258492652305    0.6904393
              14       -3244.77254617268227    0.6324376
              15       -3244.81594191578370    0.5698871
              16       -3244.84044902112510    0.5257352
              17       -3244.84872340470156    0.5430508
              18       -3244.85029655592916    0.5609163
              19       -3244.85091018670573    0.5307744
              20       -3244.85132539172491    0.5062974
              21       -3244.85154279042717    0.5002530
              22       -3244.85159168955488    0.5000004
              23       -3244.85159375439071    0.5000021
              24       -3244.85159375788680    0.5000021
Termination criterion satisfied: band energy change below threshold.
Final occupancy bounds: [    0.00000000000000:    1.00000000000000]
Closest occupancy to 0.5:     1.00000000000000
================================================================================
... done

Writing density kernel to file "host_24801.vacuum_dkn" ... done

>>> Optimising kernel for current NGWFs:
   Initial electron number for spin 1:    7192.00000000
     Final electron number for spin 1:    7192.00000000

=================== Penalty functional idempotency correction ==================
 RMS occupancy error at iteration   1:  0.000000 (step -0.5000 Ne1=   7192.0000)
            Final RMS occupancy error   :  0.000000 (Ne1=   7192.0000)
               Final occupancy bounds   : [  0.0000,  1.0000]
================================================================================

................................................................................
<<<<<<<<<<<<<< LNV (Original version) density kernel optimisation >>>>>>>>>>>>>>
~~~~~~~~~~~~~~~~~~~~~~~~~~~~~~~~~~~~~~~~~~~~~~~~~~~~~~~~~~~~~~~~~~~~~~~~~~~~~~~~
   iter  |      energy (Eh)       | rms gradient |  commutator  |   dE (Eh)
MG BCs: +ve charge blocks (gridpoints):     31203 (   17465620).
MG BCs: -ve charge blocks (gridpoints):      8422 (    1128497).
MG BCs:     Elided blocks (gridpoints):    169431 (  177702348).
MG BCs: Computational effort saved:  99.9798%.
MG BCs: Charge after coarse-graining:           -9.0009731.
MG DL_MG: Calling solver with defect correction order = 8
MG DL_MG: Solver finished
MG Hartree energy from (\int phi*rho dr):              1416.602291
MG Hartree energy from (\int eps (grad phi)^2 dr):     1415.942000
MG Discrepancy due to finite box and discretization:     -0.660291 (  -0.04661%)
MG Correction to account for finite box:                  0.472089
MG Remaining discrepancy, due to discretization:         -0.188202 (  -0.01329%)
      ideal mu1:      -0.757543727415
             Q0:  -11472.715996159823
             G0:    -124.809483148542
   RMS gradient:       0.001717419903
MG BCs: +ve charge blocks (gridpoints):     31189 (   17543675).
MG BCs: -ve charge blocks (gridpoints):      8298 (    1105883).
MG BCs:     Elided blocks (gridpoints):    169445 (  177646907).
MG BCs: Computational effort saved:  99.9799%.
MG BCs: Charge after coarse-graining:           -9.0009949.
MG DL_MG: Calling solver with defect correction order = 8
MG DL_MG: Solver finished
MG Hartree energy from (\int phi*rho dr):              1438.578452
MG Hartree energy from (\int eps (grad phi)^2 dr):     1437.934315
MG Discrepancy due to finite box and discretization:     -0.644136 (  -0.04478%)
MG Correction to account for finite box:                  0.471011
MG Remaining discrepancy, due to discretization:         -0.173125 (  -0.01203%)
     Trial step:       0.500000000000
             Q1:  -11484.644121921272
 Quadratic coef:      50.476615812822
 Linear coef   :     -62.404741574271
           Qmin:  -11492.003896647211
Quadratic minimum step length (  0.309077483550) accepted
    Initial Ne1:    7192.00000000
      Final Ne1:    7192.00000000

=================== Penalty functional idempotency correction ==================
 RMS occupancy error at iteration   1:  0.003157 (step -0.4893 Ne1=   7192.0000)
 RMS occupancy error at iteration   2:  0.000023 (step -0.5000 Ne1=   7192.0000)
            Final RMS occupancy error   :  0.000000 (Ne1=   7192.0000)
               Final occupancy bounds   : [  0.0000,  1.0000]
================================================================================

    1        -1.147271599616E+04     1.7174E-03     1.5534E-03
MG BCs: +ve charge blocks (gridpoints):     31188 (   17515245).
MG BCs: -ve charge blocks (gridpoints):      8334 (    1114743).
MG BCs:     Elided blocks (gridpoints):    169446 (  177666477).
MG BCs: Computational effort saved:  99.9799%.
MG BCs: Charge after coarse-graining:           -9.0009869.
MG DL_MG: Calling solver with defect correction order = 8
MG DL_MG: Solver finished
MG Hartree energy from (\int phi*rho dr):              1423.654786
MG Hartree energy from (\int eps (grad phi)^2 dr):     1423.005287
MG Discrepancy due to finite box and discretization:     -0.649499 (  -0.04562%)
MG Correction to account for finite box:                  0.471325
MG Remaining discrepancy, due to discretization:         -0.178173 (  -0.01252%)
      ideal mu1:      -0.794073333700
             Q0:  -11492.379448959604
             G0:     -11.074233036249
   RMS gradient:       0.000507887002
MG BCs: +ve charge blocks (gridpoints):     31182 (   17532019).
MG BCs: -ve charge blocks (gridpoints):      8308 (    1107805).
MG BCs:     Elided blocks (gridpoints):    169452 (  177656641).
MG BCs: Computational effort saved:  99.9799%.
MG BCs: Charge after coarse-graining:           -9.0009914.
MG DL_MG: Calling solver with defect correction order = 8
MG DL_MG: Solver finished
MG Hartree energy from (\int phi*rho dr):              1429.283283
MG Hartree energy from (\int eps (grad phi)^2 dr):     1428.637391
MG Discrepancy due to finite box and discretization:     -0.645892 (  -0.04519%)
MG Correction to account for finite box:                  0.470722
MG Remaining discrepancy, due to discretization:         -0.175169 (  -0.01226%)
     Trial step:       0.393114158706
             Q1:  -11494.923073414364
 Quadratic coef:       1.809813348600
 Linear coef   :      -4.353437803360
           Qmin:  -11494.997456601441
Quadratic minimum step length (  0.472810646709) accepted
    Initial Ne1:    7191.99993308
      Final Ne1:    7192.00000000

=================== Penalty functional idempotency correction ==================
 RMS occupancy error at iteration   1:  0.001508 (step -0.4946 Ne1=   7192.0000)
 RMS occupancy error at iteration   2:  0.000006 (step -0.5000 Ne1=   7192.0000)
            Final RMS occupancy error   :  0.000000 (Ne1=   7192.0000)
               Final occupancy bounds   : [  0.0000,  1.0000]
================================================================================

    2        -1.149237944896E+04     5.0789E-04     4.5937E-04    -1.9663E+01
MG BCs: +ve charge blocks (gridpoints):     31185 (   17535319).
MG BCs: -ve charge blocks (gridpoints):      8310 (    1106435).
MG BCs:     Elided blocks (gridpoints):    169449 (  177654711).
MG BCs: Computational effort saved:  99.9799%.
MG BCs: Charge after coarse-graining:           -9.0009924.
MG DL_MG: Calling solver with defect correction order = 8
MG DL_MG: Solver finished
MG Hartree energy from (\int phi*rho dr):              1430.448239
MG Hartree energy from (\int eps (grad phi)^2 dr):     1429.803031
MG Discrepancy due to finite box and discretization:     -0.645208 (  -0.04511%)
MG Correction to account for finite box:                  0.470610
MG Remaining discrepancy, due to discretization:         -0.174598 (  -0.01221%)
      ideal mu1:      -0.813101640261
             Q0:  -11495.031081568799
             G0:      -1.835315647421
   RMS gradient:       0.000206837455
MG BCs: +ve charge blocks (gridpoints):     31188 (   17536155).
MG BCs: -ve charge blocks (gridpoints):      8309 (    1106433).
MG BCs:     Elided blocks (gridpoints):    169446 (  177653877).
MG BCs: Computational effort saved:  99.9799%.
MG BCs: Charge after coarse-graining:           -9.0009927.
MG DL_MG: Calling solver with defect correction order = 8
MG DL_MG: Solver finished
MG Hartree energy from (\int phi*rho dr):              1429.838282
MG Hartree energy from (\int eps (grad phi)^2 dr):     1429.193547
MG Discrepancy due to finite box and discretization:     -0.644734 (  -0.04509%)
MG Correction to account for finite box:                  0.470326
MG Remaining discrepancy, due to discretization:         -0.174409 (  -0.01220%)
     Trial step:       0.431124761071
             Q1:  -11495.500760606723
 Quadratic coef:       0.321570982060
 Linear coef   :      -0.791250019984
           Qmin:  -11495.517814381345
Quadratic minimum step length (  0.530407740194) accepted
    Initial Ne1:    7191.99997844
      Final Ne1:    7192.00000000

=================== Penalty functional idempotency correction ==================
 RMS occupancy error at iteration   1:  0.000572 (step -0.4978 Ne1=   7192.0000)
 RMS occupancy error at iteration   2:  0.000001 (step -0.5000 Ne1=   7192.0000)
            Final RMS occupancy error   :  0.000000 (Ne1=   7192.0000)
               Final occupancy bounds   : [  0.0000,  1.0000]
================================================================================

    3        -1.149503108157E+04     2.0684E-04     1.8708E-04    -2.6516E+00
MG BCs: +ve charge blocks (gridpoints):     31186 (   17536327).
MG BCs: -ve charge blocks (gridpoints):      8310 (    1106403).
MG BCs:     Elided blocks (gridpoints):    169448 (  177653735).
MG BCs: Computational effort saved:  99.9799%.
MG BCs: Charge after coarse-graining:           -9.0009928.
MG DL_MG: Calling solver with defect correction order = 8
MG DL_MG: Solver finished
MG Hartree energy from (\int phi*rho dr):              1429.702633
MG Hartree energy from (\int eps (grad phi)^2 dr):     1429.057997
MG Discrepancy due to finite box and discretization:     -0.644637 (  -0.04509%)
MG Correction to account for finite box:                  0.470262
MG Remaining discrepancy, due to discretization:         -0.174375 (  -0.01220%)
      ideal mu1:      -0.815762337838
             Q0:  -11495.522395501728
             G0:      -0.395292912277
   RMS gradient:       0.000096162011
MG BCs: +ve charge blocks (gridpoints):     31186 (   17536882).
MG BCs: -ve charge blocks (gridpoints):      8310 (    1106226).
MG BCs:     Elided blocks (gridpoints):    169448 (  177653357).
MG BCs: Computational effort saved:  99.9799%.
MG BCs: Charge after coarse-graining:           -9.0009928.
MG DL_MG: Calling solver with defect correction order = 8
MG DL_MG: Solver finished
MG Hartree energy from (\int phi*rho dr):              1430.730812
MG Hartree energy from (\int eps (grad phi)^2 dr):     1430.086112
MG Discrepancy due to finite box and discretization:     -0.644700 (  -0.04506%)
MG Correction to account for finite box:                  0.470171
MG Remaining discrepancy, due to discretization:         -0.174529 (  -0.01220%)
     Trial step:       0.478196518454
             Q1:  -11495.619318494340
 Quadratic coef:       0.092104701807
 Linear coef   :      -0.189027694420
           Qmin:  -11495.619381509383
Quadratic minimum step length (  0.490704511221) accepted
    Initial Ne1:    7191.99999556
      Final Ne1:    7192.00000000

=================== Penalty functional idempotency correction ==================
 RMS occupancy error at iteration   1:  0.000181 (step -0.4993 Ne1=   7192.0000)
            Final RMS occupancy error   :  0.000000 (Ne1=   7192.0000)
               Final occupancy bounds   : [ -0.0000,  1.0000]
================================================================================

    4        -1.149552239550E+04     9.6162E-05     8.6976E-05    -4.9131E-01
MG BCs: +ve charge blocks (gridpoints):     31186 (   17536894).
MG BCs: -ve charge blocks (gridpoints):      8310 (    1106235).
MG BCs:     Elided blocks (gridpoints):    169448 (  177653336).
MG BCs: Computational effort saved:  99.9799%.
MG BCs: Charge after coarse-graining:           -9.0009928.
MG DL_MG: Calling solver with defect correction order = 8
MG DL_MG: Solver finished
MG Hartree energy from (\int phi*rho dr):              1430.757933
MG Hartree energy from (\int eps (grad phi)^2 dr):     1430.113231
MG Discrepancy due to finite box and discretization:     -0.644702 (  -0.04506%)
MG Correction to account for finite box:                  0.470169
MG Remaining discrepancy, due to discretization:         -0.174533 (  -0.01220%)
      ideal mu1:      -0.815753340095
             Q0:  -11495.619798541069
             G0:      -0.102840470327
   RMS gradient:       0.000049193689
MG BCs: +ve charge blocks (gridpoints):     31188 (   17536465).
MG BCs: -ve charge blocks (gridpoints):      8313 (    1106470).
MG BCs:     Elided blocks (gridpoints):    169446 (  177653530).
MG BCs: Computational effort saved:  99.9799%.
MG BCs: Charge after coarse-graining:           -9.0009926.
MG DL_MG: Calling solver with defect correction order = 8
MG DL_MG: Solver finished
MG Hartree energy from (\int phi*rho dr):              1430.487987
MG Hartree energy from (\int eps (grad phi)^2 dr):     1429.843151
MG Discrepancy due to finite box and discretization:     -0.644837 (  -0.04508%)
MG Correction to account for finite box:                  0.470173
MG Remaining discrepancy, due to discretization:         -0.174664 (  -0.01221%)
     Trial step:       0.484410145286
             Q1:  -11495.643601050368
 Quadratic coef:       0.026014457873
 Linear coef   :      -0.049816967172
           Qmin:  -11495.643648069574
Quadratic minimum step length (  0.463816013833) accepted
    Initial Ne1:    7192.00166989
      Final Ne1:    7192.00000000

=================== Penalty functional idempotency correction ==================
 RMS occupancy error at iteration   1:  0.000060 (step -0.4997 Ne1=   7192.0000)
            Final RMS occupancy error   :  0.000000 (Ne1=   7192.0000)
               Final occupancy bounds   : [ -0.0000,  1.0000]
================================================================================

    5        -1.149561979854E+04     4.9194E-05     4.4495E-05    -9.7403E-02
MG BCs: +ve charge blocks (gridpoints):     31188 (   17536493).
MG BCs: -ve charge blocks (gridpoints):      8314 (    1106459).
MG BCs:     Elided blocks (gridpoints):    169446 (  177653513).
MG BCs: Computational effort saved:  99.9799%.
MG BCs: Charge after coarse-graining:           -9.0009926.
MG DL_MG: Calling solver with defect correction order = 8
MG DL_MG: Solver finished
MG Hartree energy from (\int phi*rho dr):              1430.499442
MG Hartree energy from (\int eps (grad phi)^2 dr):     1429.854611
MG Discrepancy due to finite box and discretization:     -0.644831 (  -0.04508%)
MG Correction to account for finite box:                  0.470172
MG Remaining discrepancy, due to discretization:         -0.174658 (  -0.01221%)
      ideal mu1:      -0.815212334109
             Q0:  -11495.643692043726
             G0:      -0.024928536406
   RMS gradient:       0.000024245164
MG BCs: +ve charge blocks (gridpoints):     31185 (   17536284).
MG BCs: -ve charge blocks (gridpoints):      8315 (    1106584).
MG BCs:     Elided blocks (gridpoints):    169449 (  177653597).
MG BCs: Computational effort saved:  99.9799%.
MG BCs: Charge after coarse-graining:           -9.0009925.
MG DL_MG: Calling solver with defect correction order = 8
MG DL_MG: Solver finished
MG Hartree energy from (\int phi*rho dr):              1430.023393
MG Hartree energy from (\int eps (grad phi)^2 dr):     1429.378544
MG Discrepancy due to finite box and discretization:     -0.644849 (  -0.04509%)
MG Correction to account for finite box:                  0.470182
MG Remaining discrepancy, due to discretization:         -0.174667 (  -0.01221%)
     Trial step:       0.474001247516
             Q1:  -11495.650993412477
 Quadratic coef:       0.004514788605
 Linear coef   :      -0.011816157355
           Qmin:  -11495.651423389912
Quadratic minimum step length (  0.620280794666) accepted
    Initial Ne1:    7192.00080429
      Final Ne1:    7192.00000000

=================== Penalty functional idempotency correction ==================
 RMS occupancy error at iteration   1:  0.000026 (step -0.4999 Ne1=   7192.0000)
            Final RMS occupancy error   :  0.000000 (Ne1=   7192.0000)
               Final occupancy bounds   : [ -0.0000,  1.0000]
================================================================================

    6        -1.149564369204E+04     2.4245E-05     2.1929E-05    -2.3894E-02
MG BCs: +ve charge blocks (gridpoints):     31185 (   17536184).
MG BCs: -ve charge blocks (gridpoints):      8315 (    1106659).
MG BCs:     Elided blocks (gridpoints):    169449 (  177653622).
MG BCs: Computational effort saved:  99.9799%.
MG BCs: Charge after coarse-graining:           -9.0009924.
MG DL_MG: Calling solver with defect correction order = 8
MG DL_MG: Solver finished
MG Hartree energy from (\int phi*rho dr):              1429.876268
MG Hartree energy from (\int eps (grad phi)^2 dr):     1429.231413
MG Discrepancy due to finite box and discretization:     -0.644855 (  -0.04510%)
MG Correction to account for finite box:                  0.470185
MG Remaining discrepancy, due to discretization:         -0.174670 (  -0.01222%)
      ideal mu1:      -0.815058040634
             Q0:  -11495.651429488324
             G0:      -0.009813810768
   RMS gradient:       0.000015229005
MG BCs: +ve charge blocks (gridpoints):     31186 (   17536608).
MG BCs: -ve charge blocks (gridpoints):      8314 (    1106372).
MG BCs:     Elided blocks (gridpoints):    169448 (  177653485).
MG BCs: Computational effort saved:  99.9799%.
MG BCs: Charge after coarse-graining:           -9.0009926.
MG DL_MG: Calling solver with defect correction order = 8
MG DL_MG: Solver finished
MG Hartree energy from (\int phi*rho dr):              1430.399144
MG Hartree energy from (\int eps (grad phi)^2 dr):     1429.754293
MG Discrepancy due to finite box and discretization:     -0.644851 (  -0.04508%)
MG Correction to account for finite box:                  0.470176
MG Remaining discrepancy, due to discretization:         -0.174675 (  -0.01221%)
     Trial step:       0.542230458829
             Q1:  -11495.653938664589
 Quadratic coef:       0.002812170849
 Linear coef   :      -0.005321347115
           Qmin:  -11495.653946826053
Quadratic minimum step length (  0.513019415015) accepted
    Initial Ne1:    7192.00005329
      Final Ne1:    7192.00000000

=================== Penalty functional idempotency correction ==================
 RMS occupancy error at iteration   1:  0.000001 (step -0.5000 Ne1=   7192.0000)
            Final RMS occupancy error   :  0.000000 (Ne1=   7192.0000)
               Final occupancy bounds   : [  0.0000,  1.0000]
================================================================================

    7        -1.149565142949E+04     1.5229E-05     1.3774E-05    -7.7374E-03
MG BCs: +ve charge blocks (gridpoints):     31186 (   17536580).
MG BCs: -ve charge blocks (gridpoints):      8314 (    1106397).
MG BCs:     Elided blocks (gridpoints):    169448 (  177653488).
MG BCs: Computational effort saved:  99.9799%.
MG BCs: Charge after coarse-graining:           -9.0009926.
MG DL_MG: Calling solver with defect correction order = 8
MG DL_MG: Solver finished
MG Hartree energy from (\int phi*rho dr):              1430.370954
MG Hartree energy from (\int eps (grad phi)^2 dr):     1429.726102
MG Discrepancy due to finite box and discretization:     -0.644851 (  -0.04508%)
MG Correction to account for finite box:                  0.470176
MG Remaining discrepancy, due to discretization:         -0.174675 (  -0.01221%)
      ideal mu1:      -0.815384031545
             Q0:  -11495.653946865350
             G0:      -0.005467507383
   RMS gradient:       0.000011367432
MG BCs: +ve charge blocks (gridpoints):     31187 (   17536646).
MG BCs: -ve charge blocks (gridpoints):      8314 (    1106357).
MG BCs:     Elided blocks (gridpoints):    169447 (  177653462).
MG BCs: Computational effort saved:  99.9799%.
MG BCs: Charge after coarse-graining:           -9.0009926.
MG DL_MG: Calling solver with defect correction order = 8
MG DL_MG: Solver finished
MG Hartree energy from (\int phi*rho dr):              1430.419775
MG Hartree energy from (\int eps (grad phi)^2 dr):     1429.774937
MG Discrepancy due to finite box and discretization:     -0.644838 (  -0.04508%)
MG Correction to account for finite box:                  0.470169
MG Remaining discrepancy, due to discretization:         -0.174668 (  -0.01221%)
     Trial step:       0.527422745804
             Q1:  -11495.656061042100
 Quadratic coef:       0.000769511007
 Linear coef   :      -0.002883687756
           Qmin:  -11495.656648469030
Quadratic minimum step length (  0.988239609662) accepted
    Initial Ne1:    7192.00005678
      Final Ne1:    7192.00000000

=================== Penalty functional idempotency correction ==================
 RMS occupancy error at iteration   1:  0.000013 (step -0.4997 Ne1=   7192.0000)
            Final RMS occupancy error   :  0.000000 (Ne1=   7192.0000)
               Final occupancy bounds   : [ -0.0000,  1.0000]
================================================================================

    8        -1.149565394687E+04     1.1367E-05     1.0282E-05    -2.5174E-03
MG BCs: +ve charge blocks (gridpoints):     31187 (   17536665).
MG BCs: -ve charge blocks (gridpoints):      8313 (    1106307).
MG BCs:     Elided blocks (gridpoints):    169447 (  177653493).
MG BCs: Computational effort saved:  99.9799%.
MG BCs: Charge after coarse-graining:           -9.0009927.
MG DL_MG: Calling solver with defect correction order = 8
MG DL_MG: Solver finished
MG Hartree energy from (\int phi*rho dr):              1430.461583
MG Hartree energy from (\int eps (grad phi)^2 dr):     1429.816758
MG Discrepancy due to finite box and discretization:     -0.644825 (  -0.04508%)
MG Correction to account for finite box:                  0.470163
MG Remaining discrepancy, due to discretization:         -0.174662 (  -0.01221%)
      ideal mu1:      -0.815411441857
             Q0:  -11495.656645335373
             G0:      -0.007397953138
   RMS gradient:       0.000013237844
MG BCs: +ve charge blocks (gridpoints):     31186 (   17536505).
MG BCs: -ve charge blocks (gridpoints):      8313 (    1106423).
MG BCs:     Elided blocks (gridpoints):    169448 (  177653537).
MG BCs: Computational effort saved:  99.9799%.
MG BCs: Charge after coarse-graining:           -9.0009926.
MG DL_MG: Calling solver with defect correction order = 8
MG DL_MG: Solver finished
MG Hartree energy from (\int phi*rho dr):              1430.157739
MG Hartree energy from (\int eps (grad phi)^2 dr):     1429.512944
MG Discrepancy due to finite box and discretization:     -0.644795 (  -0.04509%)
MG Correction to account for finite box:                  0.470149
MG Remaining discrepancy, due to discretization:         -0.174645 (  -0.01221%)
     Trial step:       0.721955710858
             Q1:  -11495.659848485840
 Quadratic coef:       0.002137844051
 Linear coef   :      -0.005340994517
           Qmin:  -11495.659981198720
Quadratic minimum step length (  0.901834137996) accepted
    Initial Ne1:    7192.00011681
      Final Ne1:    7192.00000000

=================== Penalty functional idempotency correction ==================
 RMS occupancy error at iteration   1:  0.000058 (step -0.4986 Ne1=   7192.0000)
            Final RMS occupancy error   :  0.000000 (Ne1=   7192.0000)
               Final occupancy bounds   : [ -0.0000,  1.0000]
================================================================================

    9        -1.149565664534E+04     1.3238E-05     1.1973E-05    -2.6985E-03
MG BCs: +ve charge blocks (gridpoints):     31186 (   17536462).
MG BCs: -ve charge blocks (gridpoints):      8312 (    1106434).
MG BCs:     Elided blocks (gridpoints):    169448 (  177653569).
MG BCs: Computational effort saved:  99.9799%.
MG BCs: Charge after coarse-graining:           -9.0009926.
MG DL_MG: Calling solver with defect correction order = 8
MG DL_MG: Solver finished
MG Hartree energy from (\int phi*rho dr):              1430.080924
MG Hartree energy from (\int eps (grad phi)^2 dr):     1429.436137
MG Discrepancy due to finite box and discretization:     -0.644787 (  -0.04509%)
MG Correction to account for finite box:                  0.470146
MG Remaining discrepancy, due to discretization:         -0.174641 (  -0.01221%)
      ideal mu1:      -0.815071905789
   10        -1.149565997397E+04     1.3558E-05     1.2263E-05    -3.3286E-03
Finished density kernel iterations (  10)

Writing density kernel to file "host_24801.vacuum_dkn" ... done


>>> Density kernel optimised for the current NGWF basis:
     ~~~~~~~~~~~~~~~~~~~~~~~~~~~~~~~~~~~~~~~~~~~~~~~~~~~~~~~~~~~
     Total energy                =  -1.14956599739705E+04  Eh
     Estimated bandgap           =  -2.1540E-01  Eh
     RMS occupancy error         =   5.7330E-08
     [H,K] commutator            =   1.2263E-05
     Occupancy bounds            = [ -0.000:  1.000]
     ~~~~~~~~~~~~~~~~~~~~~~~~~~~~~~~~~~~~~~~~~~~~~~~~~~~~~~~~~~~




################################################################################
########################### NGWF CG iteration  001 #############################
################################################################################
****** Reciprocal space K.E. preconditioning with k_zero =  3.5000 a0^-1 *******

>>> Checking for convergence of NGWFs:   NOT CONVERGED
  ========================================================================
         NGWF RMS gradient =  1.6240E-03 >  2.0000E-06  | above tolerance
  ========================================================================

>>> Improving NGWFs using line search:
============ Calculation of NGWF S^-1 using Hotelling algorithm ================ 
         Iteration  |  Frobenius norm and Maximum abs value    (of I-S*S_n^-1)   
               1       0.23351319E+00     0.67776487E-02
               2       0.12606691E-02     0.67040741E-04
               3       0.62430441E-07     0.68833754E-08
               4       0.12822540E-12     0.48849813E-14
================================================================================
MG BCs: +ve charge blocks (gridpoints):     30767 (   17490494).
MG BCs: -ve charge blocks (gridpoints):      8307 (    1103223).
MG BCs:     Elided blocks (gridpoints):    169869 (  177702748).
MG BCs: Computational effort saved:  99.9801%.
MG BCs: Charge after coarse-graining:           -9.0009958.
MG DL_MG: Calling solver with defect correction order = 8
MG DL_MG: Solver finished
MG Hartree energy from (\int phi*rho dr):              1402.218971
MG Hartree energy from (\int eps (grad phi)^2 dr):     1401.575506
MG Discrepancy due to finite box and discretization:     -0.643465 (  -0.04589%)
MG Correction to account for finite box:                  0.470091
MG Remaining discrepancy, due to discretization:         -0.173373 (  -0.01236%)
============ Calculation of NGWF S^-1 using Hotelling algorithm ================ 
         Iteration  |  Frobenius norm and Maximum abs value    (of I-S*S_n^-1)   
               1       0.21715615E+01     0.53109538E-01
               2       0.97038122E-01     0.39282174E-02
               3       0.27069850E-03     0.24385132E-04
               4       0.42032518E-08     0.97808761E-09
               5       0.11174743E-12     0.48849813E-14
================================================================================
------------------------------- NGWF line search -------------------------------
RMS gradient                =       0.00162404749783
Trial step length           =               0.122474
Gradient along search dir.  =       -291.15563512610
Functional at step 0        =  -11495.65997397049796
Functional at step 1        =  -11528.56791357311886
Functional predicted        =  -11611.20730053794796
Selected quadratic step     =               0.793715
--------------------------- NGWF line search finished --------------------------
                                               
Writing NGWFs to file "host_24801.vacuum_tightbox_ngwfs"....  done

>>> Optimising kernel for current NGWFs:
   Initial electron number for spin 1:    7237.78058177
     Final electron number for spin 1:    7192.00000000

=================== Penalty functional idempotency correction ==================
 RMS occupancy error at iteration   1:  0.005210 (step -0.4828 Ne1=   7192.0000)
 RMS occupancy error at iteration   2:  0.000096 (step -0.5003 Ne1=   7192.0000)
            Final RMS occupancy error   :  0.000000 (Ne1=   7192.0000)
               Final occupancy bounds   : [  0.0000,  1.0000]
================================================================================

................................................................................
<<<<<<<<<<<<<< LNV (Original version) density kernel optimisation >>>>>>>>>>>>>>
~~~~~~~~~~~~~~~~~~~~~~~~~~~~~~~~~~~~~~~~~~~~~~~~~~~~~~~~~~~~~~~~~~~~~~~~~~~~~~~~
   iter  |      energy (Eh)       | rms gradient |  commutator  |   dE (Eh)
MG BCs: +ve charge blocks (gridpoints):     25300 (   17269568).
MG BCs: -ve charge blocks (gridpoints):      8434 (    1073255).
MG BCs:     Elided blocks (gridpoints):    175340 (  177953642).
MG BCs: Computational effort saved:  99.9828%.
MG BCs: Charge after coarse-graining:           -9.0007369.
MG DL_MG: Calling solver with defect correction order = 8
MG DL_MG: Solver finished
MG Hartree energy from (\int phi*rho dr):              1271.698460
MG Hartree energy from (\int eps (grad phi)^2 dr):     1271.057674
MG Discrepancy due to finite box and discretization:     -0.640786 (  -0.05039%)
MG Correction to account for finite box:                  0.469839
MG Remaining discrepancy, due to discretization:         -0.170947 (  -0.01344%)
      ideal mu1:      -0.756251349825
             Q0:  -11610.555600301130
             G0:      -9.693370301677
   RMS gradient:       0.000478619183
MG BCs: +ve charge blocks (gridpoints):     25363 (   17284006).
MG BCs: -ve charge blocks (gridpoints):      8420 (    1069125).
MG BCs:     Elided blocks (gridpoints):    175277 (  177943334).
MG BCs: Computational effort saved:  99.9828%.
MG BCs: Charge after coarse-graining:           -9.0007330.
MG DL_MG: Calling solver with defect correction order = 8
MG DL_MG: Solver finished
MG Hartree energy from (\int phi*rho dr):              1287.263870
MG Hartree energy from (\int eps (grad phi)^2 dr):     1286.617767
MG Discrepancy due to finite box and discretization:     -0.646103 (  -0.05019%)
MG Correction to account for finite box:                  0.469549
MG Remaining discrepancy, due to discretization:         -0.176554 (  -0.01372%)
     Trial step:       0.806897952763
             Q1:  -11608.887861290947
 Quadratic coef:       9.489299661978
 Linear coef   :      -7.821560651795
           Qmin:  -11612.167331756793
Quadratic minimum step length (  0.332543048600) accepted
    Initial Ne1:    7191.99901783
      Final Ne1:    7192.00000000

=================== Penalty functional idempotency correction ==================
 RMS occupancy error at iteration   1:  0.000360 (step -0.4985 Ne1=   7192.0000)
 RMS occupancy error at iteration   2:  0.000000 (step -0.5000 Ne1=   7192.0000)
            Final RMS occupancy error   :  0.000000 (Ne1=   7192.0000)
               Final occupancy bounds   : [  0.0000,  1.0000]
================================================================================

    1        -1.161055560030E+04     4.7862E-04     4.3290E-04
MG BCs: +ve charge blocks (gridpoints):     25327 (   17275562).
MG BCs: -ve charge blocks (gridpoints):      8431 (    1071618).
MG BCs:     Elided blocks (gridpoints):    175313 (  177949285).
MG BCs: Computational effort saved:  99.9828%.
MG BCs: Charge after coarse-graining:           -9.0007353.
MG DL_MG: Calling solver with defect correction order = 8
MG DL_MG: Solver finished
MG Hartree energy from (\int phi*rho dr):              1276.932299
MG Hartree energy from (\int eps (grad phi)^2 dr):     1276.289433
MG Discrepancy due to finite box and discretization:     -0.642866 (  -0.05034%)
MG Correction to account for finite box:                  0.469698
MG Remaining discrepancy, due to discretization:         -0.173168 (  -0.01356%)
      ideal mu1:      -0.762908101273
             Q0:  -11612.142893428565
             G0:      -0.873057423739
   RMS gradient:       0.000144318323
MG BCs: +ve charge blocks (gridpoints):     25324 (   17275206).
MG BCs: -ve charge blocks (gridpoints):      8429 (    1072386).
MG BCs:     Elided blocks (gridpoints):    175316 (  177948873).
MG BCs: Computational effort saved:  99.9828%.
MG BCs: Charge after coarse-graining:           -9.0007351.
MG DL_MG: Calling solver with defect correction order = 8
MG DL_MG: Solver finished
MG Hartree energy from (\int phi*rho dr):              1277.543180
MG Hartree energy from (\int eps (grad phi)^2 dr):     1276.900061
MG Discrepancy due to finite box and discretization:     -0.643119 (  -0.05034%)
MG Correction to account for finite box:                  0.469687
MG Remaining discrepancy, due to discretization:         -0.173433 (  -0.01358%)
     Trial step:       0.518004155505
             Q1:  -11612.338494316442
 Quadratic coef:       0.256646485614
 Linear coef   :      -0.452247373491
           Qmin:  -11612.342124372972
Quadratic minimum step length (  0.456398259701) accepted
    Initial Ne1:    7191.99987743
      Final Ne1:    7192.00000000

=================== Penalty functional idempotency correction ==================
 RMS occupancy error at iteration   1:  0.000136 (step -0.4995 Ne1=   7192.0000)
            Final RMS occupancy error   :  0.000000 (Ne1=   7192.0000)
               Final occupancy bounds   : [ -0.0000,  1.0000]
================================================================================

    2        -1.161214289343E+04     1.4432E-04     1.3053E-04    -1.5873E+00
MG BCs: +ve charge blocks (gridpoints):     25324 (   17275197).
MG BCs: -ve charge blocks (gridpoints):      8427 (    1072328).
MG BCs:     Elided blocks (gridpoints):    175316 (  177948940).
MG BCs: Computational effort saved:  99.9828%.
MG BCs: Charge after coarse-graining:           -9.0007351.
MG DL_MG: Calling solver with defect correction order = 8
MG DL_MG: Solver finished
MG Hartree energy from (\int phi*rho dr):              1277.471225
MG Hartree energy from (\int eps (grad phi)^2 dr):     1276.828137
MG Discrepancy due to finite box and discretization:     -0.643088 (  -0.05034%)
MG Correction to account for finite box:                  0.469688
MG Remaining discrepancy, due to discretization:         -0.173400 (  -0.01357%)
      ideal mu1:      -0.763705506294
             Q0:  -11612.342522129882
             G0:      -0.170637809183
   RMS gradient:       0.000063437489
MG BCs: +ve charge blocks (gridpoints):     25324 (   17274653).
MG BCs: -ve charge blocks (gridpoints):      8431 (    1072650).
MG BCs:     Elided blocks (gridpoints):    175316 (  177949162).
MG BCs: Computational effort saved:  99.9828%.
MG BCs: Charge after coarse-graining:           -9.0007351.
MG DL_MG: Calling solver with defect correction order = 8
MG DL_MG: Solver finished
MG Hartree energy from (\int phi*rho dr):              1276.881017
MG Hartree energy from (\int eps (grad phi)^2 dr):     1276.238018
MG Discrepancy due to finite box and discretization:     -0.642999 (  -0.05036%)
MG Correction to account for finite box:                  0.469687
MG Remaining discrepancy, due to discretization:         -0.173311 (  -0.01357%)
     Trial step:       0.486226485386
             Q1:  -11612.392732652486
 Quadratic coef:       0.032758099629
 Linear coef   :      -0.082968622233
           Qmin:  -11612.395057169713
Quadratic minimum step length (  0.615749113080) accepted
    Initial Ne1:    7192.00053134
      Final Ne1:    7192.00000000

=================== Penalty functional idempotency correction ==================
 RMS occupancy error at iteration   1:  0.000069 (step -0.4997 Ne1=   7192.0000)
            Final RMS occupancy error   :  0.000000 (Ne1=   7192.0000)
               Final occupancy bounds   : [ -0.0000,  1.0000]
================================================================================

    3        -1.161234252213E+04     6.3437E-05     5.7378E-05    -1.9963E-01
MG BCs: +ve charge blocks (gridpoints):     25325 (   17274476).
MG BCs: -ve charge blocks (gridpoints):      8430 (    1072750).
MG BCs:     Elided blocks (gridpoints):    175315 (  177949239).
MG BCs: Computational effort saved:  99.9828%.
MG BCs: Charge after coarse-graining:           -9.0007351.
MG DL_MG: Calling solver with defect correction order = 8
MG DL_MG: Solver finished
MG Hartree energy from (\int phi*rho dr):              1276.723451
MG Hartree energy from (\int eps (grad phi)^2 dr):     1276.080475
MG Discrepancy due to finite box and discretization:     -0.642976 (  -0.05036%)
MG Correction to account for finite box:                  0.469688
MG Remaining discrepancy, due to discretization:         -0.173288 (  -0.01357%)
      ideal mu1:      -0.762739844822
             Q0:  -11612.395157534163
             G0:      -0.033429090670
   RMS gradient:       0.000028063458
MG BCs: +ve charge blocks (gridpoints):     25322 (   17274189).
MG BCs: -ve charge blocks (gridpoints):      8431 (    1072855).
MG BCs:     Elided blocks (gridpoints):    175318 (  177949421).
MG BCs: Computational effort saved:  99.9828%.
MG BCs: Charge after coarse-graining:           -9.0007351.
MG DL_MG: Calling solver with defect correction order = 8
MG DL_MG: Solver finished
MG Hartree energy from (\int phi*rho dr):              1276.748830
MG Hartree energy from (\int eps (grad phi)^2 dr):     1276.105939
MG Discrepancy due to finite box and discretization:     -0.642891 (  -0.05035%)
MG Correction to account for finite box:                  0.469687
MG Remaining discrepancy, due to discretization:         -0.173204 (  -0.01357%)
     Trial step:       0.547168645969
             Q1:  -11612.404069978395
 Quadratic coef:       0.009378906047
 Linear coef   :      -0.018291350278
           Qmin:  -11612.404075778288
Quadratic minimum step length (  0.533561873580) accepted
    Initial Ne1:    7192.00023798
      Final Ne1:    7192.00000000

=================== Penalty functional idempotency correction ==================
 RMS occupancy error at iteration   1:  0.000018 (step -0.4999 Ne1=   7192.0000)
            Final RMS occupancy error   :  0.000000 (Ne1=   7192.0000)
               Final occupancy bounds   : [ -0.0000,  1.0000]
================================================================================

    4        -1.161239515753E+04     2.8063E-05     2.5383E-05    -5.2635E-02
MG BCs: +ve charge blocks (gridpoints):     25322 (   17274200).
MG BCs: -ve charge blocks (gridpoints):      8431 (    1072849).
MG BCs:     Elided blocks (gridpoints):    175318 (  177949416).
MG BCs: Computational effort saved:  99.9828%.
MG BCs: Charge after coarse-graining:           -9.0007351.
MG DL_MG: Calling solver with defect correction order = 8
MG DL_MG: Solver finished
MG Hartree energy from (\int phi*rho dr):              1276.748182
MG Hartree energy from (\int eps (grad phi)^2 dr):     1276.105289
MG Discrepancy due to finite box and discretization:     -0.642893 (  -0.05035%)
MG Correction to account for finite box:                  0.469687
MG Remaining discrepancy, due to discretization:         -0.173206 (  -0.01357%)
      ideal mu1:      -0.762770416571
             Q0:  -11612.404080754379
             G0:      -0.010220966097
   RMS gradient:       0.000015538567
MG BCs: +ve charge blocks (gridpoints):     25322 (   17274625).
MG BCs: -ve charge blocks (gridpoints):      8430 (    1072684).
MG BCs:     Elided blocks (gridpoints):    175318 (  177949156).
MG BCs: Computational effort saved:  99.9828%.
MG BCs: Charge after coarse-graining:           -9.0007350.
MG DL_MG: Calling solver with defect correction order = 8
MG DL_MG: Solver finished
MG Hartree energy from (\int phi*rho dr):              1277.081437
MG Hartree energy from (\int eps (grad phi)^2 dr):     1276.438565
MG Discrepancy due to finite box and discretization:     -0.642871 (  -0.05034%)
MG Correction to account for finite box:                  0.469682
MG Remaining discrepancy, due to discretization:         -0.173189 (  -0.01356%)
     Trial step:       0.540322429580
             Q1:  -11612.406688657356
 Quadratic coef:       0.002914714256
 Linear coef   :      -0.005522617234
           Qmin:  -11612.406696731317
Quadratic minimum step length (  0.511884476410) accepted
    Initial Ne1:    7192.00008286
      Final Ne1:    7192.00000000

=================== Penalty functional idempotency correction ==================
 RMS occupancy error at iteration   1:  0.000007 (step -0.5000 Ne1=   7192.0000)
            Final RMS occupancy error   :  0.000000 (Ne1=   7192.0000)
               Final occupancy bounds   : [ -0.0000,  1.0000]
================================================================================

    5        -1.161240408075E+04     1.5539E-05     1.4054E-05    -8.9232E-03
MG BCs: +ve charge blocks (gridpoints):     25322 (   17274586).
MG BCs: -ve charge blocks (gridpoints):      8430 (    1072710).
MG BCs:     Elided blocks (gridpoints):    175318 (  177949169).
MG BCs: Computational effort saved:  99.9828%.
MG BCs: Charge after coarse-graining:           -9.0007351.
MG DL_MG: Calling solver with defect correction order = 8
MG DL_MG: Solver finished
MG Hartree energy from (\int phi*rho dr):              1277.063872
MG Hartree energy from (\int eps (grad phi)^2 dr):     1276.421000
MG Discrepancy due to finite box and discretization:     -0.642872 (  -0.05034%)
MG Correction to account for finite box:                  0.469682
MG Remaining discrepancy, due to discretization:         -0.173190 (  -0.01356%)
      ideal mu1:      -0.763011461361
             Q0:  -11612.406697406783
             G0:      -0.002431603362
   RMS gradient:       0.000007578935
MG BCs: +ve charge blocks (gridpoints):     25321 (   17274559).
MG BCs: -ve charge blocks (gridpoints):      8430 (    1072736).
MG BCs:     Elided blocks (gridpoints):    175319 (  177949170).
MG BCs: Computational effort saved:  99.9828%.
MG BCs: Charge after coarse-graining:           -9.0007350.
MG DL_MG: Calling solver with defect correction order = 8
MG DL_MG: Solver finished
MG Hartree energy from (\int phi*rho dr):              1277.021127
MG Hartree energy from (\int eps (grad phi)^2 dr):     1276.378260
MG Discrepancy due to finite box and discretization:     -0.642866 (  -0.05034%)
MG Correction to account for finite box:                  0.469679
MG Remaining discrepancy, due to discretization:         -0.173187 (  -0.01356%)
     Trial step:       0.525911270043
             Q1:  -11612.407427193364
 Quadratic coef:       0.000549021031
 Linear coef   :      -0.001278807612
           Qmin:  -11612.407442072659
Quadratic minimum step length (  0.612489592399) accepted
    Initial Ne1:    7192.00002696
      Final Ne1:    7192.00000000

=================== Penalty functional idempotency correction ==================
 RMS occupancy error at iteration   1:  0.000003 (step -0.5000 Ne1=   7192.0000)
            Final RMS occupancy error   :  0.000000 (Ne1=   7192.0000)
               Final occupancy bounds   : [  0.0000,  1.0000]
================================================================================

    6        -1.161240669741E+04     7.5789E-06     6.8550E-06    -2.6167E-03
MG BCs: +ve charge blocks (gridpoints):     25321 (   17274568).
MG BCs: -ve charge blocks (gridpoints):      8430 (    1072736).
MG BCs:     Elided blocks (gridpoints):    175319 (  177949161).
MG BCs: Computational effort saved:  99.9828%.
MG BCs: Charge after coarse-graining:           -9.0007350.
MG DL_MG: Calling solver with defect correction order = 8
MG DL_MG: Solver finished
MG Hartree energy from (\int phi*rho dr):              1277.014092
MG Hartree energy from (\int eps (grad phi)^2 dr):     1276.371227
MG Discrepancy due to finite box and discretization:     -0.642865 (  -0.05034%)
MG Correction to account for finite box:                  0.469679
MG Remaining discrepancy, due to discretization:         -0.173186 (  -0.01356%)
      ideal mu1:      -0.762965031903
             Q0:  -11612.407442154596
             G0:      -0.000867643211
   RMS gradient:       0.000004528176
MG BCs: +ve charge blocks (gridpoints):     25321 (   17274404).
MG BCs: -ve charge blocks (gridpoints):      8430 (    1072791).
MG BCs:     Elided blocks (gridpoints):    175319 (  177949270).
MG BCs: Computational effort saved:  99.9828%.
MG BCs: Charge after coarse-graining:           -9.0007351.
MG DL_MG: Calling solver with defect correction order = 8
MG DL_MG: Solver finished
MG Hartree energy from (\int phi*rho dr):              1276.957118
MG Hartree energy from (\int eps (grad phi)^2 dr):     1276.314250
MG Discrepancy due to finite box and discretization:     -0.642868 (  -0.05034%)
MG Correction to account for finite box:                  0.469681
MG Remaining discrepancy, due to discretization:         -0.173187 (  -0.01356%)
     Trial step:       0.567551917825
             Q1:  -11612.407648901804
 Quadratic coef:       0.000285685361
 Linear coef   :      -0.000492432569
           Qmin:  -11612.407654354683
Quadratic minimum step length (  0.489141354653) accepted
    Initial Ne1:    7191.99999921
      Final Ne1:    7192.00000000

=================== Penalty functional idempotency correction ==================
 RMS occupancy error at iteration   1:  0.000000 (step -0.5000 Ne1=   7192.0000)
            Final RMS occupancy error   :  0.000000 (Ne1=   7192.0000)
               Final occupancy bounds   : [  0.0000,  1.0000]
================================================================================

    7        -1.161240744215E+04     4.5282E-06     4.0956E-06    -7.4475E-04
MG BCs: +ve charge blocks (gridpoints):     25321 (   17274415).
MG BCs: -ve charge blocks (gridpoints):      8430 (    1072789).
MG BCs:     Elided blocks (gridpoints):    175319 (  177949261).
MG BCs: Computational effort saved:  99.9828%.
MG BCs: Charge after coarse-graining:           -9.0007351.
MG DL_MG: Calling solver with defect correction order = 8
MG DL_MG: Solver finished
MG Hartree energy from (\int phi*rho dr):              1276.964982
MG Hartree energy from (\int eps (grad phi)^2 dr):     1276.322115
MG Discrepancy due to finite box and discretization:     -0.642868 (  -0.05034%)
MG Correction to account for finite box:                  0.469680
MG Remaining discrepancy, due to discretization:         -0.173187 (  -0.01356%)
      ideal mu1:      -0.762903161746
             Q0:  -11612.407654351788
             G0:      -0.000481236860
   RMS gradient:       0.000003372259
MG BCs: +ve charge blocks (gridpoints):     25321 (   17274400).
MG BCs: -ve charge blocks (gridpoints):      8430 (    1072791).
MG BCs:     Elided blocks (gridpoints):    175319 (  177949274).
MG BCs: Computational effort saved:  99.9828%.
MG BCs: Charge after coarse-graining:           -9.0007351.
MG DL_MG: Calling solver with defect correction order = 8
MG DL_MG: Solver finished
MG Hartree energy from (\int phi*rho dr):              1276.946214
MG Hartree energy from (\int eps (grad phi)^2 dr):     1276.303344
MG Discrepancy due to finite box and discretization:     -0.642869 (  -0.05034%)
MG Correction to account for finite box:                  0.469682
MG Remaining discrepancy, due to discretization:         -0.173187 (  -0.01356%)
     Trial step:       0.526890039686
             Q1:  -11612.407843270106
 Quadratic coef:       0.000064640590
 Linear coef   :      -0.000253558908
           Qmin:  -11612.407903004067
Quadratic minimum step length (  1.033388339211) accepted
    Initial Ne1:    7191.99999907
      Final Ne1:    7192.00000000

=================== Penalty functional idempotency correction ==================
 RMS occupancy error at iteration   1:  0.000001 (step -0.5000 Ne1=   7192.0000)
            Final RMS occupancy error   :  0.000000 (Ne1=   7192.0000)
               Final occupancy bounds   : [  0.0000,  1.0000]
================================================================================

    8        -1.161240765435E+04     3.3723E-06     3.0501E-06    -2.1220E-04
MG BCs: +ve charge blocks (gridpoints):     25321 (   17274393).
MG BCs: -ve charge blocks (gridpoints):      8430 (    1072801).
MG BCs:     Elided blocks (gridpoints):    175319 (  177949271).
MG BCs: Computational effort saved:  99.9828%.
MG BCs: Charge after coarse-graining:           -9.0007351.
MG DL_MG: Calling solver with defect correction order = 8
MG DL_MG: Solver finished
[...]
 RMS occupancy error at iteration   1:  0.000000 (step -0.5000 Ne1=   7192.0000)
            Final RMS occupancy error   :  0.000000 (Ne1=   7192.0000)
               Final occupancy bounds   : [  0.0000,  1.0000]
================================================================================

    7        -1.164823538049E+04     3.3546E-09     3.0342E-09     1.1642E-10

Reusing previously generated solute cavity.
MG BCs: +ve charge blocks (gridpoints):     29611 (   19429704).
MG BCs: -ve charge blocks (gridpoints):      8458 (    1050455).
MG BCs:     Elided blocks (gridpoints):    171029 (  175816306).
MG BCs: Computational effort saved:  99.9806%.
MG BCs: Charge after coarse-graining:           -9.0009914.
MG DL_MG: Calling solver with defect correction order = 8
MG DL_MG: Solver finished
MG Hartree energy from (\int phi*rho dr):              1228.606423
MG Hartree energy from (\int eps (grad phi)^2 dr):     1228.427362
MG Discrepancy due to finite box and discretization:     -0.179061 (  -0.01457%)
MG Correction to account for finite box:                  0.006445
MG Remaining discrepancy, due to discretization:         -0.172617 (  -0.01405%)
      ideal mu1:      -0.514461531223
             Q0:  -11648.235380488331
             G0:      -0.000000000731
   RMS gradient:       0.000000003017

Reusing previously generated solute cavity.
MG BCs: +ve charge blocks (gridpoints):     29611 (   19429704).
MG BCs: -ve charge blocks (gridpoints):      8458 (    1050455).
MG BCs:     Elided blocks (gridpoints):    171029 (  175816306).
MG BCs: Computational effort saved:  99.9806%.
MG BCs: Charge after coarse-graining:           -9.0009914.
MG DL_MG: Calling solver with defect correction order = 8
MG DL_MG: Solver finished
MG Hartree energy from (\int phi*rho dr):              1228.606429
MG Hartree energy from (\int eps (grad phi)^2 dr):     1228.427368
MG Discrepancy due to finite box and discretization:     -0.179061 (  -0.01457%)
MG Correction to account for finite box:                  0.006445
MG Remaining discrepancy, due to discretization:         -0.172617 (  -0.01405%)
     Trial step:       0.130929301162
             Q1:  -11648.235380488099
 Quadratic coef:       0.000000000329
 Linear coef   :      -0.000000000096
           Qmin:  -11648.235380488339
Quadratic minimum step length (  0.019031025409) accepted
    Initial Ne1:    7192.00000000
      Final Ne1:    7192.00000000

=================== Penalty functional idempotency correction ==================
 RMS occupancy error at iteration   1:  0.000000 (step -0.5000 Ne1=   7192.0000)
            Final RMS occupancy error   :  0.000000 (Ne1=   7192.0000)
               Final occupancy bounds   : [  0.0000,  1.0000]
================================================================================

    8        -1.164823538049E+04     3.0174E-09     2.7291E-09    -1.1642E-10

Reusing previously generated solute cavity.
MG BCs: +ve charge blocks (gridpoints):     29611 (   19429704).
MG BCs: -ve charge blocks (gridpoints):      8458 (    1050455).
MG BCs:     Elided blocks (gridpoints):    171029 (  175816306).
MG BCs: Computational effort saved:  99.9806%.
MG BCs: Charge after coarse-graining:           -9.0009914.
MG DL_MG: Calling solver with defect correction order = 8
MG DL_MG: Solver finished
MG Hartree energy from (\int phi*rho dr):              1228.606424
MG Hartree energy from (\int eps (grad phi)^2 dr):     1228.427363
MG Discrepancy due to finite box and discretization:     -0.179061 (  -0.01457%)
MG Correction to account for finite box:                  0.006445
MG Remaining discrepancy, due to discretization:         -0.172617 (  -0.01405%)
      ideal mu1:      -0.514461531177
             Q0:  -11648.235380488215
             G0:      -0.000000000968
   RMS gradient:       0.000000002860

Reusing previously generated solute cavity.
MG BCs: +ve charge blocks (gridpoints):     29611 (   19429704).
MG BCs: -ve charge blocks (gridpoints):      8458 (    1050455).
MG BCs:     Elided blocks (gridpoints):    171029 (  175816306).
MG BCs: Computational effort saved:  99.9806%.
MG BCs: Charge after coarse-graining:           -9.0009914.
MG DL_MG: Calling solver with defect correction order = 8
MG DL_MG: Solver finished
MG Hartree energy from (\int phi*rho dr):              1228.606427
MG Hartree energy from (\int eps (grad phi)^2 dr):     1228.427366
MG Discrepancy due to finite box and discretization:     -0.179061 (  -0.01457%)
MG Correction to account for finite box:                  0.006445
MG Remaining discrepancy, due to discretization:         -0.172617 (  -0.01405%)
     Trial step:       0.049917119881
             Q1:  -11648.235380488215
 Quadratic coef:       0.000000000049
 Linear coef   :      -0.000000000048
           Qmin:  -11648.235380488228
Quadratic minimum step length (  0.024551571105) accepted
    Initial Ne1:    7192.00000000
      Final Ne1:    7192.00000000

=================== Penalty functional idempotency correction ==================
 RMS occupancy error at iteration   1:  0.000000 (step -0.5000 Ne1=   7192.0000)
            Final RMS occupancy error   :  0.000000 (Ne1=   7192.0000)
               Final occupancy bounds   : [  0.0000,  1.0000]
================================================================================

    9        -1.164823538049E+04     2.8603E-09     2.5871E-09     1.1642E-10

Reusing previously generated solute cavity.
MG BCs: +ve charge blocks (gridpoints):     29611 (   19429704).
MG BCs: -ve charge blocks (gridpoints):      8458 (    1050455).
MG BCs:     Elided blocks (gridpoints):    171029 (  175816306).
MG BCs: Computational effort saved:  99.9806%.
MG BCs: Charge after coarse-graining:           -9.0009914.
MG DL_MG: Calling solver with defect correction order = 8
MG DL_MG: Solver finished
MG Hartree energy from (\int phi*rho dr):              1228.606426
MG Hartree energy from (\int eps (grad phi)^2 dr):     1228.427364
MG Discrepancy due to finite box and discretization:     -0.179061 (  -0.01457%)
MG Correction to account for finite box:                  0.006445
MG Remaining discrepancy, due to discretization:         -0.172617 (  -0.01405%)
      ideal mu1:      -0.514461531101
   10        -1.164823538049E+04     2.5899E-09     2.3425E-09     0.0000E+00
Finished density kernel iterations (  10)

Writing density kernel to file "host_24801.dkn" ... done


>>> Density kernel optimised for the current NGWF basis:
     ~~~~~~~~~~~~~~~~~~~~~~~~~~~~~~~~~~~~~~~~~~~~~~~~~~~~~~~~~~~
     Total energy                =  -1.16482353804882E+04  Eh
     Estimated bandgap           =   1.2070E-01  Eh
     RMS occupancy error         =   3.0771E-16
     [H,K] commutator            =   2.3425E-09
     Occupancy bounds            = [  0.000:  1.000]
     ~~~~~~~~~~~~~~~~~~~~~~~~~~~~~~~~~~~~~~~~~~~~~~~~~~~~~~~~~~~




################################################################################
########################### NGWF CG iteration  005 #############################
################################################################################
****** Reciprocal space K.E. preconditioning with k_zero =  3.5000 a0^-1 *******

>>> Checking for convergence of NGWFs: 
           ........................................................
           |         *** NGWF optimisation converged ***          |
           | RMS NGWF gradient =    0.00000104115911              |
           | Criteria satisfied:                                  |
           | -> RMS NGWF gradient lower than set threshold.       |
           ========================================================

Reusing previously generated solute cavity.
MG BCs: +ve charge blocks (gridpoints):     29611 (   19429704).
MG BCs: -ve charge blocks (gridpoints):      8458 (    1050455).
MG BCs:     Elided blocks (gridpoints):    171029 (  175816306).
MG BCs: Computational effort saved:  99.9806%.
MG BCs: Charge after coarse-graining:           -9.0009914.
MG DL_MG: Calling solver with defect correction order = 8
MG DL_MG: Solver finished
MG Hartree energy from (\int phi*rho dr):              1228.606426
MG Hartree energy from (\int eps (grad phi)^2 dr):     1228.427364
MG Discrepancy due to finite box and discretization:     -0.179061 (  -0.01457%)
MG Correction to account for finite box:                  0.006445
MG Remaining discrepancy, due to discretization:         -0.172617 (  -0.01405%)

================================================================================
           ---------------- ENERGY COMPONENTS (Eh) ----------------
           | Kinetic                    :     8412.22164532646639 |
           | Pseudo. (local,OBC,corr'd) :    -4991.92472661437205 |
           | Pseudopotential (non-local):     1445.91373318074011 |
           | Hartree (molecular)        :     1228.60642569770403 |
           | Exchange-correlation       :    -3334.63196509172849 |
           | Ion-ion (open BC)          :   827887.68038631556556 |
           | Smeared ion non-self corr. :  -827839.57623139128555 |
           | Smeared ion self corr.     :   -14457.16956389741972 |
           | Solvent cavitation energy  :        2.29446228279680 |
           | Solute-solvent dis-rep en. :       -1.64954629665969 |
           | Total                      :   -11648.23538048818591 |
           --------------------------------------------------------
           ------ LOCAL ENERGY COMPONENTS FROM MATRIX TRACES ------
           | Pseudopotential (local)    :    -4991.92472661438296 |
           | Hartree                    :    -1986.54665153437395 |
           --------------------------------------------------------
           Integrated density           :     7191.99999999806278
           Integrated density tr(KS)    :     7192.00000000000000
================================================================================


                        <<<<< CALCULATION SUMMARY >>>>>                         
|ITER|    RMS GRADIENT   |     TOTAL ENERGY    |   step   |     Epredicted              
   0     0.00003803679461 -11648.18549146992154   0.539360 -11648.22856241393856        
   1     0.00001231470345 -11648.23425275715999   0.113427 -11648.23520218639533        
   2     0.00000536392972 -11648.23534299095627   0.019963 -11648.23537469388248        
   3     0.00000236396536 -11648.23537906981073   0.003940 -11648.23538028504663        
   4     0.00000104115911 -11648.23538048821501  <-- CG                                 

=================== Finished the calculation in solvent ========================
= Adjusting the following parameters: 
= read_denskern: F
= read_tightbox_ngwfs: F
= maxit_pen: 0 (restored to user-specified value)
= restart read filename prefix: ""
= restart write filename prefix: ""
================================================================================

================================================================================
IS: Calculation in solvent completed (NGWFs converged).      

Individual components of total energy in solvent:     hartree           kcal/mol
- Usual non-electrostatic DFT terms:    -12877.48672217205603    -8080744.744972
- Electrostatic fixed charge energy:      1228.60642569770403      770962.155294
- Apolar cavitation energy:                  2.29446228279680        1439.796789
- Apolar dispersion-repulsion energy:       -1.64954629665969       -1035.105907
 -------------------------------------------------------------------------------
- Total energy in solvent:              -11648.23538048821501    -7309377.898796

Components of total energy in solvent:                hartree           kcal/mol
- Usual non-electrostatic DFT terms:    -12877.48672217205603    -8080744.744972
- Electrostatic energy:                   1228.60642569770403      770962.155294
- Apolar energy terms:                       0.64491598613711         404.690882
 -------------------------------------------------------------------------------
- Total energy in solvent:              -11648.23538048821501    -7309377.898796

Calculation of free energy of solvation:              hartree           kcal/mol
- Total energy in solvent:         (+)  -11648.23538048821501    -7309377.898796
- Total energy in vacuum:          (-)  -11644.12681133742444    -7306799.732785
 -------------------------------------------------------------------------------
- Total free energy of solvation:           -4.10856915079057       -2578.166011

Components of polar term in f.e. of solvation:        hartree           kcal/mol
- Electrostatic:                            -5.00255181102534       -3139.148588
- Change in nonelectrostatic DFT terms:      0.24906667409778         156.291694
 -------------------------------------------------------------------------------
- Polar term in f.e. of solvation:          -4.75348513692757       -2982.856894

Components of free energy of solvation:               hartree           kcal/mol
- Polar term in f.e. of solvation: (+)      -4.75348513692757       -2982.856894
- Apolar (cavitation, dis., rep.): (+)       0.64491598613711         404.690882
 -------------------------------------------------------------------------------
- Total free energy of solvation:           -4.10856915079046       -2578.166011
================================================================================


------------------------------ TIMING INFORMATION ------------------------------
AVERAGE TIME:   71589.057s on     40 node(s)                                    
TOTAL TIME:     71589.058s on     40 node(s)                                    
================= AVERAGE TIMINGS FROM ALL NODES (CUMULATIVE) ==================
|| TAG                                    #calls    cpu time   %total  Gflops ||
|| work_imbalance                       :     1        0.00s   0.000%  ------ ||
|| parallel_prepare_fd_halos_request    :  2073        0.02s   0.000%  ------ ||
|| sparse_set_to_garbage                :   225        0.05s   0.000%  ------ ||
|| parallel_prepare_fd_halos_satisfy    :  2073        0.06s   0.000%  ------ ||
|| parallel_prepare_fd_halos_alloc      :  2073        0.07s   0.000%  ------ ||
|| ngwfs_initialise_from_radial         :     1        0.17s   0.000%  ------ ||
|| basis_extract_function_from_box      :  5691        0.20s   0.000%  ------ ||
|| restart_ngwfs_tightbox_input         :     1        1.02s   0.001%  ------ ||
|| pseudopotentials_nonlocal_mat        :    33        1.27s   0.002%  ------ ||
|| parallel_prepare_fd_halos_comms_imbal:  2073        2.74s   0.004%  ------ ||
|| density_init_guess_real              :     1        4.88s   0.007%  ------ ||
|| openbc_locps_radial                  :     1        5.08s   0.007%  ------ ||
|| restart_kernel_read                  :     1        5.18s   0.007%  ------ ||
|| parallel_prepare_fd_halos_clear      :  2073       14.83s   0.021%  ------ ||
|| restart_kernel_write                 :    18       15.84s   0.022%  ------ ||
|| sparse_init                          :     2       22.94s   0.032%  ------ ||
|| parallel_prepare_fd_halos_comms_wait :  2073       26.23s   0.037%  ------ ||
|| projectors_func_ovlp_box             :    33       26.25s   0.037%  ------ ||
|| projectors_init_fftbox_recip         :   220       29.70s   0.041%  ------ ||
|| function_ops_brappd_ketppd           :    33       31.19s   0.044%  ------ ||
|| palser_mano_kernel_optimise          :     1       41.86s   0.058%  ------ ||
|| parallel_prepare_fd_halos            :  2073       43.96s   0.061%  ------ ||
|| pseudo_make_structure_factor         :     2       55.77s   0.078%  ------ ||
|| ngwf_gradient_coeffs                 :    17       66.17s   0.092%  ------ ||
|| restart_ngwfs_tightbox_output        :    15       96.97s   0.135%  ------ ||
|| sparse_embed_hotelling_invert_embed  :    33      104.37s   0.146%  ------ ||
|| finite_difference_derivative         :  2073      114.16s   0.159%  ------ ||
|| basis_copy_function_to_box           : 176.4k     127.20s   0.178%  ------ ||
|| openbc_locps_on_grid                 :     2      184.70s   0.258%  ------ ||
|| integrals_kinetic                    :    33      197.01s   0.275%  ------ ||
|| projectors_gradient_batch            :   187      236.01s   0.330%  ------ ||
|| sparse_trace                         :  5287      275.77s   0.385%  ------ ||
|| fourier_apply_box_pair               : 49745      345.06s   0.482% 592.643 ||
|| kernel_purify                        :   527      364.90s   0.510%  ------ ||
|| basis_dot_function_with_box          : 20.16M     381.45s   0.533%  ------ ||
|| kernel_fix                           :   170      588.89s   0.823%  ------ ||
|| lnv_gradient_norm                    :   170      594.62s   0.831%  ------ ||
|| hamiltonian_energy_components        :     4      737.65s   1.030%  ------ ||
|| integrals_locpot_mat_els_batch       :  1969      925.25s   1.292%  ------ ||
|| basis_add_function_to_box            : 53.94M    1016.11s   1.419%  ------ ||
|| ke_density_batch_grad_apply          :  3784     1144.54s   1.599%  ------ ||
|| density_batch_row_sums               :  3784     1353.55s   1.891%  ------ ||
|| ke_density_batch_row_sums            :  3784     1354.53s   1.892%  ------ ||
|| density_fftbox_deposit_to_cell       : 56072     1545.24s   2.158%  ------ ||
|| fourier_apply_cell_backward          :  9295     1570.64s   2.194%  81.744 ||
|| ke_density_fftbox_deposit_to_cell    : 56072     1658.33s   2.316%  ------ ||
|| fourier_apply_cell_forward           :  9293     1773.98s   2.478%  72.358 ||
|| cell_grid_deposit_box_real           : 114.3k    1830.35s   2.557%  ------ ||
|| sparse_product                       :  6855     2173.80s   3.036%  ------ ||
|| cell_grid_extract_box_real           : 140.6k    2236.41s   3.124%  ------ ||
|| multigrid_prepare_bound_cond         :   345     2682.51s   3.747%  ------ ||
|| ngwf_gradient_build_batch            :   187     2688.12s   3.755%  ------ ||
|| ngwf_gradient_batch                  :   187     3009.95s   4.204%  ------ ||
|| ngwf_gradient_lnv                    :    17     3209.82s   4.484%  ------ ||
|| potential_apply_to_ngwf_batch        :  1969     3683.20s   5.145%  ------ ||
|| density_fftbox_interpolate_multiply  : 56072     4236.90s   5.918%  ------ ||
|| xc_energy_potential                  :   345     4514.21s   6.306%  ------ ||
|| integrals_locpot_dbl_grid            :   179     4624.99s   6.460%  ------ ||
|| density_batch_interp_deposit         :  3784     6500.88s   9.081%  ------ ||
|| dl_mg_solver_calls                   :   345     7119.81s   9.945%  ------ ||
|| nlxc_vdw_energy                      :   688     7529.71s  10.518%  ------ ||
|| density_on_dbl_grid                  :   344     8295.39s  11.588%  ------ ||
|| potential_apply_to_fftbox_batch      :  5610     9904.39s  13.835%  ------ ||
|| multigrid_calculate_hartree          :   345     9967.84s  13.924%  ------ ||
|| integrals_div_locpot_grad_functions  :   170    14666.64s  20.487%  ------ ||
|| ke_density_fftbox_interpolate_multipl: 56072    16618.15s  23.213%  ------ ||
|| ke_density_batch_interp_deposit      :  3784    19060.56s  26.625%  ------ ||
|| fourier_apply_box                    : 1.272M   21623.11s  30.204% 800.688 ||
|| ke_density_on_dbl_grid               :   344    22070.69s  30.830%  ------ ||
|| hamiltonian_lhxc_calculate           :   340    44823.05s  62.612%  ------ ||
|| lnv_denskernel_optimise_cg           :    17    64128.92s  89.579%  ------ ||
|| ngwf_cg_optimise                     :     2    70789.75s  98.883%  ------ ||
|| total_time                           :     1    71589.06s 100.000%  ------ ||
================================================================================
Overhead of generating timer report: 
- 0 ms averaging over threads,
- 7 ms ensuring consistency across MPI ranks,
- 2 ms printing in order.

Job completed: 09-01-2020 08:53 (-0000)

