 +---------------------------------------------------------------+
 |                                                               |
 |        ####### #     # ####### ####### ####### ######         |
 |        #     # ##    # #          #    #       #     #        |
 |        #     # # #   # #          #    #       #     #        |
 |        #     # #  #  # #####      #    #####   ######         |
 |        #     # #   # # #          #    #       #              |
 |        #     # #    ## #          #    #       #              |
 |        ####### #     # #######    #    ####### #              |
 |                                                               |
 |        Linear-Scaling Ab Initio Total Energy Program          |
 |                                                               |
 |          Release for academic collaborators of ODG            |
 |                                             Version 5.3.2.6.  |
 |                                                               |
 +---------------------------------------------------------------+
 |                                                               |
 |  Authors:                                                     |
 |  Jacek Dziedzic, Peter D. Haynes, Nicholas D. M. Hine,        |
 |  Arash. A. Mostofi, Mike C. Payne and Chris-Kriton Skylaris   |
 |                                                               |
 |  Contributors:                                                |
 |  J. Aarons, L. Andrinopoulos, P. W. Avraam, R. A. Bell,       |
 |  A. Bhandari, G. A. Bramley, R. J. Charlton, S. J. Clark,     |
 |  R. J. Clements, G. C. Constantinescu, F. Corsetti,           |
 |  N. Corsini, O. Dieguez, S. M. M. Dubois, K. K. B. Duff,      |
 |  J. M. Escartin, A. Greco, H. Helal, Q. O. Hill, L. P. Lee,   |
 |  J.-H. Li, E. B. Linscott, G. Moynihan, D. D. O`Regan,        |
 |  O. K. Okan, M. J. S. Phipps, C. J. Pickard,                  |
 |  J. C. A. Prentice, M. I. J. Probert, L. E. Ratcliff,         |
 |  M. Robinson, A. Ruiz Serrano, J. S. Spencer, E. W. Tait,     |
 |  G. Teobaldi, D. Turban, V. Vitale, K. A. Wilkinson,          |
 |  C. Weber, J. C. Womack, N. Yeung and T. J. Zuehlsdorff       |
 |                                                               |
 |                                   Copyright (c) 2004-2019     |
 |                                                               |
 |  Please cite:                                                 |
 |  "Introducing ONETEP: Linear-scaling density functional       |
 |   simulations on parallel computers".                         |
 |   C.-K. Skylaris, P. D. Haynes, A. A. Mostofi, M. C. Payne.   |
 |   J. Chem. Phys. 122 084119 (2005).                           |
 |                                                               |
 |          in all publications arising from your use of ONETEP. |
 |                                                               |
 +---------------------------------------------------------------+
 |                                                               |
 |   ONETEP is based on developments described in the following  |
 |   publications:                                               |
 |                                                               |
 |  "Nonorthogonal generalized Wannier function pseudopotential  |
 |   plane-wave method".                                         |
 |   C.-K. Skylaris, A. A. Mostofi, P. D. Haynes, O. Dieguez,    |
 |   M. C. Payne.                                                |
 |   Phys. Rev. B 66 035119 (2002).                              |
 |                                                               |
 |  "Preconditioned iterative minimization for linear-scaling    |
 |   electronic structure calculations".                         |
 |   A. A. Mostofi, P. D. Haynes, C.-K. Skylaris, M. C. Payne.   |
 |   J. Chem. Phys. 119(17), pp.8842-8848 (2003).                |
 |                                                               |
 |  "Total-energy calculations on a real space grid with         |
 |   localized functions and a plane-wave basis".                |
 |   A. A. Mostofi, C.-K. Skylaris, P. D. Haynes, M. C. Payne.   |
 |   Comput. Phys. Commun. 147, pp.788-802 (2002).               |
 |                                                               |
 |  "Accurate kinetic energy evaluation in electronic structure  |
 |   calculations with localized functions on real space grids"  |
 |   C.-K. Skylaris, A. A. Mostofi, P. D. Haynes, C. J. Pickard, |
 |   M. C. Payne.                                                |
 |   Comput. Phys. Commun. 140, pp.315-322 (2001).               |
 |                                                               |
 |  "Accurate ionic forces and geometry optimization in linear-  |
 |   scaling density-functional theory with local orbitals"      |
 |   N. D. M. Hine, M. Robinson, P. D. Haynes, C.-K. Skylaris,   |
 |   M. C. Payne, and A. A. Mostofi.                             |
 |   Phys. Rev. B 83 195102 (2011).                              |
 |                                                               |
 +---------------------------------------------------------------+

Job started: 05-02-2020 13:07 (-0000)
 
Reading parameters from file "complex_14161.dat" ...... done

If your calculation crashes here, before "Checking processes and threads..."
is displayed, then your stack size is insufficient.
If so, use "ulimit -s unlimited" at runtime.
You can disable this check with "check_stack_size F".

Checking processes and threads...
   Determining the default number of threads...
      No default threads set at compilation time: defaulting to 1.
      OpenMP library call suggests 4 threads.
      Hybrid MPI-OpenMP compilation detected.
      Number of MPI processes > 1.
      OMP_NUM_THREADS environment variable present and
      its value matches the one obtained from the OpenMP library call.
      Using this value as default.
      Default threads: 4
      Default applies to threads_max and threads_num_fftboxes.
      Settings in the input file override this default.
   ... done

   Running with 60 MPI processes.
   There are 6 MPI processes running on the same node as the root process.
   Each MPI process is using: 
               1 threads for simulation cell FFTs.
               1 threads for parallel FFT box operations.
               4 threads for loops over batched FFT box operations.
               4 threads in other parallel regions.
... done

Basic input checks...... done

Reading geometry and species blocks from file "complex_14161.dat" ...
  <species_atomic_set> block not found: NGWF initialisation set to SOLVE
IS: Dielectric excluded regions:
    - NONE.
    
  Number of PPD points along a3 set to 1.  This is 
  the default value, it may have been provided also in the input file.
... done
 Writing xyz coordinates to file "complex_14161.xyz" ... done


--------------------------------------------------------------------------------
---------------------------------- INPUT FILE ----------------------------------
--------------------------------------------------------------------------------

cutoff_energy       : 800 eV                                                    
xc_functional VV10                                                              
task SINGLEPOINT                                                                
write_xyz true                                                                  
output_detail VERBOSE                                                           
ngwf_threshold_orig : 0.000002                                                  
kernel_cutoff       : 1000                                                      
k_zero              : 3.5                                                       
elec_cg_max 0                                                                   
occ_mix 1.0                                                                     
dispersion 0                                                                    
maxit_ngwf_cg 40                                                                
minit_lnv 10                                                                    
maxit_lnv 10                                                                    
write_denskern T                                                                
write_tightbox_ngwfs T                                                          
charge 9                                                                        
is_implicit_solvent T                                                           
is_auto_solvation T                                                             
is_include_apolar T                                                             
is_smeared_ion_rep T                                                            
is_solvent_surf_tension 4.7624E-5 Ha/bohr**2                                    
is_apolar_scaling_factor 0.281075                                               
is_solvation_beta 1.3                                                           
is_density_threshold 0.00035                                                    
is_bulk_permittivity 78.54                                                      
is_dielectric_model fix_initial                                                 
is_smeared_ion_width 0.8                                                        
mg_defco_fd_order 8                                                             
is_bc_coarseness 10                                                             
is_bc_surface_coarseness 1                                                      
fine_grid_scale 2.0                                                             
%block species                                                                  
N   N   7 4 8.0                                                                 
H   H   1 1 8.0                                                                 
C   C   6 4 8.0                                                                 
S   S  16 9 8.0                                                                 
O   O   8 4 8.0                                                                 
%endblock species                                                               
%block species_pot                                                              
N   N_00.recpot                                                                 
H   H_04.recpot                                                                 
C   C_01.recpot                                                                 
S   S_00.recpot                                                                 
O   O_02.recpot                                                                 
%endblock species_pot                                                           
%block lattice_cart                                                             
135.996   0.000   0.000                                                         
0.000 142.663   0.000                                                           
0.000   0.000   160.158                                                         
%endblock lattice_cart                                                          
%block positions_abs                                                            
     Hash =  -000005824380435917674120
%endblock positions_abs                                                         

--------------------------------------------------------------------------------
-------------------------------- END INPUT FILE --------------------------------
--------------------------------------------------------------------------------


 
 ESDF WARNING(1): "kernelcutoff" (esdf_physical) has no units. Assume "bohr".
 ESDF WARNING(2): "kzero" (esdf_physical) has no units. Assume "1/bohr".
 ESDF WARNING(3
 ): "issmearedionwidth" (esdf_physical) has no units. Assume "bohr".
<<<<<<<<<<<<<<<<<<<<<<<<<<<<<<<<< Full system >>>>>>>>>>>>>>>>>>>>>>>>>>>>>>>>>>
<<<<<<<<<<<<<<<<<<<<<<<<< Pseudopotential information >>>>>>>>>>>>>>>>>>>>>>>>>>
File: N_00.recpot [ 2001 points up to Gmax=  52.9 (1/bohr)]
  Atomic number:  7;  ionic charge:  5.000000
    Shell 1: l = 0; rc = 1.48 bohr
File: H_04.recpot [ 2001 points up to Gmax=  52.9 (1/bohr)]
  Atomic number:  1;  ionic charge:  1.000000
    Local potential
File: C_01.recpot [ 2001 points up to Gmax=  52.9 (1/bohr)]
  Atomic number:  6;  ionic charge:  4.000000
    Shell 1: l = 0; rc = 1.48 bohr
File: S_00.recpot [ 2001 points up to Gmax=  52.9 (1/bohr)]
  Atomic number: 16;  ionic charge:  6.000000
    Shell 1: l = 0; rc = 1.90 bohr
    Shell 2: l = 2; rc = 1.84 bohr
File: O_02.recpot [ 2001 points up to Gmax=  52.9 (1/bohr)]
  Atomic number:  8;  ionic charge:  6.000000
    Shell 1: l = 0; rc = 1.31 bohr
<<<<<<<<<<<<<<<<<<<<<<<<<<<<<<<<<<<<<<<<>>>>>>>>>>>>>>>>>>>>>>>>>>>>>>>>>>>>>>>>

-------------------------- Atom counting information ---------------------------
Symbol    Natoms    Nngwfs    Nprojs
  N        236       944       236
  H       1317      1317         0
  C        816      3264       816
  S          6        54        36
  O        240       960       240
.......   ......    ......    ......
Totals:   2615      6539      1328
--------------------------------------------------------------------------------

=============================== PSINC grid sizes ===============================
                      Simulation cell:  270 x 286 x 315
                              FFT-box:   99 x 105 x  99
                                  PPD:    5 x  11 x   1
Grid space d1=  0.503688888889a0 (KE cutoff=  29.94189Eh = 814.76038eV)
Grid space d2=  0.498821678322a0 (KE cutoff=  30.52906Eh = 830.73786eV)
Grid space d3=  0.508438095238a0 (KE cutoff=  29.38514Eh = 799.61048eV)
================================================================================

********************* Fourier parallelisation information **********************
       Coarse grid (whole simulation cell) dimensions:    270   286   315
          Real-space ('12') slabs/node (min max mean):      5     6     5
         Recip-space ('23') slabs/node (min max mean):      2     3     2
********************************************************************************

********************* Fourier parallelisation information **********************
       Double grid (whole simulation cell) dimensions:    540   572   630
          Real-space ('12') slabs/node (min max mean):     10    11    10
         Recip-space ('23') slabs/node (min max mean):      4     5     4
********************************************************************************
ONETEP fine grid is 540 x 572 x 630 gridpoints, 135.9960 x 142.6630 x 160.1580 bohr.
FD multigrid is     537 x 569 x 625 gridpoints, 135.2405 x 141.9148 x 158.8869 bohr.


Calculating local pseudopotential in open BC on a radial grid ...
Discrepancy between calculated realspace psloc and -Z/x on [5a0,253.965a0]:
max |rel. diff| # avg |rel. diff| #  avg rel. diff #  f # pseudopotential file
 0.000259282084    0.000004141996   0.000000074978   54  'N_00.recpot'
 0.000405386992    0.000016970607  -0.000000075982   54  'H_04.recpot'
 0.000371694516    0.000017434762   0.000000149329   54  'C_01.recpot'
 0.000461642895    0.000020341726   0.000000491514   54  'S_00.recpot'
 0.000682525123    0.000027368244   0.000000159803   54  'O_02.recpot'
... done

Atom SCF Calculation for N  : Z (AE atom) =   7 : Z (PS atom) =   5
Config String:
Orbitals (num,occ):  2     2.00 3.00
Orbitals   (num,l):  2        0    1
Real-space Grid (nr,dr,rmax): 1203    0.0066555740    8.0000000000
Spherical Bessel Basis (nsws,lmax,cutoff):   47    1  176.3951722778
Confining potential (l,width,scale):  0    3.0000000000  100.0000000000
Confining potential (l,width,scale):  1    3.0000000000  100.0000000000
  1         -4.7366890484   -3.4501654188    7.0523828109   -1.9619316308
  2         -9.7225420322   -2.0763080851    8.3068355706   -2.2908832437
  3         -9.7134243553   -2.1270543915    8.2534567806   -2.2819809971
  4         -9.7235185949   -2.1427582218    8.2369947390   -2.2802814234
  5         -9.7258373845   -2.1477905863    8.2317116314   -2.2798536235
  6         -9.7268932325   -2.1503512400    8.2290229806   -2.2796830099
  7         -9.7273189469   -2.1516634231    8.2276451699   -2.2796169657
  8         -9.7274675212   -2.1523365544    8.2269384796   -2.2795940092
  9         -9.7275041773   -2.1526817003    8.2265762312   -2.2795881371
 10         -9.7275008637   -2.1528585007    8.2263907413   -2.2795884060
 11         -9.7274868305   -2.1529489544    8.2262958841   -2.2795903922
 12         -9.7274755655   -2.1529859230    8.2262571347   -2.2795920452
 13         -9.7274662327   -2.1530083995    8.2262335832   -2.2795934369
 14         -9.7274589439   -2.1530220534    8.2262192809   -2.2795945372
 15         -9.7274534633   -2.1530303399    8.2262106039   -2.2795953734
 16         -9.7274494492   -2.1530353634    8.2262053452   -2.2795959920
 17         -9.7274465654   -2.1530384053    8.2262021621   -2.2795964406
 18         -9.7274445237   -2.1530402447    8.2262002378   -2.2795967611
 19         -9.7274430947   -2.1530413553    8.2261990762   -2.2795969874
 20         -9.7274421038   -2.1530420249    8.2261983762   -2.2795971458
 21         -9.7274414219   -2.1530424277    8.2261979551   -2.2795972557
 22         -9.7274409555   -2.1530426696    8.2261977024   -2.2795973315
 23         -9.7274406382   -2.1530428144    8.2261975510   -2.2795973835
 24         -9.7274404232   -2.1530429010    8.2261974606   -2.2795974190
 25         -9.7274402783   -2.1530429525    8.2261974067   -2.2795974432
 26         -9.7274401808   -2.1530429831    8.2261973748   -2.2795974596
Atom SCF converged after  26 iterations to a total energy of     -9.72744018

Atom SCF Calculation for H  : Z (AE atom) =   1 : Z (PS atom) =   1
Config String:
Orbitals (num,occ):  1     1.00
Orbitals   (num,l):  1        0
Real-space Grid (nr,dr,rmax): 1203    0.0066555740    8.0000000000
Spherical Bessel Basis (nsws,lmax,cutoff):   47    0  176.3951722778
Confining potential (l,width,scale):  0    3.0000000000  100.0000000000
  1         -0.3178661827   -0.2469879004    0.2820953124   -0.2487802071
  2         -0.3961824611   -0.2455070831    0.2902209900   -0.2567664324
  3         -0.4406462424   -0.2424227551    0.2948173255   -0.2622129794
  4         -0.4569739054   -0.2416771342    0.2960118236   -0.2639986016
  5         -0.4627745219   -0.2416114401    0.2961916694   -0.2644992007
  6         -0.4648634749   -0.2416666130    0.2961598921   -0.2646237065
  7         -0.4656347011   -0.2417155160    0.2961132802   -0.2646490719
  8         -0.4659271144   -0.2417438448    0.2960836537   -0.2646515522
  9         -0.4660407254   -0.2417580788    0.2960682004   -0.2646501482
 10         -0.4660857867   -0.2417647566    0.2960608087   -0.2646488305
 11         -0.4661039568   -0.2417677717    0.2960574330   -0.2646480606
 12         -0.4661113773   -0.2417691018    0.2960559329   -0.2646476727
 13         -0.4661144368   -0.2417696800    0.2960552775   -0.2646474903
 14         -0.4661157072   -0.2417699291    0.2960549942   -0.2646474079
 15         -0.4661162374   -0.2417700356    0.2960548727   -0.2646473715
 16         -0.4661164596   -0.2417700810    0.2960548208   -0.2646473556
 17         -0.4661165529   -0.2417701003    0.2960547987   -0.2646473488
Atom SCF converged after  17 iterations to a total energy of     -0.46611655

Atom SCF Calculation for C  : Z (AE atom) =   6 : Z (PS atom) =   4
Config String:
Orbitals (num,occ):  2     2.00 2.00
Orbitals   (num,l):  2        0    1
Real-space Grid (nr,dr,rmax): 1203    0.0066555740    8.0000000000
Spherical Bessel Basis (nsws,lmax,cutoff):   47    1  176.3951722778
Confining potential (l,width,scale):  0    3.0000000000  100.0000000000
Confining potential (l,width,scale):  1    3.0000000000  100.0000000000
  1         -5.2812238291   -1.3293161250    4.5135249990   -1.4716766231
  2         -5.3996591362   -1.3542148509    4.4876064308   -1.4645117417
  3         -5.4111847148   -1.3757224423    4.4645718036   -1.4593107263
  4         -5.4199203659   -1.3833334895    4.4563636676   -1.4579885221
  5         -5.4226876204   -1.3865104950    4.4529090432   -1.4575385943
  6         -5.4235070726   -1.3878131251    4.4514866831   -1.4573882877
  7         -5.4237271252   -1.3883401868    4.4509094528   -1.4573411661
  8         -5.4237693051   -1.3885521813    4.4506766230   -1.4573281030
  9         -5.4237656430   -1.3886371046    4.4505830704   -1.4573255254
 10         -5.4237547927   -1.3886709976    4.4505456041   -1.4573257244
 11         -5.4237478594   -1.3886817763    4.4505336403   -1.4573262476
 12         -5.4237429748   -1.3886873440    4.4505274417   -1.4573266921
 13         -5.4237397042   -1.3886902144    4.4505242350   -1.4573270222
 14         -5.4237375865   -1.3886916908    4.4505225792   -1.4573272507
 15         -5.4237362473   -1.3886924482    4.4505217259   -1.4573274021
 16         -5.4237354152   -1.3886928356    4.4505212873   -1.4573274996
 17         -5.4237349050   -1.3886930331    4.4505210623   -1.4573275610
 18         -5.4237345954   -1.3886931333    4.4505209473   -1.4573275991
 19         -5.4237344092   -1.3886931840    4.4505208887   -1.4573276224
 20         -5.4237342980   -1.3886932094    4.4505208590   -1.4573276366
 21         -5.4237342320   -1.3886932221    4.4505208440   -1.4573276451
Atom SCF converged after  21 iterations to a total energy of     -5.42373423

Atom SCF Calculation for S  : Z (AE atom) =  16 : Z (PS atom) =   6
Config String:
Orbitals (num,occ):  3     2.00 4.00 0.00
Orbitals   (num,l):  3        0    1    2
Real-space Grid (nr,dr,rmax): 1203    0.0066555740    8.0000000000
Spherical Bessel Basis (nsws,lmax,cutoff):   47    2  176.3951722778
Confining potential (l,width,scale):  0    3.0000000000  100.0000000000
Confining potential (l,width,scale):  1    3.0000000000  100.0000000000
Confining potential (l,width,scale):  2    3.0000000000  100.0000000000
  1        -12.4916237786   -1.0485914554   10.1554312477   -2.4822447765
  2         -9.9747083603   -2.4807597367    8.3138131863   -2.0618837268
  3        -10.1811370131   -2.3153496392    8.4906092179   -2.1137756843
  4        -10.1856385898   -2.2984912006    8.5093862195   -2.1218167101
  5        -10.1891317560   -2.2894783333    8.5195006030   -2.1261392389
  6        -10.1911142562   -2.2849160124    8.5246320974   -2.1283733378
  7        -10.1921506977   -2.2826473329    8.5271859473   -2.1295140514
  8        -10.1926851273   -2.2815219985    8.5284534218   -2.1300957983
  9        -10.1929632671   -2.2809620806    8.5290843811   -2.1303933136
 10        -10.1931100895   -2.2806822783    8.5293998452   -2.1305460626
 11        -10.1931885828   -2.2805418782    8.5295582201   -2.1306248009
 12        -10.1932309625   -2.2804711729    8.5296380158   -2.1306655459
 13        -10.1932540142   -2.2804354512    8.5296783476   -2.1306867097
 14        -10.1932666242   -2.2804173494    8.5296987927   -2.1306977435
 15        -10.1932735535   -2.2804081489    8.5297091868   -2.1307035175
 16        -10.1932773756   -2.2804034581    8.5297144867   -2.1307065505
 17        -10.1932794908   -2.2804010586    8.5297171976   -2.1307081499
 18        -10.1932806648   -2.2803998268    8.5297185890   -2.1307089965
 19        -10.1932813181   -2.2803991920    8.5297193057   -2.1307094466
 20        -10.1932816826   -2.2803988634    8.5297196763   -2.1307096867
 21        -10.1932818864   -2.2803986926    8.5297198688   -2.1307098154
 22        -10.1932820006   -2.2803986034    8.5297199692   -2.1307098847
 23        -10.1932820648   -2.2803985565    8.5297200219   -2.1307099221
Atom SCF converged after  23 iterations to a total energy of    -10.19328206

Atom SCF Calculation for O  : Z (AE atom) =   8 : Z (PS atom) =   6
Config String:
Orbitals (num,occ):  2     2.00 4.00
Orbitals   (num,l):  2        0    1
Real-space Grid (nr,dr,rmax): 1203    0.0066555740    8.0000000000
Spherical Bessel Basis (nsws,lmax,cutoff):   47    1  176.3951722778
Confining potential (l,width,scale):  0    3.0000000000  100.0000000000
Confining potential (l,width,scale):  1    3.0000000000  100.0000000000
  1         -1.9497477053   -7.5870966769   10.1554312477   -2.4822447765
  2        -15.9466298225   -3.1778351734   13.6353006614   -3.2931224232
  3        -16.0387051750   -3.0909030611   13.7305651010   -3.3194522996
  4        -15.9025031450   -3.1083023605   13.7128101414   -3.3180850501
  5        -15.8912953362   -3.1033022259   13.7185404266   -3.3206942093
  6        -15.8793912992   -3.1043100674   13.7175820250   -3.3209366960
  7        -15.8748748605   -3.1043975610   13.7175531476   -3.3211845618
  8        -15.8725354084   -3.1044655610   13.7175148333   -3.3213149154
  9        -15.8713193866   -3.1045129589   13.7174824743   -3.3213832909
 10        -15.8706863385   -3.1045436851   13.7174593895   -3.3214192053
 11        -15.8703562731   -3.1045627330   13.7174442347   -3.3214381098
 12        -15.8701839150   -3.1045741887   13.7174347673   -3.3214480859
 13        -15.8700937727   -3.1045809294   13.7174290448   -3.3214533647
 14        -15.8700465571   -3.1045848305   13.7174256662   -3.3214561658
 15        -15.8700217888   -3.1045870593   13.7174237063   -3.3214576563
 16        -15.8700087767   -3.1045883194   13.7174225849   -3.3214584516
 17        -15.8700019307   -3.1045890258   13.7174219502   -3.3214588771
 18        -15.8699983237   -3.1045894190   13.7174215942   -3.3214591053
 19        -15.8699964206   -3.1045896366   13.7174213960   -3.3214592281
 20        -15.8699954151   -3.1045897563   13.7174212864   -3.3214592942
 21        -15.8699948832   -3.1045898219   13.7174212260   -3.3214593299
 22        -15.8699946014   -3.1045898577   13.7174211930   -3.3214593493
 23        -15.8699944520   -3.1045898771   13.7174211750   -3.3214593597
 24        -15.8699943726   -3.1045898877   13.7174211652   -3.3214593654
Atom SCF converged after  24 iterations to a total energy of    -15.86999437

========================== Calculation in vacuum ==============================
= Adjusting the following parameters: 
= is_implicit_solvent: F
= is_include_apolar: F
= write_denskern: T
= write_tightbox_ngwfs: T
= restart read filename prefix: ""
= restart write filename prefix: "vacuum_"
===============================================================================

Determining parallel strategy ...
... using space-filling curve
... NGWF load balancing: max    109;  min    108;  average    109
... Projector load balancing: max     26;  min     21;  average     22
... done
Calculating direct Ion-Ion energy ...
Ion-Ion Energy        :    839079.03610250260681
Basis initialisation ...... NGWF spheres initialised
... Projector spheres initialised
... NGWF tight boxes initialised
... Tight-boxes gathered
... NGWF basis size (local,global):    1039839  62521609
... Nonlocal pseudopotential projector initialisation
... done

========================== Sparse matrix information ===========================
                        Overlap matrix filling:   6.81%
                        Density kernel filling: 100.00%
              NGWF-Proj overlap matrix filling:   1.77%
                    Hamiltonian matrix filling:   7.70%
                  NGWF diagonal matrix filling:   0.05%
                             KS matrix filling: 100.00% 
                           KSKS matrix filling: 100.00% 
================================================================================

Sparse matrix initialisation ... done

Generating smeared ion density ... done
Smeared ion self correction:     -14525.987107
Smeared ion non-self correction: -839030.791086
NGWF initialisation ...... done
============ Calculation of NGWF S^-1 using Hotelling algorithm ================ 
         Iteration  |  Frobenius norm and Maximum abs value    (of I-S*S_n^-1)   
               1       0.78684631E+02     0.98242509E+00
               2       0.76825981E+02     0.96530184E+00
               3       0.73811983E+02     0.93233833E+00
               4       0.69521765E+02     0.87136937E+00
               5       0.64176672E+02     0.76756087E+00
               6       0.58178409E+02     0.70314789E+00
               7       0.52158863E+02     0.66917083E+00
               8       0.46591927E+02     0.64322452E+00
               9       0.40482249E+02     0.60209014E+00
              10       0.32156057E+02     0.53260024E+00
              11       0.21543997E+02     0.42383545E+00
              12       0.10967002E+02     0.28209431E+00
              13       0.36030829E+01     0.12654876E+00
              14       0.56756413E+00     0.28946194E-01
              15       0.26410215E-01     0.22939910E-02
              16       0.12659805E-03     0.15765803E-04
              17       0.47223114E-08     0.75296624E-09
              18       0.92883160E-13     0.47739590E-14
================================================================================
Calculating local pseudopotential in open BC on the fine real space grid ...
... done

MG BCs: +ve charge blocks (gridpoints):     20430 (   16098841).
MG BCs: -ve charge blocks (gridpoints):      8075 (    1090264).
MG BCs:     Elided blocks (gridpoints):    173484 (  173781520).
MG BCs: Computational effort saved:  99.9851%.
MG BCs: Charge after coarse-graining:           -9.0002260.
MG DL_MG: Calling solver with defect correction order = 8
MG DL_MG: Solver finished
MG Hartree energy from (\int phi*rho dr):              1460.559037
MG Hartree energy from (\int eps (grad phi)^2 dr):     1459.937906
MG Discrepancy due to finite box and discretization:     -0.621132 (  -0.04253%)
MG Correction to account for finite box:                  0.466644
MG Remaining discrepancy, due to discretization:         -0.154488 (  -0.01058%)
Up spin density kernel initialisation ... 
======= Optimisation of K by Palser-Manolopoulos canonical purification ======== 
         Iteration  |  Band structure energy |    c_n   
               1       -2576.37076502966011    0.5288372
               2       -2752.48397556292639    0.5185661
               3       -2935.43514258398227    0.5158760
               4       -3091.09248982932968    0.5284588
               5       -3189.21677392724496    0.5637311
               6       -3231.27990981773200    0.6102727
               7       -3245.58417993374815    0.6242243
               8       -3251.72319918090943    0.6223295
               9       -3254.74822175500049    0.6380598
              10       -3256.01588493435702    0.6697567
              11       -3256.50134441191176    0.6893980
              12       -3256.71653811800570    0.6794913
              13       -3256.83528879896721    0.6297014
              14       -3256.91270037942559    0.5443389
              15       -3256.95974748117078    0.4371540
              16       -3256.97098626892375    0.3641140
              17       -3256.97227745992632    0.3294904
              18       -3256.97283408017847    0.3387026
              19       -3256.97320946527270    0.3766883
              20       -3256.97358867857611    0.4214761
              21       -3256.97393218569141    0.4640038
              22       -3256.97415199199668    0.4914568
              23       -3256.97421854127742    0.4994765
              24       -3256.97422328299035    0.4999981
              25       -3256.97422330522568    0.4999981
Termination criterion satisfied: band energy change below threshold.
Final occupancy bounds: [    0.00000000000004:    0.99999999999994]
Closest occupancy to 0.5:     0.99999999999998
================================================================================
... done

Writing density kernel to file "complex_14161.vacuum_dkn" ... done

>>> Optimising kernel for current NGWFs:
   Initial electron number for spin 1:    7228.00000000
     Final electron number for spin 1:    7228.00000000

=================== Penalty functional idempotency correction ==================
 RMS occupancy error at iteration   1:  0.000000 (step -0.5000 Ne1=   7228.0000)
            Final RMS occupancy error   :  0.000000 (Ne1=   7228.0000)
               Final occupancy bounds   : [  0.0000,  1.0000]
================================================================================

................................................................................
<<<<<<<<<<<<<< LNV (Original version) density kernel optimisation >>>>>>>>>>>>>>
~~~~~~~~~~~~~~~~~~~~~~~~~~~~~~~~~~~~~~~~~~~~~~~~~~~~~~~~~~~~~~~~~~~~~~~~~~~~~~~~
   iter  |      energy (Eh)       | rms gradient |  commutator  |   dE (Eh)
MG BCs: +ve charge blocks (gridpoints):     30857 (   17208836).
MG BCs: -ve charge blocks (gridpoints):      8323 (    1119274).
MG BCs:     Elided blocks (gridpoints):    163050 (  172642515).
MG BCs: Computational effort saved:  99.9795%.
MG BCs: Charge after coarse-graining:           -9.0009729.
MG DL_MG: Calling solver with defect correction order = 8
MG DL_MG: Solver finished
MG Hartree energy from (\int phi*rho dr):              1423.501457
MG Hartree energy from (\int eps (grad phi)^2 dr):     1422.832468
MG Discrepancy due to finite box and discretization:     -0.668989 (  -0.04700%)
MG Correction to account for finite box:                  0.472248
MG Remaining discrepancy, due to discretization:         -0.196741 (  -0.01382%)
      ideal mu1:      -0.724720600571
             Q0:  -11579.480997942854
             G0:    -146.151067735770
   RMS gradient:       0.001848798835
MG BCs: +ve charge blocks (gridpoints):     30810 (   17283761).
MG BCs: -ve charge blocks (gridpoints):      8247 (    1101759).
MG BCs:     Elided blocks (gridpoints):    163099 (  172585105).
MG BCs: Computational effort saved:  99.9795%.
MG BCs: Charge after coarse-graining:           -9.0009948.
MG DL_MG: Calling solver with defect correction order = 8
MG DL_MG: Solver finished
MG Hartree energy from (\int phi*rho dr):              1444.048399
MG Hartree energy from (\int eps (grad phi)^2 dr):     1443.396569
MG Discrepancy due to finite box and discretization:     -0.651830 (  -0.04514%)
MG Correction to account for finite box:                  0.471406
MG Remaining discrepancy, due to discretization:         -0.180424 (  -0.01249%)
     Trial step:       0.500000000000
             Q1:  -11590.716583534144
 Quadratic coef:      61.839948276594
 Linear coef   :     -73.075533867885
           Qmin:  -11601.069120988299
Quadratic minimum step length (  0.295422036662) accepted
    Initial Ne1:    7228.00000000
      Final Ne1:    7228.00000000

=================== Penalty functional idempotency correction ==================
 RMS occupancy error at iteration   1:  0.003456 (step -0.4882 Ne1=   7228.0000)
 RMS occupancy error at iteration   2:  0.000026 (step -0.5000 Ne1=   7228.0000)
            Final RMS occupancy error   :  0.000000 (Ne1=   7228.0000)
               Final occupancy bounds   : [  0.0000,  1.0000]
================================================================================

    1        -1.157948099794E+04     1.8488E-03     1.6726E-03
MG BCs: +ve charge blocks (gridpoints):     30841 (   17254586).
MG BCs: -ve charge blocks (gridpoints):      8273 (    1109164).
MG BCs:     Elided blocks (gridpoints):    163066 (  172606875).
MG BCs: Computational effort saved:  99.9795%.
MG BCs: Charge after coarse-graining:           -9.0009857.
MG DL_MG: Calling solver with defect correction order = 8
MG DL_MG: Solver finished
MG Hartree energy from (\int phi*rho dr):              1427.505346
MG Hartree energy from (\int eps (grad phi)^2 dr):     1426.847478
MG Discrepancy due to finite box and discretization:     -0.657868 (  -0.04609%)
MG Correction to account for finite box:                  0.471650
MG Remaining discrepancy, due to discretization:         -0.186218 (  -0.01304%)
      ideal mu1:      -0.762483440929
             Q0:  -11601.500243549584
             G0:     -11.752160534544
   RMS gradient:       0.000520538204
MG BCs: +ve charge blocks (gridpoints):     30847 (   17270004).
MG BCs: -ve charge blocks (gridpoints):      8265 (    1104501).
MG BCs:     Elided blocks (gridpoints):    163060 (  172596120).
MG BCs: Computational effort saved:  99.9795%.
MG BCs: Charge after coarse-graining:           -9.0009898.
MG DL_MG: Calling solver with defect correction order = 8
MG DL_MG: Solver finished
MG Hartree energy from (\int phi*rho dr):              1432.057341
MG Hartree energy from (\int eps (grad phi)^2 dr):     1431.403334
MG Discrepancy due to finite box and discretization:     -0.654007 (  -0.04567%)
MG Correction to account for finite box:                  0.471088
MG Remaining discrepancy, due to discretization:         -0.182919 (  -0.01277%)
     Trial step:       0.384331911674
             Q1:  -11604.285183785716
 Quadratic coef:       1.731790088414
 Linear coef   :      -4.516730324545
           Qmin:  -11604.445296324911
Quadratic minimum step length (  0.501193421698) accepted
    Initial Ne1:    7227.99991013
      Final Ne1:    7228.00000000

=================== Penalty functional idempotency correction ==================
 RMS occupancy error at iteration   1:  0.001825 (step -0.4930 Ne1=   7228.0000)
 RMS occupancy error at iteration   2:  0.000010 (step -0.5001 Ne1=   7228.0000)
            Final RMS occupancy error   :  0.000000 (Ne1=   7228.0000)
               Final occupancy bounds   : [  0.0000,  1.0000]
================================================================================

    2        -1.160150024355E+04     5.2054E-04     4.7092E-04    -2.2019E+01
MG BCs: +ve charge blocks (gridpoints):     30843 (   17274807).
MG BCs: -ve charge blocks (gridpoints):      8259 (    1103123).
MG BCs:     Elided blocks (gridpoints):    163064 (  172592695).
MG BCs: Computational effort saved:  99.9795%.
MG BCs: Charge after coarse-graining:           -9.0009909.
MG DL_MG: Calling solver with defect correction order = 8
MG DL_MG: Solver finished
MG Hartree energy from (\int phi*rho dr):              1433.481390
MG Hartree energy from (\int eps (grad phi)^2 dr):     1432.828473
MG Discrepancy due to finite box and discretization:     -0.652917 (  -0.04555%)
MG Correction to account for finite box:                  0.470931
MG Remaining discrepancy, due to discretization:         -0.181986 (  -0.01270%)
      ideal mu1:      -0.783132597233
             Q0:  -11604.481106417486
             G0:      -1.875876574702
   RMS gradient:       0.000208216698
MG BCs: +ve charge blocks (gridpoints):     30854 (   17274133).
MG BCs: -ve charge blocks (gridpoints):      8259 (    1103870).
MG BCs:     Elided blocks (gridpoints):    163053 (  172592622).
MG BCs: Computational effort saved:  99.9795%.
MG BCs: Charge after coarse-graining:           -9.0009908.
MG DL_MG: Calling solver with defect correction order = 8
MG DL_MG: Solver finished
MG Hartree energy from (\int phi*rho dr):              1431.811046
MG Hartree energy from (\int eps (grad phi)^2 dr):     1431.158516
MG Discrepancy due to finite box and discretization:     -0.652529 (  -0.04557%)
MG Correction to account for finite box:                  0.470692
MG Remaining discrepancy, due to discretization:         -0.181837 (  -0.01270%)
     Trial step:       0.438890220761
             Q1:  -11604.952628337080
 Quadratic coef:       0.351781964398
 Linear coef   :      -0.823303883992
           Qmin:  -11604.962817643469
Quadratic minimum step length (  0.513585203290) accepted
    Initial Ne1:    7227.99995988
      Final Ne1:    7228.00000000

=================== Penalty functional idempotency correction ==================
 RMS occupancy error at iteration   1:  0.000603 (step -0.4976 Ne1=   7228.0000)
 RMS occupancy error at iteration   2:  0.000001 (step -0.5000 Ne1=   7228.0000)
            Final RMS occupancy error   :  0.000000 (Ne1=   7228.0000)
               Final occupancy bounds   : [  0.0000,  1.0000]
================================================================================

    3        -1.160448110642E+04     2.0822E-04     1.8837E-04    -2.9809E+00
MG BCs: +ve charge blocks (gridpoints):     30858 (   17273934).
MG BCs: -ve charge blocks (gridpoints):      8260 (    1104087).
MG BCs:     Elided blocks (gridpoints):    163049 (  172592604).
MG BCs: Computational effort saved:  99.9795%.
MG BCs: Charge after coarse-graining:           -9.0009908.
MG DL_MG: Calling solver with defect correction order = 8
MG DL_MG: Solver finished
MG Hartree energy from (\int phi*rho dr):              1431.533623
MG Hartree energy from (\int eps (grad phi)^2 dr):     1430.881150
MG Discrepancy due to finite box and discretization:     -0.652473 (  -0.04558%)
MG Correction to account for finite box:                  0.470652
MG Remaining discrepancy, due to discretization:         -0.181820 (  -0.01270%)
      ideal mu1:      -0.783943875140
             Q0:  -11604.967473451165
             G0:      -0.458869628425
   RMS gradient:       0.000103030435
MG BCs: +ve charge blocks (gridpoints):     30860 (   17274851).
MG BCs: -ve charge blocks (gridpoints):      8258 (    1103793).
MG BCs:     Elided blocks (gridpoints):    163047 (  172591981).
MG BCs: Computational effort saved:  99.9795%.
MG BCs: Charge after coarse-graining:           -9.0009909.
MG DL_MG: Calling solver with defect correction order = 8
MG DL_MG: Solver finished
MG Hartree energy from (\int phi*rho dr):              1432.579998
MG Hartree energy from (\int eps (grad phi)^2 dr):     1431.927542
MG Discrepancy due to finite box and discretization:     -0.652456 (  -0.04554%)
MG Correction to account for finite box:                  0.470551
MG Remaining discrepancy, due to discretization:         -0.181905 (  -0.01270%)
     Trial step:       0.474771021916
             Q1:  -11605.070080967969
 Quadratic coef:       0.115250485609
 Linear coef   :      -0.217858002414
           Qmin:  -11605.070427701128
Quadratic minimum step length (  0.448729850864) accepted
    Initial Ne1:    7227.99999126
      Final Ne1:    7228.00000000

=================== Penalty functional idempotency correction ==================
 RMS occupancy error at iteration   1:  0.000197 (step -0.4992 Ne1=   7228.0000)
 RMS occupancy error at iteration   2:  0.000000 (step -0.5000 Ne1=   7228.0000)
            Final RMS occupancy error   :  0.000000 (Ne1=   7228.0000)
               Final occupancy bounds   : [  0.0000,  1.0000]
================================================================================

    4        -1.160496747345E+04     1.0303E-04     9.3209E-05    -4.8637E-01
MG BCs: +ve charge blocks (gridpoints):     30860 (   17274861).
MG BCs: -ve charge blocks (gridpoints):      8258 (    1103784).
MG BCs:     Elided blocks (gridpoints):    163047 (  172591980).
MG BCs: Computational effort saved:  99.9795%.
MG BCs: Charge after coarse-graining:           -9.0009909.
MG DL_MG: Calling solver with defect correction order = 8
MG DL_MG: Solver finished
MG Hartree energy from (\int phi*rho dr):              1432.522472
MG Hartree energy from (\int eps (grad phi)^2 dr):     1431.870016
MG Discrepancy due to finite box and discretization:     -0.652456 (  -0.04555%)
MG Correction to account for finite box:                  0.470556
MG Remaining discrepancy, due to discretization:         -0.181900 (  -0.01270%)
      ideal mu1:      -0.784170728049
             Q0:  -11605.070917110424
             G0:      -0.107250157959
   RMS gradient:       0.000049969613
MG BCs: +ve charge blocks (gridpoints):     30860 (   17274973).
MG BCs: -ve charge blocks (gridpoints):      8259 (    1103679).
MG BCs:     Elided blocks (gridpoints):    163047 (  172591973).
MG BCs: Computational effort saved:  99.9795%.
MG BCs: Charge after coarse-graining:           -9.0009909.
MG DL_MG: Calling solver with defect correction order = 8
MG DL_MG: Solver finished
MG Hartree energy from (\int phi*rho dr):              1432.901338
MG Hartree energy from (\int eps (grad phi)^2 dr):     1432.248741
MG Discrepancy due to finite box and discretization:     -0.652596 (  -0.04554%)
MG Correction to account for finite box:                  0.470552
MG Remaining discrepancy, due to discretization:         -0.182044 (  -0.01270%)
     Trial step:       0.461566820579
             Q1:  -11605.097752001719
 Quadratic coef:       0.022668223122
 Linear coef   :      -0.049503114416
           Qmin:  -11605.097943471552
Quadratic minimum step length (  0.503987344008) accepted
    Initial Ne1:    7227.99999769
      Final Ne1:    7228.00000000

=================== Penalty functional idempotency correction ==================
 RMS occupancy error at iteration   1:  0.000070 (step -0.4997 Ne1=   7228.0000)
            Final RMS occupancy error   :  0.000000 (Ne1=   7228.0000)
               Final occupancy bounds   : [ -0.0000,  1.0000]
================================================================================

    5        -1.160507091711E+04     4.9970E-05     4.5206E-05    -1.0344E-01
MG BCs: +ve charge blocks (gridpoints):     30859 (   17274985).
MG BCs: -ve charge blocks (gridpoints):      8258 (    1103671).
MG BCs:     Elided blocks (gridpoints):    163048 (  172591969).
MG BCs: Computational effort saved:  99.9795%.
MG BCs: Charge after coarse-graining:           -9.0009909.
MG DL_MG: Calling solver with defect correction order = 8
MG DL_MG: Solver finished
MG Hartree energy from (\int phi*rho dr):              1432.936161
MG Hartree energy from (\int eps (grad phi)^2 dr):     1432.283552
MG Discrepancy due to finite box and discretization:     -0.652609 (  -0.04554%)
MG Correction to account for finite box:                  0.470552
MG Remaining discrepancy, due to discretization:         -0.182057 (  -0.01271%)
      ideal mu1:      -0.784084674627
             Q0:  -11605.098000971484
             G0:      -0.032063335900
   RMS gradient:       0.000027346920
MG BCs: +ve charge blocks (gridpoints):     30859 (   17274582).
MG BCs: -ve charge blocks (gridpoints):      8259 (    1103893).
MG BCs:     Elided blocks (gridpoints):    163048 (  172592150).
MG BCs: Computational effort saved:  99.9795%.
MG BCs: Charge after coarse-graining:           -9.0009908.
MG DL_MG: Calling solver with defect correction order = 8
MG DL_MG: Solver finished
MG Hartree energy from (\int phi*rho dr):              1432.291957
MG Hartree energy from (\int eps (grad phi)^2 dr):     1431.639352
MG Discrepancy due to finite box and discretization:     -0.652605 (  -0.04556%)
MG Correction to account for finite box:                  0.470551
MG Remaining discrepancy, due to discretization:         -0.182053 (  -0.01271%)
     Trial step:       0.482310932891
             Q1:  -11605.108058864367
 Quadratic coef:       0.005406604567
 Linear coef   :      -0.015464497450
           Qmin:  -11605.109059237278
Quadratic minimum step length (  0.689776374385) accepted
    Initial Ne1:    7228.00035204
      Final Ne1:    7228.00000000

=================== Penalty functional idempotency correction ==================
 RMS occupancy error at iteration   1:  0.000041 (step -0.4998 Ne1=   7228.0000)
            Final RMS occupancy error   :  0.000000 (Ne1=   7228.0000)
               Final occupancy bounds   : [ -0.0000,  1.0000]
================================================================================

    6        -1.160509800097E+04     2.7347E-05     2.4740E-05    -2.7084E-02
MG BCs: +ve charge blocks (gridpoints):     30858 (   17274435).
MG BCs: -ve charge blocks (gridpoints):      8259 (    1103964).
MG BCs:     Elided blocks (gridpoints):    163049 (  172592226).
MG BCs: Computational effort saved:  99.9795%.
MG BCs: Charge after coarse-graining:           -9.0009907.
MG DL_MG: Calling solver with defect correction order = 8
MG DL_MG: Solver finished
MG Hartree energy from (\int phi*rho dr):              1432.014151
MG Hartree energy from (\int eps (grad phi)^2 dr):     1431.361548
MG Discrepancy due to finite box and discretization:     -0.652602 (  -0.04557%)
MG Correction to account for finite box:                  0.470551
MG Remaining discrepancy, due to discretization:         -0.182052 (  -0.01271%)
      ideal mu1:      -0.783740656395
             Q0:  -11605.109070357750
             G0:      -0.017315080146
   RMS gradient:       0.000020123379
MG BCs: +ve charge blocks (gridpoints):     30861 (   17274915).
MG BCs: -ve charge blocks (gridpoints):      8257 (    1103724).
MG BCs:     Elided blocks (gridpoints):    163046 (  172591986).
MG BCs: Computational effort saved:  99.9795%.
MG BCs: Charge after coarse-graining:           -9.0009908.
MG DL_MG: Calling solver with defect correction order = 8
MG DL_MG: Solver finished
MG Hartree energy from (\int phi*rho dr):              1432.632206
MG Hartree energy from (\int eps (grad phi)^2 dr):     1431.979652
MG Discrepancy due to finite box and discretization:     -0.652554 (  -0.04555%)
MG Correction to account for finite box:                  0.470527
MG Remaining discrepancy, due to discretization:         -0.182027 (  -0.01271%)
     Trial step:       0.576789984843
             Q1:  -11605.113401250681
 Quadratic coef:       0.005656271884
 Linear coef   :      -0.009987164815
           Qmin:  -11605.113478891459
Quadratic minimum step length (  0.509213202666) accepted
    Initial Ne1:    7228.00014845
      Final Ne1:    7228.00000000

=================== Penalty functional idempotency correction ==================
 RMS occupancy error at iteration   1:  0.000002 (step -0.5000 Ne1=   7228.0000)
            Final RMS occupancy error   :  0.000000 (Ne1=   7228.0000)
               Final occupancy bounds   : [  0.0000,  1.0000]
================================================================================

    7        -1.160510907036E+04     2.0123E-05     1.8205E-05    -1.1069E-02
MG BCs: +ve charge blocks (gridpoints):     30860 (   17274843).
MG BCs: -ve charge blocks (gridpoints):      8257 (    1103758).
MG BCs:     Elided blocks (gridpoints):    163047 (  172592024).
MG BCs: Computational effort saved:  99.9795%.
MG BCs: Charge after coarse-graining:           -9.0009908.
MG DL_MG: Calling solver with defect correction order = 8
MG DL_MG: Solver finished
MG Hartree energy from (\int phi*rho dr):              1432.559674
MG Hartree energy from (\int eps (grad phi)^2 dr):     1431.907114
MG Discrepancy due to finite box and discretization:     -0.652560 (  -0.04555%)
MG Correction to account for finite box:                  0.470530
MG Remaining discrepancy, due to discretization:         -0.182030 (  -0.01271%)
      ideal mu1:      -0.784064198253
             Q0:  -11605.113479117048
             G0:      -0.010178965708
   RMS gradient:       0.000015429952
MG BCs: +ve charge blocks (gridpoints):     30862 (   17274945).
MG BCs: -ve charge blocks (gridpoints):      8257 (    1103727).
MG BCs:     Elided blocks (gridpoints):    163045 (  172591953).
MG BCs: Computational effort saved:  99.9795%.
MG BCs: Charge after coarse-graining:           -9.0009909.
MG DL_MG: Calling solver with defect correction order = 8
MG DL_MG: Solver finished
MG Hartree energy from (\int phi*rho dr):              1432.639971
MG Hartree energy from (\int eps (grad phi)^2 dr):     1431.987455
MG Discrepancy due to finite box and discretization:     -0.652515 (  -0.04555%)
MG Correction to account for finite box:                  0.470515
MG Remaining discrepancy, due to discretization:         -0.182000 (  -0.01270%)
     Trial step:       0.541949329225
             Q1:  -11605.117626722553
 Quadratic coef:       0.001368878133
 Linear coef   :      -0.005516483638
           Qmin:  -11605.119036878363
Quadratic minimum step length (  1.092009045795) accepted
    Initial Ne1:    7228.00018596
      Final Ne1:    7228.00000000

=================== Penalty functional idempotency correction ==================
 RMS occupancy error at iteration   1:  0.000027 (step -0.4994 Ne1=   7228.0000)
            Final RMS occupancy error   :  0.000000 (Ne1=   7228.0000)
               Final occupancy bounds   : [ -0.0000,  1.0000]
================================================================================

    8        -1.160511347912E+04     1.5430E-05     1.3959E-05    -4.4088E-03
MG BCs: +ve charge blocks (gridpoints):     30861 (   17275019).
MG BCs: -ve charge blocks (gridpoints):      8258 (    1103696).
MG BCs:     Elided blocks (gridpoints):    163046 (  172591910).
MG BCs: Computational effort saved:  99.9795%.
MG BCs: Charge after coarse-graining:           -9.0009909.
MG DL_MG: Calling solver with defect correction order = 8
MG DL_MG: Solver finished
MG Hartree energy from (\int phi*rho dr):              1432.719205
MG Hartree energy from (\int eps (grad phi)^2 dr):     1432.066736
MG Discrepancy due to finite box and discretization:     -0.652469 (  -0.04554%)
MG Correction to account for finite box:                  0.470499
MG Remaining discrepancy, due to discretization:         -0.181970 (  -0.01270%)
      ideal mu1:      -0.784090944062
             Q0:  -11605.119022546802
             G0:      -0.015474330017
   RMS gradient:       0.000019070770
MG BCs: +ve charge blocks (gridpoints):     30859 (   17274887).
MG BCs: -ve charge blocks (gridpoints):      8258 (    1103824).
MG BCs:     Elided blocks (gridpoints):    163048 (  172591914).
MG BCs: Computational effort saved:  99.9795%.
MG BCs: Charge after coarse-graining:           -9.0009909.
MG DL_MG: Calling solver with defect correction order = 8
MG DL_MG: Solver finished
MG Hartree energy from (\int phi*rho dr):              1432.350541
MG Hartree energy from (\int eps (grad phi)^2 dr):     1431.698161
MG Discrepancy due to finite box and discretization:     -0.652380 (  -0.04555%)
MG Correction to account for finite box:                  0.470459
MG Remaining discrepancy, due to discretization:         -0.181921 (  -0.01270%)
     Trial step:       0.769294202420
             Q1:  -11605.126665933058
 Quadratic coef:       0.004260926113
 Linear coef   :      -0.011904312369
           Qmin:  -11605.127337209460
Quadratic minimum step length (  1.074639438336) accepted
    Initial Ne1:    7228.00050531
      Final Ne1:    7228.00000000

=================== Penalty functional idempotency correction ==================
 RMS occupancy error at iteration   1:  0.000166 (step -0.4960 Ne1=   7228.0000)
 RMS occupancy error at iteration   2:  0.000001 (step -0.5000 Ne1=   7228.0000)
            Final RMS occupancy error   :  0.000000 (Ne1=   7228.0000)
               Final occupancy bounds   : [  0.0000,  1.0000]
================================================================================

    9        -1.160511902255E+04     1.9071E-05     1.7253E-05    -5.5434E-03
MG BCs: +ve charge blocks (gridpoints):     30859 (   17274835).
MG BCs: -ve charge blocks (gridpoints):      8258 (    1103876).
MG BCs:     Elided blocks (gridpoints):    163048 (  172591914).
MG BCs: Computational effort saved:  99.9795%.
MG BCs: Charge after coarse-graining:           -9.0009909.
MG DL_MG: Calling solver with defect correction order = 8
MG DL_MG: Solver finished
MG Hartree energy from (\int phi*rho dr):              1432.199266
MG Hartree energy from (\int eps (grad phi)^2 dr):     1431.546924
MG Discrepancy due to finite box and discretization:     -0.652341 (  -0.04555%)
MG Correction to account for finite box:                  0.470441
MG Remaining discrepancy, due to discretization:         -0.181900 (  -0.01270%)
      ideal mu1:      -0.783539601157
   10        -1.160512724226E+04     2.2532E-05     2.0384E-05    -8.2197E-03
Finished density kernel iterations (  10)

Writing density kernel to file "complex_14161.vacuum_dkn" ... done


>>> Density kernel optimised for the current NGWF basis:
     ~~~~~~~~~~~~~~~~~~~~~~~~~~~~~~~~~~~~~~~~~~~~~~~~~~~~~~~~~~~
     Total energy                =  -1.16051272422554E+04  Eh
     Estimated bandgap           =  -2.8284E-01  Eh
     RMS occupancy error         =   1.6210E-11
     [H,K] commutator            =   2.0384E-05
     Occupancy bounds            = [  0.000:  1.000]
     ~~~~~~~~~~~~~~~~~~~~~~~~~~~~~~~~~~~~~~~~~~~~~~~~~~~~~~~~~~~




################################################################################
########################### NGWF CG iteration  001 #############################
################################################################################
****** Reciprocal space K.E. preconditioning with k_zero =  3.5000 a0^-1 *******

>>> Checking for convergence of NGWFs:   NOT CONVERGED
  ========================================================================
         NGWF RMS gradient =  1.5971E-03 >  2.0000E-06  | above tolerance
  ========================================================================

>>> Improving NGWFs using line search:
============ Calculation of NGWF S^-1 using Hotelling algorithm ================ 
         Iteration  |  Frobenius norm and Maximum abs value    (of I-S*S_n^-1)   
               1       0.19917125E+00     0.49987255E-02
               2       0.91377167E-03     0.39741708E-04
               3       0.32704305E-07     0.26700450E-08
               4       0.12694203E-12     0.62172489E-14
================================================================================
MG BCs: +ve charge blocks (gridpoints):     30372 (   17220765).
MG BCs: -ve charge blocks (gridpoints):      8268 (    1103580).
MG BCs:     Elided blocks (gridpoints):    163538 (  172646280).
MG BCs: Computational effort saved:  99.9798%.
MG BCs: Charge after coarse-graining:           -9.0009894.
MG DL_MG: Calling solver with defect correction order = 8
MG DL_MG: Solver finished
MG Hartree energy from (\int phi*rho dr):              1399.938860
MG Hartree energy from (\int eps (grad phi)^2 dr):     1399.287233
MG Discrepancy due to finite box and discretization:     -0.651626 (  -0.04655%)
MG Correction to account for finite box:                  0.470388
MG Remaining discrepancy, due to discretization:         -0.181238 (  -0.01295%)
============ Calculation of NGWF S^-1 using Hotelling algorithm ================ 
         Iteration  |  Frobenius norm and Maximum abs value    (of I-S*S_n^-1)   
               1       0.18781430E+01     0.40651677E-01
               2       0.73224790E-01     0.23772292E-02
               3       0.14977243E-03     0.96753630E-05
               4       0.11642855E-08     0.17061619E-09
               5       0.10973583E-12     0.55511151E-14
================================================================================
------------------------------- NGWF line search -------------------------------
RMS gradient                =       0.00159710317764
Trial step length           =               0.122474
Gradient along search dir.  =       -280.02066579100
Functional at step 0        =  -11605.12724225537386
Functional at step 1        =  -11636.80725497589447
Functional predicted        =  -11717.55602676994386
Selected quadratic step     =               0.803003
--------------------------- NGWF line search finished --------------------------
                                               
Writing NGWFs to file "complex_14161.vacuum_tightbox_ngwfs"....  done

>>> Optimising kernel for current NGWFs:
   Initial electron number for spin 1:    7263.50673411
     Final electron number for spin 1:    7228.00000000

=================== Penalty functional idempotency correction ==================
 RMS occupancy error at iteration   1:  0.004260 (step -0.4862 Ne1=   7228.0000)
 RMS occupancy error at iteration   2:  0.000069 (step -0.5003 Ne1=   7228.0000)
            Final RMS occupancy error   :  0.000000 (Ne1=   7228.0000)
               Final occupancy bounds   : [  0.0000,  1.0000]
================================================================================

................................................................................
<<<<<<<<<<<<<< LNV (Original version) density kernel optimisation >>>>>>>>>>>>>>
~~~~~~~~~~~~~~~~~~~~~~~~~~~~~~~~~~~~~~~~~~~~~~~~~~~~~~~~~~~~~~~~~~~~~~~~~~~~~~~~
   iter  |      energy (Eh)       | rms gradient |  commutator  |   dE (Eh)
MG BCs: +ve charge blocks (gridpoints):     24578 (   16967950).
MG BCs: -ve charge blocks (gridpoints):      8426 (    1086398).
MG BCs:     Elided blocks (gridpoints):    169336 (  172916277).
MG BCs: Computational effort saved:  99.9827%.
MG BCs: Charge after coarse-graining:           -9.0006687.
MG DL_MG: Calling solver with defect correction order = 8
MG DL_MG: Solver finished
MG Hartree energy from (\int phi*rho dr):              1243.675237
MG Hartree energy from (\int eps (grad phi)^2 dr):     1243.023190
MG Discrepancy due to finite box and discretization:     -0.652047 (  -0.05243%)
MG Correction to account for finite box:                  0.470137
MG Remaining discrepancy, due to discretization:         -0.181910 (  -0.01463%)
      ideal mu1:      -0.722337313782
             Q0:  -11716.587001075735
             G0:      -9.799621988244
   RMS gradient:       0.000478732955
MG BCs: +ve charge blocks (gridpoints):     24681 (   16997420).
MG BCs: -ve charge blocks (gridpoints):      8392 (    1077745).
MG BCs:     Elided blocks (gridpoints):    169233 (  172895460).
MG BCs: Computational effort saved:  99.9827%.
MG BCs: Charge after coarse-graining:           -9.0006619.
MG DL_MG: Calling solver with defect correction order = 8
MG DL_MG: Solver finished
MG Hartree energy from (\int phi*rho dr):              1270.571352
MG Hartree energy from (\int eps (grad phi)^2 dr):     1269.912268
MG Discrepancy due to finite box and discretization:     -0.659084 (  -0.05187%)
MG Correction to account for finite box:                  0.469896
MG Remaining discrepancy, due to discretization:         -0.189187 (  -0.01489%)
     Trial step:       0.909238081914
             Q1:  -11713.351505745435
 Quadratic coef:      12.145684830377
 Linear coef   :      -8.910189500077
           Qmin:  -11718.221150941223
Quadratic minimum step length (  0.333512837015) accepted
    Initial Ne1:    7227.99959219
      Final Ne1:    7228.00000000

=================== Penalty functional idempotency correction ==================
 RMS occupancy error at iteration   1:  0.000358 (step -0.4986 Ne1=   7228.0000)
 RMS occupancy error at iteration   2:  0.000000 (step -0.5000 Ne1=   7228.0000)
            Final RMS occupancy error   :  0.000000 (Ne1=   7228.0000)
               Final occupancy bounds   : [  0.0000,  1.0000]
================================================================================

    1        -1.171658700108E+04     4.7873E-04     4.3310E-04
MG BCs: +ve charge blocks (gridpoints):     24620 (   16978998).
MG BCs: -ve charge blocks (gridpoints):      8415 (    1083286).
MG BCs:     Elided blocks (gridpoints):    169294 (  172908341).
MG BCs: Computational effort saved:  99.9827%.
MG BCs: Charge after coarse-graining:           -9.0006660.
MG DL_MG: Calling solver with defect correction order = 8
MG DL_MG: Solver finished
MG Hartree energy from (\int phi*rho dr):              1252.149306
MG Hartree energy from (\int eps (grad phi)^2 dr):     1251.494809
MG Discrepancy due to finite box and discretization:     -0.654497 (  -0.05227%)
MG Correction to account for finite box:                  0.470028
MG Remaining discrepancy, due to discretization:         -0.184469 (  -0.01473%)
      ideal mu1:      -0.730631603407
             Q0:  -11718.180632409290
             G0:      -0.992675879179
   RMS gradient:       0.000153737504
MG BCs: +ve charge blocks (gridpoints):     24630 (   16980142).
MG BCs: -ve charge blocks (gridpoints):      8416 (    1083612).
MG BCs:     Elided blocks (gridpoints):    169284 (  172906871).
MG BCs: Computational effort saved:  99.9827%.
MG BCs: Charge after coarse-graining:           -9.0006657.
MG DL_MG: Calling solver with defect correction order = 8
MG DL_MG: Solver finished
MG Hartree energy from (\int phi*rho dr):              1254.068797
MG Hartree energy from (\int eps (grad phi)^2 dr):     1253.413969
MG Discrepancy due to finite box and discretization:     -0.654828 (  -0.05222%)
MG Correction to account for finite box:                  0.470050
MG Remaining discrepancy, due to discretization:         -0.184779 (  -0.01473%)
     Trial step:       0.550674651879
             Q1:  -11718.371090099798
 Quadratic coef:       0.356183753687
 Linear coef   :      -0.546641444195
           Qmin:  -11718.390367458558
Quadratic minimum step length (  0.422565015765) accepted
    Initial Ne1:    7227.99994670
      Final Ne1:    7228.00000000

=================== Penalty functional idempotency correction ==================
 RMS occupancy error at iteration   1:  0.000142 (step -0.4994 Ne1=   7228.0000)
            Final RMS occupancy error   :  0.000000 (Ne1=   7228.0000)
               Final occupancy bounds   : [ -0.0000,  1.0000]
================================================================================

    2        -1.171818063241E+04     1.5374E-04     1.3908E-04    -1.5936E+00
MG BCs: +ve charge blocks (gridpoints):     24627 (   16979847).
MG BCs: -ve charge blocks (gridpoints):      8417 (    1083566).
MG BCs:     Elided blocks (gridpoints):    169287 (  172907212).
MG BCs: Computational effort saved:  99.9827%.
MG BCs: Charge after coarse-graining:           -9.0006657.
MG DL_MG: Calling solver with defect correction order = 8
MG DL_MG: Solver finished
MG Hartree energy from (\int phi*rho dr):              1253.620902
MG Hartree energy from (\int eps (grad phi)^2 dr):     1252.966154
MG Discrepancy due to finite box and discretization:     -0.654748 (  -0.05223%)
MG Correction to account for finite box:                  0.470044
MG Remaining discrepancy, due to discretization:         -0.184704 (  -0.01473%)
      ideal mu1:      -0.731956954805
             Q0:  -11718.390876986203
             G0:      -0.154019451803
   RMS gradient:       0.000059949421
MG BCs: +ve charge blocks (gridpoints):     24626 (   16978951).
MG BCs: -ve charge blocks (gridpoints):      8417 (    1084049).
MG BCs:     Elided blocks (gridpoints):    169288 (  172907625).
MG BCs: Computational effort saved:  99.9827%.
MG BCs: Charge after coarse-graining:           -9.0006658.
MG DL_MG: Calling solver with defect correction order = 8
MG DL_MG: Solver finished
MG Hartree energy from (\int phi*rho dr):              1252.989970
MG Hartree energy from (\int eps (grad phi)^2 dr):     1252.335261
MG Discrepancy due to finite box and discretization:     -0.654708 (  -0.05225%)
MG Correction to account for finite box:                  0.470040
MG Remaining discrepancy, due to discretization:         -0.184668 (  -0.01474%)
     Trial step:       0.482385574984
             Q1:  -11718.438381451881
 Quadratic coef:       0.026792296139
 Linear coef   :      -0.074296761817
           Qmin:  -11718.442384411956
Quadratic minimum step length (  0.668843125317) accepted
    Initial Ne1:    7228.00063206
      Final Ne1:    7228.00000000

=================== Penalty functional idempotency correction ==================
 RMS occupancy error at iteration   1:  0.000066 (step -0.4998 Ne1=   7228.0000)
            Final RMS occupancy error   :  0.000000 (Ne1=   7228.0000)
               Final occupancy bounds   : [ -0.0000,  1.0000]
================================================================================

    3        -1.171839087699E+04     5.9949E-05     5.4235E-05    -2.1024E-01
MG BCs: +ve charge blocks (gridpoints):     24624 (   16978563).
MG BCs: -ve charge blocks (gridpoints):      8416 (    1084249).
MG BCs:     Elided blocks (gridpoints):    169290 (  172907813).
MG BCs: Computational effort saved:  99.9827%.
MG BCs: Charge after coarse-graining:           -9.0006659.
MG DL_MG: Calling solver with defect correction order = 8
MG DL_MG: Solver finished
MG Hartree energy from (\int phi*rho dr):              1252.746035
MG Hartree energy from (\int eps (grad phi)^2 dr):     1252.091341
MG Discrepancy due to finite box and discretization:     -0.654694 (  -0.05226%)
MG Correction to account for finite box:                  0.470039
MG Remaining discrepancy, due to discretization:         -0.184655 (  -0.01474%)
      ideal mu1:      -0.730878211907
             Q0:  -11718.442482203012
             G0:      -0.036573104127
   RMS gradient:       0.000029202308
MG BCs: +ve charge blocks (gridpoints):     24626 (   16978619).
MG BCs: -ve charge blocks (gridpoints):      8416 (    1084217).
MG BCs:     Elided blocks (gridpoints):    169288 (  172907789).
MG BCs: Computational effort saved:  99.9827%.
MG BCs: Charge after coarse-graining:           -9.0006659.
MG DL_MG: Calling solver with defect correction order = 8
MG DL_MG: Solver finished
MG Hartree energy from (\int phi*rho dr):              1252.859613
MG Hartree energy from (\int eps (grad phi)^2 dr):     1252.205019
MG Discrepancy due to finite box and discretization:     -0.654594 (  -0.05225%)
MG Correction to account for finite box:                  0.470044
MG Remaining discrepancy, due to discretization:         -0.184549 (  -0.01473%)
     Trial step:       0.568014326915
             Q1:  -11718.451577489264
 Quadratic coef:       0.011678760871
 Linear coef   :      -0.020774047124
           Qmin:  -11718.451720362751
Quadratic minimum step length (  0.505188714984) accepted
    Initial Ne1:    7228.00024073
      Final Ne1:    7228.00000000

=================== Penalty functional idempotency correction ==================
 RMS occupancy error at iteration   1:  0.000019 (step -0.4999 Ne1=   7228.0000)
            Final RMS occupancy error   :  0.000000 (Ne1=   7228.0000)
               Final occupancy bounds   : [ -0.0000,  1.0000]
================================================================================

    4        -1.171844248220E+04     2.9202E-05     2.6419E-05    -5.1605E-02
MG BCs: +ve charge blocks (gridpoints):     24626 (   16978610).
MG BCs: -ve charge blocks (gridpoints):      8416 (    1084216).
MG BCs:     Elided blocks (gridpoints):    169288 (  172907799).
MG BCs: Computational effort saved:  99.9827%.
MG BCs: Charge after coarse-graining:           -9.0006659.
MG DL_MG: Calling solver with defect correction order = 8
MG DL_MG: Solver finished
MG Hartree energy from (\int phi*rho dr):              1252.846857
MG Hartree energy from (\int eps (grad phi)^2 dr):     1252.192253
MG Discrepancy due to finite box and discretization:     -0.654605 (  -0.05225%)
MG Correction to account for finite box:                  0.470044
MG Remaining discrepancy, due to discretization:         -0.184561 (  -0.01473%)
      ideal mu1:      -0.730924619979
             Q0:  -11718.451725577586
             G0:      -0.012341652247
   RMS gradient:       0.000016985371
MG BCs: +ve charge blocks (gridpoints):     24625 (   16979133).
MG BCs: -ve charge blocks (gridpoints):      8415 (    1084016).
MG BCs:     Elided blocks (gridpoints):    169289 (  172907476).
MG BCs: Computational effort saved:  99.9827%.
MG BCs: Charge after coarse-graining:           -9.0006658.
MG DL_MG: Calling solver with defect correction order = 8
MG DL_MG: Solver finished
MG Hartree energy from (\int phi*rho dr):              1253.258505
MG Hartree energy from (\int eps (grad phi)^2 dr):     1252.603947
MG Discrepancy due to finite box and discretization:     -0.654559 (  -0.05223%)
MG Correction to account for finite box:                  0.470033
MG Remaining discrepancy, due to discretization:         -0.184526 (  -0.01472%)
     Trial step:       0.535681274553
             Q1:  -11718.455225580256
 Quadratic coef:       0.003111189337
 Linear coef   :      -0.006611192006
           Qmin:  -11718.455237728005
Quadratic minimum step length (  0.569154007762) accepted
    Initial Ne1:    7228.00010643
      Final Ne1:    7228.00000000

=================== Penalty functional idempotency correction ==================
 RMS occupancy error at iteration   1:  0.000010 (step -0.4999 Ne1=   7228.0000)
            Final RMS occupancy error   :  0.000000 (Ne1=   7228.0000)
               Final occupancy bounds   : [ -0.0000,  1.0000]
================================================================================

    5        -1.171845172558E+04     1.6985E-05     1.5366E-05    -9.2434E-03
MG BCs: +ve charge blocks (gridpoints):     24625 (   16979153).
MG BCs: -ve charge blocks (gridpoints):      8415 (    1084010).
MG BCs:     Elided blocks (gridpoints):    169289 (  172907462).
MG BCs: Computational effort saved:  99.9827%.
MG BCs: Charge after coarse-graining:           -9.0006658.
MG DL_MG: Calling solver with defect correction order = 8
MG DL_MG: Solver finished
MG Hartree energy from (\int phi*rho dr):              1253.284253
MG Hartree energy from (\int eps (grad phi)^2 dr):     1252.629698
MG Discrepancy due to finite box and discretization:     -0.654556 (  -0.05223%)
MG Correction to account for finite box:                  0.470032
MG Remaining discrepancy, due to discretization:         -0.184523 (  -0.01472%)
      ideal mu1:      -0.731293946268
             Q0:  -11718.455238902126
             G0:      -0.004073873882
   RMS gradient:       0.000009759180
MG BCs: +ve charge blocks (gridpoints):     24624 (   16979089).
MG BCs: -ve charge blocks (gridpoints):      8415 (    1084045).
MG BCs:     Elided blocks (gridpoints):    169290 (  172907491).
MG BCs: Computational effort saved:  99.9827%.
MG BCs: Charge after coarse-graining:           -9.0006658.
MG DL_MG: Calling solver with defect correction order = 8
MG DL_MG: Solver finished
MG Hartree energy from (\int phi*rho dr):              1253.204542
MG Hartree energy from (\int eps (grad phi)^2 dr):     1252.549996
MG Discrepancy due to finite box and discretization:     -0.654546 (  -0.05223%)
MG Correction to account for finite box:                  0.470026
MG Remaining discrepancy, due to discretization:         -0.184521 (  -0.01472%)
     Trial step:       0.552164055598
             Q1:  -11718.456679671304
 Quadratic coef:       0.000808677547
 Linear coef   :      -0.002249446725
           Qmin:  -11718.456803187726
Quadratic minimum step length (  0.767959757894) accepted
    Initial Ne1:    7228.00006403
      Final Ne1:    7228.00000000

=================== Penalty functional idempotency correction ==================
 RMS occupancy error at iteration   1:  0.000009 (step -0.4998 Ne1=   7228.0000)
            Final RMS occupancy error   :  0.000000 (Ne1=   7228.0000)
               Final occupancy bounds   : [ -0.0000,  1.0000]
================================================================================

    6        -1.171845523890E+04     9.7592E-06     8.8289E-06    -3.5133E-03
MG BCs: +ve charge blocks (gridpoints):     24624 (   16979060).
MG BCs: -ve charge blocks (gridpoints):      8415 (    1084066).
MG BCs:     Elided blocks (gridpoints):    169290 (  172907499).
MG BCs: Computational effort saved:  99.9827%.
MG BCs: Charge after coarse-graining:           -9.0006658.
MG DL_MG: Calling solver with defect correction order = 8
MG DL_MG: Solver finished
MG Hartree energy from (\int phi*rho dr):              1253.173319
MG Hartree energy from (\int eps (grad phi)^2 dr):     1252.518777
MG Discrepancy due to finite box and discretization:     -0.654542 (  -0.05223%)
MG Correction to account for finite box:                  0.470023
MG Remaining discrepancy, due to discretization:         -0.184519 (  -0.01472%)
      ideal mu1:      -0.731218448927
             Q0:  -11718.456803008565
             G0:      -0.002698468310
   RMS gradient:       0.000007944148
MG BCs: +ve charge blocks (gridpoints):     24624 (   16978906).
MG BCs: -ve charge blocks (gridpoints):      8415 (    1084113).
MG BCs:     Elided blocks (gridpoints):    169290 (  172907606).
MG BCs: Computational effort saved:  99.9827%.
MG BCs: Charge after coarse-graining:           -9.0006658.
MG DL_MG: Calling solver with defect correction order = 8
MG DL_MG: Solver finished
MG Hartree energy from (\int phi*rho dr):              1253.114562
MG Hartree energy from (\int eps (grad phi)^2 dr):     1252.460009
MG Discrepancy due to finite box and discretization:     -0.654552 (  -0.05223%)
MG Correction to account for finite box:                  0.470024
MG Remaining discrepancy, due to discretization:         -0.184528 (  -0.01473%)
     Trial step:       0.651183364695
             Q1:  -11718.457386102527
 Quadratic coef:       0.001174103711
 Linear coef   :      -0.001757197674
           Qmin:  -11718.457460476819
Quadratic minimum step length (  0.487289957091) accepted
    Initial Ne1:    7228.00003843
      Final Ne1:    7228.00000000

=================== Penalty functional idempotency correction ==================
 RMS occupancy error at iteration   1:  0.000001 (step -0.5000 Ne1=   7228.0000)
            Final RMS occupancy error   :  0.000000 (Ne1=   7228.0000)
               Final occupancy bounds   : [  0.0000,  1.0000]
================================================================================

    7        -1.171845680301E+04     7.9441E-06     7.1869E-06    -1.5641E-03
MG BCs: +ve charge blocks (gridpoints):     24624 (   16978959).
MG BCs: -ve charge blocks (gridpoints):      8415 (    1084084).
MG BCs:     Elided blocks (gridpoints):    169290 (  172907582).
MG BCs: Computational effort saved:  99.9827%.
MG BCs: Charge after coarse-graining:           -9.0006658.
MG DL_MG: Calling solver with defect correction order = 8
MG DL_MG: Solver finished
MG Hartree energy from (\int phi*rho dr):              1253.129288
MG Hartree energy from (\int eps (grad phi)^2 dr):     1252.474738
MG Discrepancy due to finite box and discretization:     -0.654550 (  -0.05223%)
MG Correction to account for finite box:                  0.470024
MG Remaining discrepancy, due to discretization:         -0.184526 (  -0.01473%)
      ideal mu1:      -0.731126821952
             Q0:  -11718.457460460835
             G0:      -0.001770902239
   RMS gradient:       0.000006435460
MG BCs: +ve charge blocks (gridpoints):     24625 (   16978938).
MG BCs: -ve charge blocks (gridpoints):      8415 (    1084091).
MG BCs:     Elided blocks (gridpoints):    169289 (  172907596).
MG BCs: Computational effort saved:  99.9827%.
MG BCs: Charge after coarse-graining:           -9.0006658.
MG DL_MG: Calling solver with defect correction order = 8
MG DL_MG: Solver finished
MG Hartree energy from (\int phi*rho dr):              1253.091608
MG Hartree energy from (\int eps (grad phi)^2 dr):     1252.437054
MG Discrepancy due to finite box and discretization:     -0.654554 (  -0.05224%)
MG Correction to account for finite box:                  0.470020
MG Remaining discrepancy, due to discretization:         -0.184534 (  -0.01473%)
     Trial step:       0.563307299651
             Q1:  -11718.458258004859
 Quadratic coef:       0.000200018134
 Linear coef   :      -0.000997562158
           Qmin:  -11718.458704260884
Quadratic minimum step length (  1.404707749393) accepted
    Initial Ne1:    7228.00007252
      Final Ne1:    7228.00000000

=================== Penalty functional idempotency correction ==================
 RMS occupancy error at iteration   1:  0.000020 (step -0.4986 Ne1=   7228.0000)
            Final RMS occupancy error   :  0.000000 (Ne1=   7228.0000)
               Final occupancy bounds   : [ -0.0000,  1.0000]
================================================================================

    8        -1.171845746046E+04     6.4355E-06     5.8220E-06    -6.5745E-04
MG BCs: +ve charge blocks (gridpoints):     24625 (   16978879).
[...]
MG Hartree energy from (\int phi*rho dr):              1209.469500
MG Hartree energy from (\int eps (grad phi)^2 dr):     1209.279485
MG Discrepancy due to finite box and discretization:     -0.190015 (  -0.01571%)
MG Correction to account for finite box:                  0.006466
MG Remaining discrepancy, due to discretization:         -0.183548 (  -0.01518%)
             Q2:  -11752.235049064620
  Cubic LS coeff:       0.773012807851
Predicted energy:  -11752.235049064640
Cubic minimum step length accepted
    Initial Ne1:    7228.00000000
      Final Ne1:    7228.00000000

=================== Penalty functional idempotency correction ==================
 RMS occupancy error at iteration   1:  0.000000 (step -0.5000 Ne1=   7228.0000)
            Final RMS occupancy error   :  0.000000 (Ne1=   7228.0000)
               Final occupancy bounds   : [ -0.0000,  1.0000]
================================================================================

    7        -1.175223504906E+04     8.3271E-09     7.5333E-09    -1.2806E-09

Reusing previously generated solute cavity.
MG BCs: +ve charge blocks (gridpoints):     28586 (   19124787).
MG BCs: -ve charge blocks (gridpoints):      8396 (    1053476).
MG BCs:     Elided blocks (gridpoints):    165328 (  170792362).
MG BCs: Computational effort saved:  99.9806%.
MG BCs: Charge after coarse-graining:           -9.0009546.
MG DL_MG: Calling solver with defect correction order = 8
MG DL_MG: Solver finished
MG Hartree energy from (\int phi*rho dr):              1209.469496
MG Hartree energy from (\int eps (grad phi)^2 dr):     1209.279481
MG Discrepancy due to finite box and discretization:     -0.190015 (  -0.01571%)
MG Correction to account for finite box:                  0.006466
MG Remaining discrepancy, due to discretization:         -0.183548 (  -0.01518%)
      ideal mu1:      -0.484643490926
             Q0:  -11752.235049064853
             G0:      -0.000000002422
   RMS gradient:       0.000000006203

Reusing previously generated solute cavity.
MG BCs: +ve charge blocks (gridpoints):     28586 (   19124788).
MG BCs: -ve charge blocks (gridpoints):      8396 (    1053476).
MG BCs:     Elided blocks (gridpoints):    165328 (  170792361).
MG BCs: Computational effort saved:  99.9806%.
MG BCs: Charge after coarse-graining:           -9.0009546.
MG DL_MG: Calling solver with defect correction order = 8
MG DL_MG: Solver finished
MG Hartree energy from (\int phi*rho dr):              1209.469481
MG Hartree energy from (\int eps (grad phi)^2 dr):     1209.279466
MG Discrepancy due to finite box and discretization:     -0.190015 (  -0.01571%)
MG Correction to account for finite box:                  0.006466
MG Remaining discrepancy, due to discretization:         -0.183548 (  -0.01518%)
     Trial step:       0.524929283504
             Q1:  -11752.235049065319
 Quadratic coef:       0.000000000806
 Linear coef   :      -0.000000001272
           Qmin:  -11752.235049065355
Quadratic minimum step length (  0.414175626522) accepted
    Initial Ne1:    7228.00000000
      Final Ne1:    7228.00000000

=================== Penalty functional idempotency correction ==================
 RMS occupancy error at iteration   1:  0.000000 (step -0.5000 Ne1=   7228.0000)
            Final RMS occupancy error   :  0.000000 (Ne1=   7228.0000)
               Final occupancy bounds   : [ -0.0000,  1.0000]
================================================================================

    8        -1.175223504906E+04     6.2035E-09     5.6121E-09    -2.6776E-09

Reusing previously generated solute cavity.
MG BCs: +ve charge blocks (gridpoints):     28586 (   19124788).
MG BCs: -ve charge blocks (gridpoints):      8396 (    1053476).
MG BCs:     Elided blocks (gridpoints):    165328 (  170792361).
MG BCs: Computational effort saved:  99.9806%.
MG BCs: Charge after coarse-graining:           -9.0009546.
MG DL_MG: Calling solver with defect correction order = 8
MG DL_MG: Solver finished
MG Hartree energy from (\int phi*rho dr):              1209.469484
MG Hartree energy from (\int eps (grad phi)^2 dr):     1209.279469
MG Discrepancy due to finite box and discretization:     -0.190015 (  -0.01571%)
MG Correction to account for finite box:                  0.006466
MG Remaining discrepancy, due to discretization:         -0.183548 (  -0.01518%)
      ideal mu1:      -0.484643482553
             Q0:  -11752.235049065319
             G0:      -0.000000001641
   RMS gradient:       0.000000004379

Reusing previously generated solute cavity.
MG BCs: +ve charge blocks (gridpoints):     28586 (   19124788).
MG BCs: -ve charge blocks (gridpoints):      8396 (    1053476).
MG BCs:     Elided blocks (gridpoints):    165328 (  170792361).
MG BCs: Computational effort saved:  99.9806%.
MG BCs: Charge after coarse-graining:           -9.0009546.
MG DL_MG: Calling solver with defect correction order = 8
MG DL_MG: Solver finished
MG Hartree energy from (\int phi*rho dr):              1209.469486
MG Hartree energy from (\int eps (grad phi)^2 dr):     1209.279471
MG Discrepancy due to finite box and discretization:     -0.190015 (  -0.01571%)
MG Correction to account for finite box:                  0.006466
MG Remaining discrepancy, due to discretization:         -0.183548 (  -0.01518%)
     Trial step:       0.466275578253
             Q1:  -11752.235049065319
 Quadratic coef:       0.000000000766
 Linear coef   :      -0.000000000765
           Qmin:  -11752.235049065510
Quadratic minimum step length (  0.232990674351) accepted
    Initial Ne1:    7228.00000000
      Final Ne1:    7228.00000000

=================== Penalty functional idempotency correction ==================
 RMS occupancy error at iteration   1:  0.000000 (step -0.5000 Ne1=   7228.0000)
            Final RMS occupancy error   :  0.000000 (Ne1=   7228.0000)
               Final occupancy bounds   : [  0.0000,  1.0000]
================================================================================

    9        -1.175223504907E+04     4.3786E-09     3.9612E-09    -4.6566E-10

Reusing previously generated solute cavity.
MG BCs: +ve charge blocks (gridpoints):     28586 (   19124788).
MG BCs: -ve charge blocks (gridpoints):      8396 (    1053476).
MG BCs:     Elided blocks (gridpoints):    165328 (  170792361).
MG BCs: Computational effort saved:  99.9806%.
MG BCs: Charge after coarse-graining:           -9.0009546.
MG DL_MG: Calling solver with defect correction order = 8
MG DL_MG: Solver finished
MG Hartree energy from (\int phi*rho dr):              1209.469485
MG Hartree energy from (\int eps (grad phi)^2 dr):     1209.279470
MG Discrepancy due to finite box and discretization:     -0.190015 (  -0.01571%)
MG Correction to account for finite box:                  0.006466
MG Remaining discrepancy, due to discretization:         -0.183548 (  -0.01518%)
      ideal mu1:      -0.484643482357
   10        -1.175223504907E+04     3.7013E-09     3.3485E-09    -1.1642E-10
Finished density kernel iterations (  10)

Writing density kernel to file "complex_14161.dkn" ... done


>>> Density kernel optimised for the current NGWF basis:
     ~~~~~~~~~~~~~~~~~~~~~~~~~~~~~~~~~~~~~~~~~~~~~~~~~~~~~~~~~~~
     Total energy                =  -1.17522350490654E+04  Eh
     Estimated bandgap           =   9.4078E-02  Eh
     RMS occupancy error         =   3.6131E-16
     [H,K] commutator            =   3.3485E-09
     Occupancy bounds            = [ -0.000:  1.000]
     ~~~~~~~~~~~~~~~~~~~~~~~~~~~~~~~~~~~~~~~~~~~~~~~~~~~~~~~~~~~




################################################################################
########################### NGWF CG iteration  004 #############################
################################################################################
****** Reciprocal space K.E. preconditioning with k_zero =  3.5000 a0^-1 *******

>>> Checking for convergence of NGWFs: 
           ........................................................
           |         *** NGWF optimisation converged ***          |
           | RMS NGWF gradient =    0.00000197683480              |
           | Criteria satisfied:                                  |
           | -> RMS NGWF gradient lower than set threshold.       |
           ========================================================

Reusing previously generated solute cavity.
MG BCs: +ve charge blocks (gridpoints):     28586 (   19124788).
MG BCs: -ve charge blocks (gridpoints):      8396 (    1053476).
MG BCs:     Elided blocks (gridpoints):    165328 (  170792361).
MG BCs: Computational effort saved:  99.9806%.
MG BCs: Charge after coarse-graining:           -9.0009546.
MG DL_MG: Calling solver with defect correction order = 8
MG DL_MG: Solver finished
MG Hartree energy from (\int phi*rho dr):              1209.469485
MG Hartree energy from (\int eps (grad phi)^2 dr):     1209.279470
MG Discrepancy due to finite box and discretization:     -0.190015 (  -0.01571%)
MG Correction to account for finite box:                  0.006466
MG Remaining discrepancy, due to discretization:         -0.183548 (  -0.01518%)

================================================================================
           ---------------- ENERGY COMPONENTS (Eh) ----------------
           | Kinetic                    :     8597.87374989541422 |
           | Pseudo. (local,OBC,corr'd) :    -5094.94271751907127 |
           | Pseudopotential (non-local):     1410.70954683121545 |
           | Hartree (molecular)        :     1209.46948483006940 |
           | Exchange-correlation       :    -3398.24250778130636 |
           | Ion-ion (open BC)          :   839079.03610250260681 |
           | Smeared ion non-self corr. :  -839030.79108649562113 |
           | Smeared ion self corr.     :   -14525.98710726666468 |
           | Solvent cavitation energy  :        2.27514342442712 |
           | Solute-solvent dis-rep en. :       -1.63565748640627 |
           | Total                      :   -11752.23504906530616 |
           --------------------------------------------------------
           ------ LOCAL ENERGY COMPONENTS FROM MATRIX TRACES ------
           | Pseudopotential (local)    :    -5094.94271751907490 |
           | Hartree                    :    -2009.67583694494897 |
           --------------------------------------------------------
           Integrated density           :     7227.99999999896318
           Integrated density tr(KS)    :     7228.00000000000000
================================================================================


                        <<<<< CALCULATION SUMMARY >>>>>                         
|ITER|    RMS GRADIENT   |     TOTAL ENERGY    |   step   |     Epredicted              
   0     0.00003961080607 -11752.17388094624039   0.614762 -11752.22682640754647        
   1     0.00000994487005 -11752.23447936645243   0.087755 -11752.23495575898596        
   2     0.00000440993287 -11752.23502935096622   0.016218 -11752.23504666348526        
   3     0.00000197683480 -11752.23504906543531  <-- CG                                 

=================== Finished the calculation in solvent ========================
= Adjusting the following parameters: 
= read_denskern: F
= read_tightbox_ngwfs: F
= maxit_pen: 0 (restored to user-specified value)
= restart read filename prefix: ""
= restart write filename prefix: ""
================================================================================

================================================================================
IS: Calculation in solvent completed (NGWFs converged).      

Individual components of total energy in solvent:     hartree           kcal/mol
- Usual non-electrostatic DFT terms:    -12962.34401983352654    -8133993.502043
- Electrostatic fixed charge energy:      1209.46948483006940      758953.543856
- Apolar cavitation energy:                  2.27514342442712        1427.674023
- Apolar dispersion-repulsion energy:       -1.63565748640627       -1026.390547
 -------------------------------------------------------------------------------
- Total energy in solvent:              -11752.23504906543531    -7374638.674711

Components of total energy in solvent:                hartree           kcal/mol
- Usual non-electrostatic DFT terms:    -12962.34401983352654    -8133993.502043
- Electrostatic energy:                   1209.46948483006940      758953.543856
- Apolar energy terms:                       0.63948593802085         401.283476
 -------------------------------------------------------------------------------
- Total energy in solvent:              -11752.23504906543531    -7374638.674711

Calculation of free energy of solvation:              hartree           kcal/mol
- Total energy in solvent:         (+)  -11752.23504906543531    -7374638.674711
- Total energy in vacuum:          (-)  -11748.28342175250873    -7372158.991188
 -------------------------------------------------------------------------------
- Total free energy of solvation:           -3.95162731292658       -2479.683523

Components of polar term in f.e. of solvation:        hartree           kcal/mol
- Electrostatic:                            -4.63183493274255       -2906.520240
- Change in nonelectrostatic DFT terms:      0.04072168179482          25.553241
 -------------------------------------------------------------------------------
- Polar term in f.e. of solvation:          -4.59111325094773       -2880.966999

Components of free energy of solvation:               hartree           kcal/mol
- Polar term in f.e. of solvation: (+)      -4.59111325094773       -2880.966999
- Apolar (cavitation, dis., rep.): (+)       0.63948593802085         401.283476
 -------------------------------------------------------------------------------
- Total free energy of solvation:           -3.95162731292688       -2479.683523
================================================================================


------------------------------ TIMING INFORMATION ------------------------------
AVERAGE TIME:   40226.359s on     60 node(s)                                    
TOTAL TIME:     40226.359s on     60 node(s)                                    
================= AVERAGE TIMINGS FROM ALL NODES (CUMULATIVE) ==================
|| TAG                                    #calls    cpu time   %total  Gflops ||
|| work_imbalance                       :     1        0.00s   0.000%  ------ ||
|| sparse_set_to_garbage                :   206        0.04s   0.000%  ------ ||
|| parallel_prepare_fd_halos_request    :  2193        0.04s   0.000%  ------ ||
|| ngwfs_initialise_from_radial         :     1        0.11s   0.000%  ------ ||
|| parallel_prepare_fd_halos_alloc      :  2193        0.15s   0.000%  ------ ||
|| basis_extract_function_from_box      :  4032        0.18s   0.000%  ------ ||
|| parallel_prepare_fd_halos_satisfy    :  2193        0.74s   0.002%  ------ ||
|| pseudopotentials_nonlocal_mat        :    35        2.81s   0.007%  ------ ||
|| openbc_locps_radial                  :     1        3.11s   0.008%  ------ ||
|| density_init_guess_real              :     1        5.09s   0.013%  ------ ||
|| restart_kernel_read                  :     1        5.85s   0.015%  ------ ||
|| restart_ngwfs_tightbox_input         :     1        6.94s   0.017%  ------ ||
|| parallel_prepare_fd_halos_comms_imbal:  2193       11.86s   0.029%  ------ ||
|| parallel_prepare_fd_halos_clear      :  2193       21.06s   0.052%  ------ ||
|| sparse_init                          :     2       22.48s   0.056%  ------ ||
|| parallel_prepare_fd_halos_comms_wait :  2193       25.90s   0.064%  ------ ||
|| projectors_func_ovlp_box             :    35       31.61s   0.079%  ------ ||
|| palser_mano_kernel_optimise          :     1       34.66s   0.086%  ------ ||
|| function_ops_brappd_ketppd           :    35       34.83s   0.087%  ------ ||
|| projectors_init_fftbox_recip         :   161       39.66s   0.099%  ------ ||
|| basis_copy_function_to_box           : 65825       50.62s   0.126%  ------ ||
|| pseudo_make_structure_factor         :     2       51.86s   0.129%  ------ ||
|| ngwf_gradient_coeffs                 :    18       55.61s   0.138%  ------ ||
|| parallel_prepare_fd_halos            :  2193       59.77s   0.149%  ------ ||
|| fourier_apply_box_pair               :  5847       61.51s   0.153% 586.207 ||
|| sparse_embed_hotelling_invert_embed  :    35       85.86s   0.213%  ------ ||
|| restart_kernel_write                 :    19      132.37s   0.329%  ------ ||
|| integrals_kinetic                    :    35      176.54s   0.439%  ------ ||
|| finite_difference_derivative         :  2193      178.04s   0.443%  ------ ||
|| basis_dot_function_with_box          : 10.11M     203.29s   0.505%  ------ ||
|| projectors_gradient_batch            :   126      203.51s   0.506%  ------ ||
|| sparse_trace                         :  5760      216.53s   0.538%  ------ ||
|| openbc_locps_on_grid                 :     2      261.87s   0.651%  ------ ||
|| kernel_purify                        :   558      336.86s   0.837%  ------ ||
|| basis_add_function_to_box            : 21.16M     480.95s   1.196%  ------ ||
|| lnv_gradient_norm                    :   180      481.70s   1.197%  ------ ||
|| kernel_fix                           :   180      547.27s   1.360%  ------ ||
|| hamiltonian_energy_components        :     4      553.71s   1.376%  ------ ||
|| integrals_locpot_mat_els_batch       :  1323      835.87s   2.078%  ------ ||
|| ngwf_gradient_build_batch            :   126      891.01s   2.215%  ------ ||
|| ngwf_gradient_batch                  :   126     1224.75s   3.045%  ------ ||
|| density_batch_row_sums               :  2548     1285.89s   3.197%  ------ ||
|| ngwf_gradient_lnv                    :    18     1372.26s   3.411%  ------ ||
|| restart_ngwfs_tightbox_output        :    16     1551.13s   3.856%  ------ ||
|| cell_grid_deposit_box_real           : 41912     1599.51s   3.976%  ------ ||
|| fourier_apply_cell_forward           : 10221     1640.50s   4.078%  83.669 ||
|| fourier_apply_cell_backward          : 10953     1836.24s   4.565%  80.103 ||
|| cell_grid_extract_box_real           : 45747     1924.24s   4.784%  ------ ||
|| sparse_product                       :  7341     2040.43s   5.072%  ------ ||
|| density_fftbox_deposit_to_cell       : 39676     2389.50s   5.940%  ------ ||
|| potential_apply_to_ngwf_batch        :  1323     4362.62s  10.845%  ------ ||
|| density_fftbox_interpolate_multiply  : 39676     4400.53s  10.939%  ------ ||
|| xc_energy_potential                  :   365     4529.95s  11.261%  ------ ||
|| multigrid_prepare_bound_cond         :   365     5165.30s  12.841%  ------ ||
|| integrals_locpot_dbl_grid            :   189     5218.35s  12.972%  ------ ||
|| fourier_apply_box                    : 137.4k    5403.32s  13.432% 759.301 ||
|| nlxc_vdw_energy                      :   730     7331.88s  18.227%  ------ ||
|| density_batch_interp_deposit         :  2548     7899.18s  19.637%  ------ ||
|| dl_mg_solver_calls                   :   365     8656.48s  21.519%  ------ ||
|| density_on_dbl_grid                  :   364     9533.29s  23.699%  ------ ||
|| multigrid_calculate_hartree          :   365    14054.83s  34.939%  ------ ||
|| hamiltonian_lhxc_calculate           :   360    28008.73s  69.628%  ------ ||
|| lnv_denskernel_optimise_cg           :    18    33977.37s  84.465%  ------ ||
|| ngwf_cg_optimise                     :     2    39240.08s  97.548%  ------ ||
|| total_time                           :     1    40226.36s 100.000%  ------ ||
================================================================================
Overhead of generating timer report: 
- 0 ms averaging over threads,
- 15 ms ensuring consistency across MPI ranks,
- 0 ms printing in order.

Job completed: 06-02-2020 00:18 (-0000)

Application 38856598 resources: utime ~7937572s, stime ~274762s, Rss ~3892452, inblocks ~387987531, outblocks ~77026064
