 +---------------------------------------------------------------+
 |                                                               |
 |        ####### #     # ####### ####### ####### ######         |
 |        #     # ##    # #          #    #       #     #        |
 |        #     # # #   # #          #    #       #     #        |
 |        #     # #  #  # #####      #    #####   ######         |
 |        #     # #   # # #          #    #       #              |
 |        #     # #    ## #          #    #       #              |
 |        ####### #     # #######    #    ####### #              |
 |                                                               |
 |        Linear-Scaling Ab Initio Total Energy Program          |
 |                                                               |
 |          Release for academic collaborators of ODG            |
 |                                             Version 5.3.2.6.  |
 |                                                               |
 +---------------------------------------------------------------+
 |                                                               |
 |  Authors:                                                     |
 |  Jacek Dziedzic, Peter D. Haynes, Nicholas D. M. Hine,        |
 |  Arash. A. Mostofi, Mike C. Payne and Chris-Kriton Skylaris   |
 |                                                               |
 |  Contributors:                                                |
 |  J. Aarons, L. Andrinopoulos, P. W. Avraam, R. A. Bell,       |
 |  A. Bhandari, G. A. Bramley, R. J. Charlton, S. J. Clark,     |
 |  R. J. Clements, G. C. Constantinescu, F. Corsetti,           |
 |  N. Corsini, O. Dieguez, S. M. M. Dubois, K. K. B. Duff,      |
 |  J. M. Escartin, A. Greco, H. Helal, Q. O. Hill, L. P. Lee,   |
 |  J.-H. Li, E. B. Linscott, G. Moynihan, D. D. O`Regan,        |
 |  O. K. Okan, M. J. S. Phipps, C. J. Pickard,                  |
 |  J. C. A. Prentice, M. I. J. Probert, L. E. Ratcliff,         |
 |  M. Robinson, A. Ruiz Serrano, J. S. Spencer, E. W. Tait,     |
 |  G. Teobaldi, D. Turban, V. Vitale, K. A. Wilkinson,          |
 |  C. Weber, J. C. Womack, N. Yeung and T. J. Zuehlsdorff       |
 |                                                               |
 |                                   Copyright (c) 2004-2019     |
 |                                                               |
 |  Please cite:                                                 |
 |  "Introducing ONETEP: Linear-scaling density functional       |
 |   simulations on parallel computers".                         |
 |   C.-K. Skylaris, P. D. Haynes, A. A. Mostofi, M. C. Payne.   |
 |   J. Chem. Phys. 122 084119 (2005).                           |
 |                                                               |
 |          in all publications arising from your use of ONETEP. |
 |                                                               |
 +---------------------------------------------------------------+
 |                                                               |
 |   ONETEP is based on developments described in the following  |
 |   publications:                                               |
 |                                                               |
 |  "Nonorthogonal generalized Wannier function pseudopotential  |
 |   plane-wave method".                                         |
 |   C.-K. Skylaris, A. A. Mostofi, P. D. Haynes, O. Dieguez,    |
 |   M. C. Payne.                                                |
 |   Phys. Rev. B 66 035119 (2002).                              |
 |                                                               |
 |  "Preconditioned iterative minimization for linear-scaling    |
 |   electronic structure calculations".                         |
 |   A. A. Mostofi, P. D. Haynes, C.-K. Skylaris, M. C. Payne.   |
 |   J. Chem. Phys. 119(17), pp.8842-8848 (2003).                |
 |                                                               |
 |  "Total-energy calculations on a real space grid with         |
 |   localized functions and a plane-wave basis".                |
 |   A. A. Mostofi, C.-K. Skylaris, P. D. Haynes, M. C. Payne.   |
 |   Comput. Phys. Commun. 147, pp.788-802 (2002).               |
 |                                                               |
 |  "Accurate kinetic energy evaluation in electronic structure  |
 |   calculations with localized functions on real space grids"  |
 |   C.-K. Skylaris, A. A. Mostofi, P. D. Haynes, C. J. Pickard, |
 |   M. C. Payne.                                                |
 |   Comput. Phys. Commun. 140, pp.315-322 (2001).               |
 |                                                               |
 |  "Accurate ionic forces and geometry optimization in linear-  |
 |   scaling density-functional theory with local orbitals"      |
 |   N. D. M. Hine, M. Robinson, P. D. Haynes, C.-K. Skylaris,   |
 |   M. C. Payne, and A. A. Mostofi.                             |
 |   Phys. Rev. B 83 195102 (2011).                              |
 |                                                               |
 +---------------------------------------------------------------+

Job started: 18-01-2020 21:33 (-0000)
 
Reading parameters from file "complex_5801.dat" ...... done

If your calculation crashes here, before "Checking processes and threads..."
is displayed, then your stack size is insufficient.
If so, use "ulimit -s unlimited" at runtime.
You can disable this check with "check_stack_size F".

Checking processes and threads...
   Determining the default number of threads...
      No default threads set at compilation time: defaulting to 1.
      OpenMP library call suggests 4 threads.
      Hybrid MPI-OpenMP compilation detected.
      Number of MPI processes > 1.
      OMP_NUM_THREADS environment variable present and
      its value matches the one obtained from the OpenMP library call.
      Using this value as default.
      Default threads: 4
      Default applies to threads_max and threads_num_fftboxes.
      Settings in the input file override this default.
   ... done

   Running with 60 MPI processes.
   There are 6 MPI processes running on the same node as the root process.
   Each MPI process is using: 
               1 threads for simulation cell FFTs.
               1 threads for parallel FFT box operations.
               4 threads for loops over batched FFT box operations.
               4 threads in other parallel regions.
... done

Basic input checks...... done

Reading geometry and species blocks from file "complex_5801.dat" ...
  <species_atomic_set> block not found: NGWF initialisation set to SOLVE
IS: Dielectric excluded regions:
    - NONE.
    
  Number of PPD points along a3 set to 1.  This is 
  the default value, it may have been provided also in the input file.
... done
 Writing xyz coordinates to file "complex_5801.xyz" ... done


--------------------------------------------------------------------------------
---------------------------------- INPUT FILE ----------------------------------
--------------------------------------------------------------------------------

cutoff_energy       : 800 eV                                                    
xc_functional VV10                                                              
task SINGLEPOINT                                                                
write_xyz true                                                                  
output_detail VERBOSE                                                           
ngwf_threshold_orig : 0.000002                                                  
kernel_cutoff       : 1000                                                      
k_zero              : 3.5                                                       
elec_cg_max 0                                                                   
occ_mix 1.0                                                                     
dispersion 0                                                                    
maxit_ngwf_cg 40                                                                
minit_lnv 10                                                                    
maxit_lnv 10                                                                    
write_denskern T                                                                
write_tightbox_ngwfs T                                                          
charge 9                                                                        
is_implicit_solvent T                                                           
is_auto_solvation T                                                             
is_include_apolar T                                                             
is_smeared_ion_rep T                                                            
is_solvent_surf_tension 4.7624E-5 Ha/bohr**2                                    
is_apolar_scaling_factor 0.281075                                               
is_solvation_beta 1.3                                                           
is_density_threshold 0.00035                                                    
is_bulk_permittivity 78.54                                                      
is_dielectric_model fix_initial                                                 
is_smeared_ion_width 0.8                                                        
mg_defco_fd_order 8                                                             
is_bc_coarseness 10                                                             
is_bc_surface_coarseness 1                                                      
fine_grid_scale 2.0                                                             
%block species                                                                  
N   N   7 4 8.0                                                                 
H   H   1 1 8.0                                                                 
C   C   6 4 8.0                                                                 
S   S  16 9 8.0                                                                 
O   O   8 4 8.0                                                                 
%endblock species                                                               
%block species_pot                                                              
N   N_00.recpot                                                                 
H   H_04.recpot                                                                 
C   C_01.recpot                                                                 
S   S_00.recpot                                                                 
O   O_02.recpot                                                                 
%endblock species_pot                                                           
%block lattice_cart                                                             
135.996   0.000   0.000                                                         
0.000 142.663   0.000                                                           
0.000   0.000   160.158                                                         
%endblock lattice_cart                                                          
%block positions_abs                                                            
     Hash =  -000005596785761632758827
%endblock positions_abs                                                         

--------------------------------------------------------------------------------
-------------------------------- END INPUT FILE --------------------------------
--------------------------------------------------------------------------------


 
 ESDF WARNING(1): "kernelcutoff" (esdf_physical) has no units. Assume "bohr".
 ESDF WARNING(2): "kzero" (esdf_physical) has no units. Assume "1/bohr".
 ESDF WARNING(3
 ): "issmearedionwidth" (esdf_physical) has no units. Assume "bohr".
<<<<<<<<<<<<<<<<<<<<<<<<<<<<<<<<< Full system >>>>>>>>>>>>>>>>>>>>>>>>>>>>>>>>>>
<<<<<<<<<<<<<<<<<<<<<<<<< Pseudopotential information >>>>>>>>>>>>>>>>>>>>>>>>>>
File: N_00.recpot [ 2001 points up to Gmax=  52.9 (1/bohr)]
  Atomic number:  7;  ionic charge:  5.000000
    Shell 1: l = 0; rc = 1.48 bohr
File: H_04.recpot [ 2001 points up to Gmax=  52.9 (1/bohr)]
  Atomic number:  1;  ionic charge:  1.000000
    Local potential
File: C_01.recpot [ 2001 points up to Gmax=  52.9 (1/bohr)]
  Atomic number:  6;  ionic charge:  4.000000
    Shell 1: l = 0; rc = 1.48 bohr
File: S_00.recpot [ 2001 points up to Gmax=  52.9 (1/bohr)]
  Atomic number: 16;  ionic charge:  6.000000
    Shell 1: l = 0; rc = 1.90 bohr
    Shell 2: l = 2; rc = 1.84 bohr
File: O_02.recpot [ 2001 points up to Gmax=  52.9 (1/bohr)]
  Atomic number:  8;  ionic charge:  6.000000
    Shell 1: l = 0; rc = 1.31 bohr
<<<<<<<<<<<<<<<<<<<<<<<<<<<<<<<<<<<<<<<<>>>>>>>>>>>>>>>>>>>>>>>>>>>>>>>>>>>>>>>>

-------------------------- Atom counting information ---------------------------
Symbol    Natoms    Nngwfs    Nprojs
  N        236       944       236
  H       1317      1317         0
  C        816      3264       816
  S          6        54        36
  O        240       960       240
.......   ......    ......    ......
Totals:   2615      6539      1328
--------------------------------------------------------------------------------

=============================== PSINC grid sizes ===============================
                      Simulation cell:  270 x 286 x 315
                              FFT-box:   99 x 105 x  99
                                  PPD:    5 x  11 x   1
Grid space d1=  0.503688888889a0 (KE cutoff=  29.94189Eh = 814.76038eV)
Grid space d2=  0.498821678322a0 (KE cutoff=  30.52906Eh = 830.73786eV)
Grid space d3=  0.508438095238a0 (KE cutoff=  29.38514Eh = 799.61048eV)
================================================================================

********************* Fourier parallelisation information **********************
       Coarse grid (whole simulation cell) dimensions:    270   286   315
          Real-space ('12') slabs/node (min max mean):      5     6     5
         Recip-space ('23') slabs/node (min max mean):      2     3     2
********************************************************************************

********************* Fourier parallelisation information **********************
       Double grid (whole simulation cell) dimensions:    540   572   630
          Real-space ('12') slabs/node (min max mean):     10    11    10
         Recip-space ('23') slabs/node (min max mean):      4     5     4
********************************************************************************
ONETEP fine grid is 540 x 572 x 630 gridpoints, 135.9960 x 142.6630 x 160.1580 bohr.
FD multigrid is     537 x 569 x 625 gridpoints, 135.2405 x 141.9148 x 158.8869 bohr.


Calculating local pseudopotential in open BC on a radial grid ...
Discrepancy between calculated realspace psloc and -Z/x on [5a0,253.965a0]:
max |rel. diff| # avg |rel. diff| #  avg rel. diff #  f # pseudopotential file
 0.000259282084    0.000004141996   0.000000074978   54  'N_00.recpot'
 0.000405386992    0.000016970607  -0.000000075982   54  'H_04.recpot'
 0.000371694516    0.000017434762   0.000000149329   54  'C_01.recpot'
 0.000461642895    0.000020341726   0.000000491514   54  'S_00.recpot'
 0.000682525123    0.000027368244   0.000000159803   54  'O_02.recpot'
... done

Atom SCF Calculation for N  : Z (AE atom) =   7 : Z (PS atom) =   5
Config String:
Orbitals (num,occ):  2     2.00 3.00
Orbitals   (num,l):  2        0    1
Real-space Grid (nr,dr,rmax): 1203    0.0066555740    8.0000000000
Spherical Bessel Basis (nsws,lmax,cutoff):   47    1  176.3951722778
Confining potential (l,width,scale):  0    3.0000000000  100.0000000000
Confining potential (l,width,scale):  1    3.0000000000  100.0000000000
  1         -4.7366890484   -3.4501654188    7.0523828109   -1.9619316308
  2         -9.7225420322   -2.0763080851    8.3068355706   -2.2908832437
  3         -9.7134243553   -2.1270543915    8.2534567806   -2.2819809971
  4         -9.7235185949   -2.1427582218    8.2369947390   -2.2802814234
  5         -9.7258373845   -2.1477905863    8.2317116314   -2.2798536235
  6         -9.7268932325   -2.1503512400    8.2290229806   -2.2796830099
  7         -9.7273189469   -2.1516634231    8.2276451699   -2.2796169657
  8         -9.7274675212   -2.1523365544    8.2269384796   -2.2795940092
  9         -9.7275041773   -2.1526817003    8.2265762312   -2.2795881371
 10         -9.7275008637   -2.1528585007    8.2263907413   -2.2795884060
 11         -9.7274868305   -2.1529489544    8.2262958841   -2.2795903922
 12         -9.7274755655   -2.1529859230    8.2262571347   -2.2795920452
 13         -9.7274662327   -2.1530083995    8.2262335832   -2.2795934369
 14         -9.7274589439   -2.1530220534    8.2262192809   -2.2795945372
 15         -9.7274534633   -2.1530303399    8.2262106039   -2.2795953734
 16         -9.7274494492   -2.1530353634    8.2262053452   -2.2795959920
 17         -9.7274465654   -2.1530384053    8.2262021621   -2.2795964406
 18         -9.7274445237   -2.1530402447    8.2262002378   -2.2795967611
 19         -9.7274430947   -2.1530413553    8.2261990762   -2.2795969874
 20         -9.7274421038   -2.1530420249    8.2261983762   -2.2795971458
 21         -9.7274414219   -2.1530424277    8.2261979551   -2.2795972557
 22         -9.7274409555   -2.1530426696    8.2261977024   -2.2795973315
 23         -9.7274406382   -2.1530428144    8.2261975510   -2.2795973835
 24         -9.7274404232   -2.1530429010    8.2261974606   -2.2795974190
 25         -9.7274402783   -2.1530429525    8.2261974067   -2.2795974432
 26         -9.7274401808   -2.1530429831    8.2261973748   -2.2795974596
Atom SCF converged after  26 iterations to a total energy of     -9.72744018

Atom SCF Calculation for H  : Z (AE atom) =   1 : Z (PS atom) =   1
Config String:
Orbitals (num,occ):  1     1.00
Orbitals   (num,l):  1        0
Real-space Grid (nr,dr,rmax): 1203    0.0066555740    8.0000000000
Spherical Bessel Basis (nsws,lmax,cutoff):   47    0  176.3951722778
Confining potential (l,width,scale):  0    3.0000000000  100.0000000000
  1         -0.3178661827   -0.2469879004    0.2820953124   -0.2487802071
  2         -0.3961824611   -0.2455070831    0.2902209900   -0.2567664324
  3         -0.4406462424   -0.2424227551    0.2948173255   -0.2622129794
  4         -0.4569739054   -0.2416771342    0.2960118236   -0.2639986016
  5         -0.4627745219   -0.2416114401    0.2961916694   -0.2644992007
  6         -0.4648634749   -0.2416666130    0.2961598921   -0.2646237065
  7         -0.4656347011   -0.2417155160    0.2961132802   -0.2646490719
  8         -0.4659271144   -0.2417438448    0.2960836537   -0.2646515522
  9         -0.4660407254   -0.2417580788    0.2960682004   -0.2646501482
 10         -0.4660857867   -0.2417647566    0.2960608087   -0.2646488305
 11         -0.4661039568   -0.2417677717    0.2960574330   -0.2646480606
 12         -0.4661113773   -0.2417691018    0.2960559329   -0.2646476727
 13         -0.4661144368   -0.2417696800    0.2960552775   -0.2646474903
 14         -0.4661157072   -0.2417699291    0.2960549942   -0.2646474079
 15         -0.4661162374   -0.2417700356    0.2960548727   -0.2646473715
 16         -0.4661164596   -0.2417700810    0.2960548208   -0.2646473556
 17         -0.4661165529   -0.2417701003    0.2960547987   -0.2646473488
Atom SCF converged after  17 iterations to a total energy of     -0.46611655

Atom SCF Calculation for C  : Z (AE atom) =   6 : Z (PS atom) =   4
Config String:
Orbitals (num,occ):  2     2.00 2.00
Orbitals   (num,l):  2        0    1
Real-space Grid (nr,dr,rmax): 1203    0.0066555740    8.0000000000
Spherical Bessel Basis (nsws,lmax,cutoff):   47    1  176.3951722778
Confining potential (l,width,scale):  0    3.0000000000  100.0000000000
Confining potential (l,width,scale):  1    3.0000000000  100.0000000000
  1         -5.2812238291   -1.3293161250    4.5135249990   -1.4716766231
  2         -5.3996591362   -1.3542148509    4.4876064308   -1.4645117417
  3         -5.4111847148   -1.3757224423    4.4645718036   -1.4593107263
  4         -5.4199203659   -1.3833334895    4.4563636676   -1.4579885221
  5         -5.4226876204   -1.3865104950    4.4529090432   -1.4575385943
  6         -5.4235070726   -1.3878131251    4.4514866831   -1.4573882877
  7         -5.4237271252   -1.3883401868    4.4509094528   -1.4573411661
  8         -5.4237693051   -1.3885521813    4.4506766230   -1.4573281030
  9         -5.4237656430   -1.3886371046    4.4505830704   -1.4573255254
 10         -5.4237547927   -1.3886709976    4.4505456041   -1.4573257244
 11         -5.4237478594   -1.3886817763    4.4505336403   -1.4573262476
 12         -5.4237429748   -1.3886873440    4.4505274417   -1.4573266921
 13         -5.4237397042   -1.3886902144    4.4505242350   -1.4573270222
 14         -5.4237375865   -1.3886916908    4.4505225792   -1.4573272507
 15         -5.4237362473   -1.3886924482    4.4505217259   -1.4573274021
 16         -5.4237354152   -1.3886928356    4.4505212873   -1.4573274996
 17         -5.4237349050   -1.3886930331    4.4505210623   -1.4573275610
 18         -5.4237345954   -1.3886931333    4.4505209473   -1.4573275991
 19         -5.4237344092   -1.3886931840    4.4505208887   -1.4573276224
 20         -5.4237342980   -1.3886932094    4.4505208590   -1.4573276366
 21         -5.4237342320   -1.3886932221    4.4505208440   -1.4573276451
Atom SCF converged after  21 iterations to a total energy of     -5.42373423

Atom SCF Calculation for S  : Z (AE atom) =  16 : Z (PS atom) =   6
Config String:
Orbitals (num,occ):  3     2.00 4.00 0.00
Orbitals   (num,l):  3        0    1    2
Real-space Grid (nr,dr,rmax): 1203    0.0066555740    8.0000000000
Spherical Bessel Basis (nsws,lmax,cutoff):   47    2  176.3951722778
Confining potential (l,width,scale):  0    3.0000000000  100.0000000000
Confining potential (l,width,scale):  1    3.0000000000  100.0000000000
Confining potential (l,width,scale):  2    3.0000000000  100.0000000000
  1        -12.4916237786   -1.0485914554   10.1554312477   -2.4822447765
  2         -9.9747083603   -2.4807597367    8.3138131863   -2.0618837268
  3        -10.1811370131   -2.3153496392    8.4906092179   -2.1137756843
  4        -10.1856385898   -2.2984912006    8.5093862195   -2.1218167101
  5        -10.1891317560   -2.2894783333    8.5195006030   -2.1261392389
  6        -10.1911142562   -2.2849160124    8.5246320974   -2.1283733378
  7        -10.1921506977   -2.2826473329    8.5271859473   -2.1295140514
  8        -10.1926851273   -2.2815219985    8.5284534218   -2.1300957983
  9        -10.1929632671   -2.2809620806    8.5290843811   -2.1303933136
 10        -10.1931100895   -2.2806822783    8.5293998452   -2.1305460626
 11        -10.1931885828   -2.2805418782    8.5295582201   -2.1306248009
 12        -10.1932309625   -2.2804711729    8.5296380158   -2.1306655459
 13        -10.1932540142   -2.2804354512    8.5296783476   -2.1306867097
 14        -10.1932666242   -2.2804173494    8.5296987927   -2.1306977435
 15        -10.1932735535   -2.2804081489    8.5297091868   -2.1307035175
 16        -10.1932773756   -2.2804034581    8.5297144867   -2.1307065505
 17        -10.1932794908   -2.2804010586    8.5297171976   -2.1307081499
 18        -10.1932806648   -2.2803998268    8.5297185890   -2.1307089965
 19        -10.1932813181   -2.2803991920    8.5297193057   -2.1307094466
 20        -10.1932816826   -2.2803988634    8.5297196763   -2.1307096867
 21        -10.1932818864   -2.2803986926    8.5297198688   -2.1307098154
 22        -10.1932820006   -2.2803986034    8.5297199692   -2.1307098847
 23        -10.1932820648   -2.2803985565    8.5297200219   -2.1307099221
Atom SCF converged after  23 iterations to a total energy of    -10.19328206

Atom SCF Calculation for O  : Z (AE atom) =   8 : Z (PS atom) =   6
Config String:
Orbitals (num,occ):  2     2.00 4.00
Orbitals   (num,l):  2        0    1
Real-space Grid (nr,dr,rmax): 1203    0.0066555740    8.0000000000
Spherical Bessel Basis (nsws,lmax,cutoff):   47    1  176.3951722778
Confining potential (l,width,scale):  0    3.0000000000  100.0000000000
Confining potential (l,width,scale):  1    3.0000000000  100.0000000000
  1         -1.9497477053   -7.5870966769   10.1554312477   -2.4822447765
  2        -15.9466298225   -3.1778351734   13.6353006614   -3.2931224232
  3        -16.0387051750   -3.0909030611   13.7305651010   -3.3194522996
  4        -15.9025031450   -3.1083023605   13.7128101414   -3.3180850501
  5        -15.8912953362   -3.1033022259   13.7185404266   -3.3206942093
  6        -15.8793912992   -3.1043100674   13.7175820250   -3.3209366960
  7        -15.8748748605   -3.1043975610   13.7175531476   -3.3211845618
  8        -15.8725354084   -3.1044655610   13.7175148333   -3.3213149154
  9        -15.8713193866   -3.1045129589   13.7174824743   -3.3213832909
 10        -15.8706863385   -3.1045436851   13.7174593895   -3.3214192053
 11        -15.8703562731   -3.1045627330   13.7174442347   -3.3214381098
 12        -15.8701839150   -3.1045741887   13.7174347673   -3.3214480859
 13        -15.8700937727   -3.1045809294   13.7174290448   -3.3214533647
 14        -15.8700465571   -3.1045848305   13.7174256662   -3.3214561658
 15        -15.8700217888   -3.1045870593   13.7174237063   -3.3214576563
 16        -15.8700087767   -3.1045883194   13.7174225849   -3.3214584516
 17        -15.8700019307   -3.1045890258   13.7174219502   -3.3214588771
 18        -15.8699983237   -3.1045894190   13.7174215942   -3.3214591053
 19        -15.8699964206   -3.1045896366   13.7174213960   -3.3214592281
 20        -15.8699954151   -3.1045897563   13.7174212864   -3.3214592942
 21        -15.8699948832   -3.1045898219   13.7174212260   -3.3214593299
 22        -15.8699946014   -3.1045898577   13.7174211930   -3.3214593493
 23        -15.8699944520   -3.1045898771   13.7174211750   -3.3214593597
 24        -15.8699943726   -3.1045898877   13.7174211652   -3.3214593654
Atom SCF converged after  24 iterations to a total energy of    -15.86999437

========================== Calculation in vacuum ==============================
= Adjusting the following parameters: 
= is_implicit_solvent: F
= is_include_apolar: F
= write_denskern: T
= write_tightbox_ngwfs: T
= restart read filename prefix: ""
= restart write filename prefix: "vacuum_"
===============================================================================

Determining parallel strategy ...
... using space-filling curve
... NGWF load balancing: max    109;  min    108;  average    109
... Projector load balancing: max     26;  min     21;  average     22
... done
Calculating direct Ion-Ion energy ...
Ion-Ion Energy        :    833611.02670927671716
Basis initialisation ...... NGWF spheres initialised
... Projector spheres initialised
... NGWF tight boxes initialised
... Tight-boxes gathered
... NGWF basis size (local,global):    1039439  62506729
... Nonlocal pseudopotential projector initialisation
... done

========================== Sparse matrix information ===========================
                        Overlap matrix filling:   6.73%
                        Density kernel filling: 100.00%
              NGWF-Proj overlap matrix filling:   1.76%
                    Hamiltonian matrix filling:   7.59%
                  NGWF diagonal matrix filling:   0.05%
                             KS matrix filling: 100.00% 
                           KSKS matrix filling: 100.00% 
================================================================================

Sparse matrix initialisation ... done

Generating smeared ion density ... done
Smeared ion self correction:     -14525.987107
Smeared ion non-self correction: -833562.665455
NGWF initialisation ...... done
============ Calculation of NGWF S^-1 using Hotelling algorithm ================ 
         Iteration  |  Frobenius norm and Maximum abs value    (of I-S*S_n^-1)   
               1       0.78732655E+02     0.98294141E+00
               2       0.76908042E+02     0.96636501E+00
               3       0.73936881E+02     0.93454046E+00
               4       0.69686874E+02     0.87554421E+00
               5       0.64371681E+02     0.77249624E+00
               6       0.58388927E+02     0.70347811E+00
               7       0.52360249E+02     0.67356447E+00
               8       0.46786742E+02     0.64784237E+00
               9       0.40733259E+02     0.60736390E+00
              10       0.32507451E+02     0.53741609E+00
              11       0.21958931E+02     0.42414258E+00
              12       0.11325102E+02     0.27906350E+00
              13       0.38032703E+01     0.13496867E+00
              14       0.62738484E+00     0.36754854E-01
              15       0.34264825E-01     0.35731261E-02
              16       0.28343073E-03     0.46063094E-04
              17       0.43295593E-07     0.90881204E-08
              18       0.97194224E-13     0.45519144E-14
================================================================================
Calculating local pseudopotential in open BC on the fine real space grid ...
... done

MG BCs: +ve charge blocks (gridpoints):     20622 (   16203682).
MG BCs: -ve charge blocks (gridpoints):      8100 (    1090043).
MG BCs:     Elided blocks (gridpoints):    173292 (  173676900).
MG BCs: Computational effort saved:  99.9850%.
MG BCs: Charge after coarse-graining:           -9.0002331.
MG DL_MG: Calling solver with defect correction order = 8
MG DL_MG: Solver finished
MG Hartree energy from (\int phi*rho dr):              1460.574676
MG Hartree energy from (\int eps (grad phi)^2 dr):     1459.953172
MG Discrepancy due to finite box and discretization:     -0.621504 (  -0.04255%)
MG Correction to account for finite box:                  0.466952
MG Remaining discrepancy, due to discretization:         -0.154552 (  -0.01058%)
Up spin density kernel initialisation ... 
======= Optimisation of K by Palser-Manolopoulos canonical purification ======== 
         Iteration  |  Band structure energy |    c_n   
               1       -2584.35263425620269    0.5273067
               2       -2761.15864648025217    0.5176177
               3       -2942.66200655256671    0.5161728
               4       -3094.38780418152464    0.5301758
               5       -3187.78103667013875    0.5667892
               6       -3226.90644315826239    0.6120466
               7       -3240.26672020878050    0.6235432
               8       -3246.11516346390817    0.6212359
               9       -3248.98087589518764    0.6333257
              10       -3250.18429541847581    0.6580487
              11       -3250.65200720931898    0.6814817
              12       -3250.84611413515813    0.6734653
              13       -3250.94866101588832    0.6377230
              14       -3251.01068637933395    0.6165377
              15       -3251.04076311295012    0.6142610
              16       -3251.05246406603828    0.5838726
              17       -3251.05797308760748    0.5588990
              18       -3251.06042218450193    0.5548035
              19       -3251.06143435751574    0.5366570
              20       -3251.06193267410163    0.5099161
              21       -3251.06213909878170    0.5006531
              22       -3251.06217182396858    0.5000027
              23       -3251.06217257745902    0.5000206
              24       -3251.06217257786511    0.5000206
Termination criterion satisfied: band energy change below threshold.
Final occupancy bounds: [    0.00000000000000:    1.00000000000000]
Closest occupancy to 0.5:     1.00000000000000
================================================================================
... done

Writing density kernel to file "complex_5801.vacuum_dkn" ... done

>>> Optimising kernel for current NGWFs:
   Initial electron number for spin 1:    7228.00000000
     Final electron number for spin 1:    7228.00000000

=================== Penalty functional idempotency correction ==================
 RMS occupancy error at iteration   1:  0.000000 (step -0.5000 Ne1=   7228.0000)
            Final RMS occupancy error   :  0.000000 (Ne1=   7228.0000)
               Final occupancy bounds   : [  0.0000,  1.0000]
================================================================================

................................................................................
<<<<<<<<<<<<<< LNV (Original version) density kernel optimisation >>>>>>>>>>>>>>
~~~~~~~~~~~~~~~~~~~~~~~~~~~~~~~~~~~~~~~~~~~~~~~~~~~~~~~~~~~~~~~~~~~~~~~~~~~~~~~~
   iter  |      energy (Eh)       | rms gradient |  commutator  |   dE (Eh)
MG BCs: +ve charge blocks (gridpoints):     31135 (   17342372).
MG BCs: -ve charge blocks (gridpoints):      8431 (    1119193).
MG BCs:     Elided blocks (gridpoints):    162770 (  172509060).
MG BCs: Computational effort saved:  99.9793%.
MG BCs: Charge after coarse-graining:           -9.0009871.
MG DL_MG: Calling solver with defect correction order = 8
MG DL_MG: Solver finished
MG Hartree energy from (\int phi*rho dr):              1424.767980
MG Hartree energy from (\int eps (grad phi)^2 dr):     1424.092975
MG Discrepancy due to finite box and discretization:     -0.675005 (  -0.04738%)
MG Correction to account for finite box:                  0.477208
MG Remaining discrepancy, due to discretization:         -0.197796 (  -0.01388%)
      ideal mu1:      -0.703760817139
             Q0:  -11577.217361794435
             G0:    -149.487934485842
   RMS gradient:       0.001869785266
MG BCs: +ve charge blocks (gridpoints):     31180 (   17420292).
MG BCs: -ve charge blocks (gridpoints):      8343 (    1102175).
MG BCs:     Elided blocks (gridpoints):    162724 (  172448158).
MG BCs: Computational effort saved:  99.9793%.
MG BCs: Charge after coarse-graining:           -9.0010103.
MG DL_MG: Calling solver with defect correction order = 8
MG DL_MG: Solver finished
MG Hartree energy from (\int phi*rho dr):              1444.198954
MG Hartree energy from (\int eps (grad phi)^2 dr):     1443.540329
MG Discrepancy due to finite box and discretization:     -0.658625 (  -0.04560%)
MG Correction to account for finite box:                  0.477482
MG Remaining discrepancy, due to discretization:         -0.181143 (  -0.01254%)
     Trial step:       0.500000000000
             Q1:  -11589.024086972000
 Quadratic coef:      62.937242065356
 Linear coef   :     -74.743967242921
           Qmin:  -11599.408756173496
Quadratic minimum step length (  0.296898802641) accepted
    Initial Ne1:    7228.00000000
      Final Ne1:    7228.00000000

=================== Penalty functional idempotency correction ==================
 RMS occupancy error at iteration   1:  0.003560 (step -0.4878 Ne1=   7228.0000)
 RMS occupancy error at iteration   2:  0.000029 (step -0.5001 Ne1=   7228.0000)
            Final RMS occupancy error   :  0.000000 (Ne1=   7228.0000)
               Final occupancy bounds   : [  0.0000,  1.0000]
================================================================================

    1        -1.157721736179E+04     1.8698E-03     1.6916E-03
MG BCs: +ve charge blocks (gridpoints):     31166 (   17389647).
MG BCs: -ve charge blocks (gridpoints):      8381 (    1109707).
MG BCs:     Elided blocks (gridpoints):    162738 (  172471271).
MG BCs: Computational effort saved:  99.9793%.
MG BCs: Charge after coarse-graining:           -9.0010009.
MG DL_MG: Calling solver with defect correction order = 8
MG DL_MG: Solver finished
MG Hartree energy from (\int phi*rho dr):              1428.084425
MG Hartree energy from (\int eps (grad phi)^2 dr):     1427.420150
MG Discrepancy due to finite box and discretization:     -0.664274 (  -0.04652%)
MG Correction to account for finite box:                  0.477271
MG Remaining discrepancy, due to discretization:         -0.187003 (  -0.01309%)
      ideal mu1:      -0.746041583729
             Q0:  -11599.857807944412
             G0:     -12.448660267208
   RMS gradient:       0.000535651035
MG BCs: +ve charge blocks (gridpoints):     31159 (   17405901).
MG BCs: -ve charge blocks (gridpoints):      8366 (    1105091).
MG BCs:     Elided blocks (gridpoints):    162743 (  172459633).
MG BCs: Computational effort saved:  99.9793%.
MG BCs: Charge after coarse-graining:           -9.0010049.
MG DL_MG: Calling solver with defect correction order = 8
MG DL_MG: Solver finished
MG Hartree energy from (\int phi*rho dr):              1432.282267
MG Hartree energy from (\int eps (grad phi)^2 dr):     1431.621829
MG Discrepancy due to finite box and discretization:     -0.660438 (  -0.04611%)
MG Correction to account for finite box:                  0.476727
MG Remaining discrepancy, due to discretization:         -0.183710 (  -0.01283%)
     Trial step:       0.385291320069
             Q1:  -11602.800731758936
 Quadratic coef:       1.853436932919
 Linear coef   :      -4.796360747443
           Qmin:  -11602.960837242445
Quadratic minimum step length (  0.498532248680) accepted
    Initial Ne1:    7227.99988252
      Final Ne1:    7228.00000000

=================== Penalty functional idempotency correction ==================
 RMS occupancy error at iteration   1:  0.001923 (step -0.4925 Ne1=   7228.0000)
 RMS occupancy error at iteration   2:  0.000013 (step -0.5002 Ne1=   7228.0000)
            Final RMS occupancy error   :  0.000000 (Ne1=   7228.0000)
               Final occupancy bounds   : [  0.0000,  1.0000]
================================================================================

    2        -1.159985780794E+04     5.3565E-04     4.8459E-04    -2.2640E+01
MG BCs: +ve charge blocks (gridpoints):     31168 (   17410794).
MG BCs: -ve charge blocks (gridpoints):      8360 (    1103792).
MG BCs:     Elided blocks (gridpoints):    162734 (  172456039).
MG BCs: Computational effort saved:  99.9793%.
MG BCs: Charge after coarse-graining:           -9.0010060.
MG DL_MG: Calling solver with defect correction order = 8
MG DL_MG: Solver finished
MG Hartree energy from (\int phi*rho dr):              1433.566711
MG Hartree energy from (\int eps (grad phi)^2 dr):     1432.907318
MG Discrepancy due to finite box and discretization:     -0.659394 (  -0.04600%)
MG Correction to account for finite box:                  0.476581
MG Remaining discrepancy, due to discretization:         -0.182812 (  -0.01275%)
      ideal mu1:      -0.769702572079
             Q0:  -11603.000782499788
             G0:      -2.029962342966
   RMS gradient:       0.000216500709
MG BCs: +ve charge blocks (gridpoints):     31176 (   17410457).
MG BCs: -ve charge blocks (gridpoints):      8365 (    1104553).
MG BCs:     Elided blocks (gridpoints):    162726 (  172455615).
MG BCs: Computational effort saved:  99.9793%.
MG BCs: Charge after coarse-graining:           -9.0010057.
MG DL_MG: Calling solver with defect correction order = 8
MG DL_MG: Solver finished
MG Hartree energy from (\int phi*rho dr):              1431.860005
MG Hartree energy from (\int eps (grad phi)^2 dr):     1431.201119
MG Discrepancy due to finite box and discretization:     -0.658886 (  -0.04602%)
MG Correction to account for finite box:                  0.476237
MG Remaining discrepancy, due to discretization:         -0.182649 (  -0.01276%)
     Trial step:       0.438269492654
             Q1:  -11603.529172237031
 Quadratic coef:       0.361280828914
 Linear coef   :      -0.889670566158
           Qmin:  -11603.548496115443
Quadratic minimum step length (  0.539629336035) accepted
    Initial Ne1:    7227.99991657
      Final Ne1:    7228.00000000

=================== Penalty functional idempotency correction ==================
 RMS occupancy error at iteration   1:  0.000723 (step -0.4956 Ne1=   7228.0000)
 RMS occupancy error at iteration   2:  0.000007 (step -0.5005 Ne1=   7228.0000)
            Final RMS occupancy error   :  0.000000 (Ne1=   7228.0000)
               Final occupancy bounds   : [  0.0000,  1.0000]
================================================================================

    3        -1.160300078250E+04     2.1650E-04     1.9586E-04    -3.1430E+00
MG BCs: +ve charge blocks (gridpoints):     31177 (   17410324).
MG BCs: -ve charge blocks (gridpoints):      8368 (    1104793).
MG BCs:     Elided blocks (gridpoints):    162725 (  172455508).
MG BCs: Computational effort saved:  99.9793%.
MG BCs: Charge after coarse-graining:           -9.0010056.
MG DL_MG: Calling solver with defect correction order = 8
MG DL_MG: Solver finished
MG Hartree energy from (\int phi*rho dr):              1431.473527
MG Hartree energy from (\int eps (grad phi)^2 dr):     1430.814745
MG Discrepancy due to finite box and discretization:     -0.658782 (  -0.04602%)
MG Correction to account for finite box:                  0.476159
MG Remaining discrepancy, due to discretization:         -0.182624 (  -0.01276%)
      ideal mu1:      -0.771094524633
             Q0:  -11603.554017921095
             G0:      -0.616078959352
   RMS gradient:       0.000119373257
MG BCs: +ve charge blocks (gridpoints):     31175 (   17411347).
MG BCs: -ve charge blocks (gridpoints):      8362 (    1104584).
MG BCs:     Elided blocks (gridpoints):    162727 (  172454694).
MG BCs: Computational effort saved:  99.9793%.
MG BCs: Charge after coarse-graining:           -9.0010060.
MG DL_MG: Calling solver with defect correction order = 8
MG DL_MG: Solver finished
MG Hartree energy from (\int phi*rho dr):              1432.648994
MG Hartree energy from (\int eps (grad phi)^2 dr):     1431.990287
MG Discrepancy due to finite box and discretization:     -0.658707 (  -0.04598%)
MG Correction to account for finite box:                  0.476020
MG Remaining discrepancy, due to discretization:         -0.182687 (  -0.01275%)
     Trial step:       0.486315818502
             Q1:  -11603.720693739480
 Quadratic coef:       0.132933124993
 Linear coef   :      -0.299608943379
           Qmin:  -11603.722834984106
Quadratic minimum step length (  0.548037099624) accepted
    Initial Ne1:    7227.99991441
      Final Ne1:    7228.00000000

=================== Penalty functional idempotency correction ==================
 RMS occupancy error at iteration   1:  0.000540 (step -0.4786 Ne1=   7228.0000)
 RMS occupancy error at iteration   2:  0.000017 (step -0.5003 Ne1=   7228.0000)
            Final RMS occupancy error   :  0.000000 (Ne1=   7228.0000)
               Final occupancy bounds   : [  0.0000,  1.0000]
================================================================================

    4        -1.160355401792E+04     1.1937E-04     1.0799E-04    -5.5324E-01
MG BCs: +ve charge blocks (gridpoints):     31176 (   17411440).
MG BCs: -ve charge blocks (gridpoints):      8359 (    1104590).
MG BCs:     Elided blocks (gridpoints):    162726 (  172454595).
MG BCs: Computational effort saved:  99.9793%.
MG BCs: Charge after coarse-graining:           -9.0010060.
MG DL_MG: Calling solver with defect correction order = 8
MG DL_MG: Solver finished
MG Hartree energy from (\int phi*rho dr):              1432.799992
MG Hartree energy from (\int eps (grad phi)^2 dr):     1432.141292
MG Discrepancy due to finite box and discretization:     -0.658699 (  -0.04597%)
MG Correction to account for finite box:                  0.476003
MG Remaining discrepancy, due to discretization:         -0.182696 (  -0.01275%)
      ideal mu1:      -0.771161722260
             Q0:  -11603.722955411882
             G0:      -0.355250938641
   RMS gradient:       0.000091307478
MG BCs: +ve charge blocks (gridpoints):     31174 (   17411953).
MG BCs: -ve charge blocks (gridpoints):      8359 (    1104276).
MG BCs:     Elided blocks (gridpoints):    162728 (  172454396).
MG BCs: Computational effort saved:  99.9793%.
MG BCs: Charge after coarse-graining:           -9.0010059.
MG DL_MG: Calling solver with defect correction order = 8
MG DL_MG: Solver finished
MG Hartree energy from (\int phi*rho dr):              1433.280510
MG Hartree energy from (\int eps (grad phi)^2 dr):     1432.621579
MG Discrepancy due to finite box and discretization:     -0.658931 (  -0.04597%)
MG Correction to account for finite box:                  0.476051
MG Remaining discrepancy, due to discretization:         -0.182880 (  -0.01276%)
     Trial step:       0.516254889248
             Q1:  -11603.854028817499
 Quadratic coef:       0.052326628367
 Linear coef   :      -0.183400033983
           Qmin:  -11603.883655487134
Quadratic minimum step length (  0.904713022669) accepted
    Initial Ne1:    7227.99964684
      Final Ne1:    7228.00000000

=================== Penalty functional idempotency correction ==================
 RMS occupancy error at iteration   1:  0.002815 (step -0.3493 Ne1=   7228.0000)
 RMS occupancy error at iteration   2:  0.000178 (step -0.4961 Ne1=   7228.0000)
 RMS occupancy error at iteration   3:  0.000002 (step -0.5000 Ne1=   7228.0000)
            Final RMS occupancy error   :  0.000000 (Ne1=   7228.0000)
               Final occupancy bounds   : [  0.0000,  1.0000]
================================================================================

    5        -1.160372295541E+04     9.1307E-05     8.2604E-05    -1.6894E-01
MG BCs: +ve charge blocks (gridpoints):     31173 (   17412236).
MG BCs: -ve charge blocks (gridpoints):      8355 (    1104151).
MG BCs:     Elided blocks (gridpoints):    162729 (  172454238).
MG BCs: Computational effort saved:  99.9793%.
MG BCs: Charge after coarse-graining:           -9.0010059.
MG DL_MG: Calling solver with defect correction order = 8
MG DL_MG: Solver finished
MG Hartree energy from (\int phi*rho dr):              1433.665637
MG Hartree energy from (\int eps (grad phi)^2 dr):     1433.006523
MG Discrepancy due to finite box and discretization:     -0.659113 (  -0.04597%)
MG Correction to account for finite box:                  0.476089
MG Remaining discrepancy, due to discretization:         -0.183025 (  -0.01277%)
      ideal mu1:      -0.770384490372
             Q0:  -11603.860457557370
             G0:      -0.405526015946
   RMS gradient:       0.000106171623
MG BCs: +ve charge blocks (gridpoints):     31173 (   17411161).
MG BCs: -ve charge blocks (gridpoints):      8364 (    1104802).
MG BCs:     Elided blocks (gridpoints):    162729 (  172454662).
MG BCs: Computational effort saved:  99.9793%.
MG BCs: Charge after coarse-graining:           -9.0010055.
MG DL_MG: Calling solver with defect correction order = 8
MG DL_MG: Solver finished
MG Hartree energy from (\int phi*rho dr):              1431.325703
MG Hartree energy from (\int eps (grad phi)^2 dr):     1430.666417
MG Discrepancy due to finite box and discretization:     -0.659286 (  -0.04606%)
MG Correction to account for finite box:                  0.476295
MG Remaining discrepancy, due to discretization:         -0.182991 (  -0.01278%)
     Trial step:       0.683419725586
             Q1:  -11603.925100684515
 Quadratic coef:       0.212501351391
 Linear coef   :      -0.277144478536
           Qmin:  -11603.950820585040
Quadratic minimum step length (  0.445658350475) accepted
    Initial Ne1:    7227.99976452
      Final Ne1:    7228.00000000

=================== Penalty functional idempotency correction ==================
 RMS occupancy error at iteration   1:  0.004202 (step -0.3046 Ne1=   7228.0000)
 RMS occupancy error at iteration   2:  0.000291 (step -0.4859 Ne1=   7228.0000)
 RMS occupancy error at iteration   3:  0.000005 (step -0.5001 Ne1=   7228.0000)
            Final RMS occupancy error   :  0.000000 (Ne1=   7228.0000)
               Final occupancy bounds   : [  0.0000,  1.0000]
================================================================================

    6        -1.160386045756E+04     1.0617E-04     9.6051E-05    -1.3750E-01
MG BCs: +ve charge blocks (gridpoints):     31174 (   17411454).
MG BCs: -ve charge blocks (gridpoints):      8364 (    1104594).
MG BCs:     Elided blocks (gridpoints):    162728 (  172454577).
MG BCs: Computational effort saved:  99.9793%.
MG BCs: Charge after coarse-graining:           -9.0010056.
MG DL_MG: Calling solver with defect correction order = 8
MG DL_MG: Solver finished
MG Hartree energy from (\int phi*rho dr):              1432.122515
MG Hartree energy from (\int eps (grad phi)^2 dr):     1431.463201
MG Discrepancy due to finite box and discretization:     -0.659314 (  -0.04604%)
MG Correction to account for finite box:                  0.476320
MG Remaining discrepancy, due to discretization:         -0.182994 (  -0.01278%)
      ideal mu1:      -0.769634748514
             Q0:  -11603.954561071470
             G0:      -0.358254428842
   RMS gradient:       0.000091534423
MG BCs: +ve charge blocks (gridpoints):     31172 (   17411479).
MG BCs: -ve charge blocks (gridpoints):      8361 (    1104589).
MG BCs:     Elided blocks (gridpoints):    162730 (  172454557).
MG BCs: Computational effort saved:  99.9793%.
MG BCs: Charge after coarse-graining:           -9.0010059.
MG DL_MG: Calling solver with defect correction order = 8
MG DL_MG: Solver finished
MG Hartree energy from (\int phi*rho dr):              1431.818130
MG Hartree energy from (\int eps (grad phi)^2 dr):     1431.159012
MG Discrepancy due to finite box and discretization:     -0.659117 (  -0.04603%)
MG Correction to account for finite box:                  0.476420
MG Remaining discrepancy, due to discretization:         -0.182697 (  -0.01276%)
     Trial step:       0.551880156906
             Q1:  -11604.068738117930
 Quadratic coef:       0.083536463942
 Linear coef   :      -0.197713510402
           Qmin:  -11604.071547805019
Quadratic minimum step length (  0.653093020660) accepted
    Initial Ne1:    7227.99998384
      Final Ne1:    7228.00000000

=================== Penalty functional idempotency correction ==================
 RMS occupancy error at iteration   1:  0.000129 (step -0.4941 Ne1=   7228.0000)
 RMS occupancy error at iteration   2:  0.000001 (step -0.5000 Ne1=   7228.0000)
            Final RMS occupancy error   :  0.000000 (Ne1=   7228.0000)
               Final occupancy bounds   : [  0.0000,  1.0000]
================================================================================

    7        -1.160395456107E+04     9.1534E-05     8.2809E-05    -9.4104E-02
MG BCs: +ve charge blocks (gridpoints):     31173 (   17411439).
MG BCs: -ve charge blocks (gridpoints):      8360 (    1104625).
MG BCs:     Elided blocks (gridpoints):    162729 (  172454561).
MG BCs: Computational effort saved:  99.9793%.
MG BCs: Charge after coarse-graining:           -9.0010060.
MG DL_MG: Calling solver with defect correction order = 8
MG DL_MG: Solver finished
MG Hartree energy from (\int phi*rho dr):              1431.763051
MG Hartree energy from (\int eps (grad phi)^2 dr):     1431.103968
MG Discrepancy due to finite box and discretization:     -0.659083 (  -0.04603%)
MG Correction to account for finite box:                  0.476440
MG Remaining discrepancy, due to discretization:         -0.182643 (  -0.01276%)
      ideal mu1:      -0.770515996156
             Q0:  -11604.071521183243
             G0:      -0.207747903305
   RMS gradient:       0.000069721355
MG BCs: +ve charge blocks (gridpoints):     31175 (   17411809).
MG BCs: -ve charge blocks (gridpoints):      8363 (    1104177).
MG BCs:     Elided blocks (gridpoints):    162727 (  172454639).
MG BCs: Computational effort saved:  99.9793%.
MG BCs: Charge after coarse-graining:           -9.0010062.
MG DL_MG: Calling solver with defect correction order = 8
MG DL_MG: Solver finished
MG Hartree energy from (\int phi*rho dr):              1432.431730
MG Hartree energy from (\int eps (grad phi)^2 dr):     1431.772499
MG Discrepancy due to finite box and discretization:     -0.659230 (  -0.04602%)
MG Correction to account for finite box:                  0.476611
MG Remaining discrepancy, due to discretization:         -0.182619 (  -0.01275%)
     Trial step:       0.600357459116
             Q1:  -11604.136535588535
 Quadratic coef:       0.059708598072
 Linear coef   :      -0.124723003365
           Qmin:  -11604.136653459293
Quadratic minimum step length (  0.627031849782) accepted
    Initial Ne1:    7227.99999096
      Final Ne1:    7228.00000000

=================== Penalty functional idempotency correction ==================
 RMS occupancy error at iteration   1:  0.000413 (step -0.4783 Ne1=   7228.0000)
 RMS occupancy error at iteration   2:  0.000005 (step -0.5000 Ne1=   7228.0000)
            Final RMS occupancy error   :  0.000000 (Ne1=   7228.0000)
               Final occupancy bounds   : [  0.0000,  1.0000]
================================================================================

    8        -1.160407152118E+04     6.9721E-05     6.3075E-05    -1.1696E-01
MG BCs: +ve charge blocks (gridpoints):     31175 (   17411835).
MG BCs: -ve charge blocks (gridpoints):      8363 (    1104151).
MG BCs:     Elided blocks (gridpoints):    162727 (  172454639).
MG BCs: Computational effort saved:  99.9793%.
MG BCs: Charge after coarse-graining:           -9.0010062.
MG DL_MG: Calling solver with defect correction order = 8
MG DL_MG: Solver finished
MG Hartree energy from (\int phi*rho dr):              1432.462077
MG Hartree energy from (\int eps (grad phi)^2 dr):     1431.802840
MG Discrepancy due to finite box and discretization:     -0.659237 (  -0.04602%)
MG Correction to account for finite box:                  0.476618
MG Remaining discrepancy, due to discretization:         -0.182619 (  -0.01275%)
      ideal mu1:      -0.770737194759
             Q0:  -11604.136764411000
             G0:      -0.113575970834
   RMS gradient:       0.000051430758
MG BCs: +ve charge blocks (gridpoints):     31173 (   17411537).
MG BCs: -ve charge blocks (gridpoints):      8362 (    1104232).
MG BCs:     Elided blocks (gridpoints):    162729 (  172454856).
MG BCs: Computational effort saved:  99.9793%.
MG BCs: Charge after coarse-graining:           -9.0010061.
MG DL_MG: Calling solver with defect correction order = 8
MG DL_MG: Solver finished
MG Hartree energy from (\int phi*rho dr):              1432.418463
MG Hartree energy from (\int eps (grad phi)^2 dr):     1431.759016
MG Discrepancy due to finite box and discretization:     -0.659447 (  -0.04604%)
MG Correction to account for finite box:                  0.476812
MG Remaining discrepancy, due to discretization:         -0.182635 (  -0.01275%)
     Trial step:       0.613549711205
             Q1:  -11604.177881543990
 Quadratic coef:       0.028567371115
 Linear coef   :      -0.069684504105
           Qmin:  -11604.179259834298
Quadratic minimum step length (  0.748317148203) accepted
    Initial Ne1:    7227.99999175
      Final Ne1:    7228.00000000

=================== Penalty functional idempotency correction ==================
 RMS occupancy error at iteration   1:  0.000871 (step -0.4523 Ne1=   7228.0000)
 RMS occupancy error at iteration   2:  0.000018 (step -0.4998 Ne1=   7228.0000)
            Final RMS occupancy error   :  0.000000 (Ne1=   7228.0000)
               Final occupancy bounds   : [ -0.0000,  1.0000]
================================================================================

    9        -1.160413676441E+04     5.1431E-05     4.6528E-05    -6.5243E-02
MG BCs: +ve charge blocks (gridpoints):     31173 (   17411461).
MG BCs: -ve charge blocks (gridpoints):      8362 (    1104260).
MG BCs:     Elided blocks (gridpoints):    162729 (  172454904).
MG BCs: Computational effort saved:  99.9793%.
MG BCs: Charge after coarse-graining:           -9.0010061.
MG DL_MG: Calling solver with defect correction order = 8
MG DL_MG: Solver finished
MG Hartree energy from (\int phi*rho dr):              1432.410861
MG Hartree energy from (\int eps (grad phi)^2 dr):     1431.751371
MG Discrepancy due to finite box and discretization:     -0.659490 (  -0.04604%)
MG Correction to account for finite box:                  0.476852
MG Remaining discrepancy, due to discretization:         -0.182638 (  -0.01275%)
      ideal mu1:      -0.769773428835
   10        -1.160417939244E+04     4.5554E-05     4.1211E-05    -4.2628E-02
Finished density kernel iterations (  10)

Writing density kernel to file "complex_5801.vacuum_dkn" ... done


>>> Density kernel optimised for the current NGWF basis:
     ~~~~~~~~~~~~~~~~~~~~~~~~~~~~~~~~~~~~~~~~~~~~~~~~~~~~~~~~~~~
     Total energy                =  -1.16041793924446E+04  Eh
     Estimated bandgap           =  -4.8483E-01  Eh
     RMS occupancy error         =   2.1111E-08
     [H,K] commutator            =   4.1211E-05
     Occupancy bounds            = [  0.000:  1.000]
     ~~~~~~~~~~~~~~~~~~~~~~~~~~~~~~~~~~~~~~~~~~~~~~~~~~~~~~~~~~~




################################################################################
########################### NGWF CG iteration  001 #############################
################################################################################
****** Reciprocal space K.E. preconditioning with k_zero =  3.5000 a0^-1 *******

>>> Checking for convergence of NGWFs:   NOT CONVERGED
  ========================================================================
         NGWF RMS gradient =  1.5995E-03 >  2.0000E-06  | above tolerance
  ========================================================================

>>> Improving NGWFs using line search:
============ Calculation of NGWF S^-1 using Hotelling algorithm ================ 
         Iteration  |  Frobenius norm and Maximum abs value    (of I-S*S_n^-1)   
               1       0.20107254E+00     0.52938209E-02
               2       0.93948866E-03     0.40376008E-04
               3       0.35058926E-07     0.27984742E-08
               4       0.12716487E-12     0.74384943E-14
================================================================================
MG BCs: +ve charge blocks (gridpoints):     30687 (   17356945).
MG BCs: -ve charge blocks (gridpoints):      8366 (    1103808).
MG BCs:     Elided blocks (gridpoints):    163220 (  172509872).
MG BCs: Computational effort saved:  99.9796%.
MG BCs: Charge after coarse-graining:           -9.0010059.
MG DL_MG: Calling solver with defect correction order = 8
MG DL_MG: Solver finished
MG Hartree energy from (\int phi*rho dr):              1400.084206
MG Hartree energy from (\int eps (grad phi)^2 dr):     1399.425603
MG Discrepancy due to finite box and discretization:     -0.658603 (  -0.04704%)
MG Correction to account for finite box:                  0.476776
MG Remaining discrepancy, due to discretization:         -0.181827 (  -0.01299%)
============ Calculation of NGWF S^-1 using Hotelling algorithm ================ 
         Iteration  |  Frobenius norm and Maximum abs value    (of I-S*S_n^-1)   
               1       0.18864675E+01     0.42261728E-01
               2       0.74032711E-01     0.24638873E-02
               3       0.15476544E-03     0.10631085E-04
               4       0.12721397E-08     0.20681201E-09
               5       0.11080494E-12     0.53290705E-14
================================================================================
------------------------------- NGWF line search -------------------------------
RMS gradient                =       0.00159951549324
Trial step length           =               0.122474
Gradient along search dir.  =       -280.86720892789
Functional at step 0        =  -11604.17939244455192
Functional at step 1        =  -11635.95377589832060
Functional predicted        =  -11716.88780558964754
Selected quadratic step     =               0.802574
--------------------------- NGWF line search finished --------------------------
                                               
Writing NGWFs to file "complex_5801.vacuum_tightbox_ngwfs"....  done

>>> Optimising kernel for current NGWFs:
   Initial electron number for spin 1:    7263.95080035
     Final electron number for spin 1:    7228.00000000

=================== Penalty functional idempotency correction ==================
 RMS occupancy error at iteration   1:  0.004329 (step -0.4860 Ne1=   7228.0000)
 RMS occupancy error at iteration   2:  0.000070 (step -0.5002 Ne1=   7228.0000)
            Final RMS occupancy error   :  0.000000 (Ne1=   7228.0000)
               Final occupancy bounds   : [  0.0000,  1.0000]
================================================================================

................................................................................
<<<<<<<<<<<<<< LNV (Original version) density kernel optimisation >>>>>>>>>>>>>>
~~~~~~~~~~~~~~~~~~~~~~~~~~~~~~~~~~~~~~~~~~~~~~~~~~~~~~~~~~~~~~~~~~~~~~~~~~~~~~~~
   iter  |      energy (Eh)       | rms gradient |  commutator  |   dE (Eh)
MG BCs: +ve charge blocks (gridpoints):     24962 (   17094534).
MG BCs: -ve charge blocks (gridpoints):      8522 (    1085532).
MG BCs:     Elided blocks (gridpoints):    168952 (  172790559).
MG BCs: Computational effort saved:  99.9825%.
MG BCs: Charge after coarse-graining:           -9.0006851.
MG DL_MG: Calling solver with defect correction order = 8
MG DL_MG: Solver finished
MG Hartree energy from (\int phi*rho dr):              1243.610392
MG Hartree energy from (\int eps (grad phi)^2 dr):     1242.952256
MG Discrepancy due to finite box and discretization:     -0.658136 (  -0.05292%)
MG Correction to account for finite box:                  0.476431
MG Remaining discrepancy, due to discretization:         -0.181706 (  -0.01461%)
      ideal mu1:      -0.709813666613
             Q0:  -11715.921457554796
             G0:     -10.079150489374
   RMS gradient:       0.000485512737
MG BCs: +ve charge blocks (gridpoints):     25036 (   17116386).
MG BCs: -ve charge blocks (gridpoints):      8495 (    1079757).
MG BCs:     Elided blocks (gridpoints):    168878 (  172774482).
MG BCs: Computational effort saved:  99.9824%.
MG BCs: Charge after coarse-graining:           -9.0006791.
MG DL_MG: Calling solver with defect correction order = 8
MG DL_MG: Solver finished
MG Hartree energy from (\int phi*rho dr):              1261.649456
MG Hartree energy from (\int eps (grad phi)^2 dr):     1260.986920
MG Discrepancy due to finite box and discretization:     -0.662536 (  -0.05251%)
MG Correction to account for finite box:                  0.475425
MG Remaining discrepancy, due to discretization:         -0.187111 (  -0.01483%)
     Trial step:       0.677591152665
             Q1:  -11715.667469884385
 Quadratic coef:       7.083530868389
 Linear coef   :      -6.829543197979
           Qmin:  -11717.567623187433
Quadratic minimum step length (  0.326647694044) accepted
    Initial Ne1:    7227.99959398
      Final Ne1:    7228.00000000

=================== Penalty functional idempotency correction ==================
 RMS occupancy error at iteration   1:  0.000352 (step -0.4986 Ne1=   7228.0000)
 RMS occupancy error at iteration   2:  0.000000 (step -0.5000 Ne1=   7228.0000)
            Final RMS occupancy error   :  0.000000 (Ne1=   7228.0000)
               Final occupancy bounds   : [  0.0000,  1.0000]
================================================================================

    1        -1.171592145755E+04     4.8551E-04     4.3923E-04
MG BCs: +ve charge blocks (gridpoints):     25003 (   17105255).
MG BCs: -ve charge blocks (gridpoints):      8507 (    1082751).
MG BCs:     Elided blocks (gridpoints):    168911 (  172782619).
MG BCs: Computational effort saved:  99.9825%.
MG BCs: Charge after coarse-graining:           -9.0006821.
MG DL_MG: Calling solver with defect correction order = 8
MG DL_MG: Solver finished
MG Hartree energy from (\int phi*rho dr):              1251.412750
MG Hartree energy from (\int eps (grad phi)^2 dr):     1250.752592
MG Discrepancy due to finite box and discretization:     -0.660158 (  -0.05275%)
MG Correction to account for finite box:                  0.475919
MG Remaining discrepancy, due to discretization:         -0.184239 (  -0.01472%)
      ideal mu1:      -0.717566041346
             Q0:  -11717.545569819515
             G0:      -0.970953069863
   RMS gradient:       0.000151189904
MG BCs: +ve charge blocks (gridpoints):     25005 (   17106622).
MG BCs: -ve charge blocks (gridpoints):      8509 (    1082920).
MG BCs:     Elided blocks (gridpoints):    168909 (  172781083).
MG BCs: Computational effort saved:  99.9825%.
MG BCs: Charge after coarse-graining:           -9.0006817.
MG DL_MG: Calling solver with defect correction order = 8
MG DL_MG: Solver finished
MG Hartree energy from (\int phi*rho dr):              1253.141781
MG Hartree energy from (\int eps (grad phi)^2 dr):     1252.481415
MG Discrepancy due to finite box and discretization:     -0.660367 (  -0.05270%)
MG Correction to account for finite box:                  0.475842
MG Remaining discrepancy, due to discretization:         -0.184525 (  -0.01472%)
     Trial step:       0.470461037199
             Q1:  -11717.753644538461
 Quadratic coef:       0.248720869373
 Linear coef   :      -0.456795588319
           Qmin:  -11717.755305144534
Quadratic minimum step length (  0.432019489982) accepted
    Initial Ne1:    7227.99994792
      Final Ne1:    7228.00000000

=================== Penalty functional idempotency correction ==================
 RMS occupancy error at iteration   1:  0.000143 (step -0.4994 Ne1=   7228.0000)
            Final RMS occupancy error   :  0.000000 (Ne1=   7228.0000)
               Final occupancy bounds   : [ -0.0000,  1.0000]
================================================================================

    2        -1.171754556982E+04     1.5119E-04     1.3678E-04    -1.6241E+00
MG BCs: +ve charge blocks (gridpoints):     25004 (   17106528).
MG BCs: -ve charge blocks (gridpoints):      8509 (    1082912).
MG BCs:     Elided blocks (gridpoints):    168910 (  172781185).
MG BCs: Computational effort saved:  99.9825%.
MG BCs: Charge after coarse-graining:           -9.0006817.
MG DL_MG: Calling solver with defect correction order = 8
MG DL_MG: Solver finished
MG Hartree energy from (\int phi*rho dr):              1253.000485
MG Hartree energy from (\int eps (grad phi)^2 dr):     1252.340136
MG Discrepancy due to finite box and discretization:     -0.660349 (  -0.05270%)
MG Correction to account for finite box:                  0.475848
MG Remaining discrepancy, due to discretization:         -0.184501 (  -0.01472%)
      ideal mu1:      -0.719215877417
             Q0:  -11717.755721723661
             G0:      -0.167144897757
   RMS gradient:       0.000062460936
MG BCs: +ve charge blocks (gridpoints):     25000 (   17105771).
MG BCs: -ve charge blocks (gridpoints):      8513 (    1083305).
MG BCs:     Elided blocks (gridpoints):    168914 (  172781549).
MG BCs: Computational effort saved:  99.9825%.
MG BCs: Charge after coarse-graining:           -9.0006817.
MG DL_MG: Calling solver with defect correction order = 8
MG DL_MG: Solver finished
MG Hartree energy from (\int phi*rho dr):              1252.567838
MG Hartree energy from (\int eps (grad phi)^2 dr):     1251.907591
MG Discrepancy due to finite box and discretization:     -0.660246 (  -0.05271%)
MG Correction to account for finite box:                  0.475779
MG Remaining discrepancy, due to discretization:         -0.184467 (  -0.01473%)
     Trial step:       0.450830719170
             Q1:  -11717.808035580558
 Quadratic coef:       0.023040197564
 Linear coef   :      -0.075354054461
           Qmin:  -11717.817333972296
Quadratic minimum step length (  0.737231581253) accepted
    Initial Ne1:    7228.00099744
      Final Ne1:    7228.00000000

=================== Penalty functional idempotency correction ==================
 RMS occupancy error at iteration   1:  0.000125 (step -0.4962 Ne1=   7228.0000)
 RMS occupancy error at iteration   2:  0.000001 (step -0.5000 Ne1=   7228.0000)
            Final RMS occupancy error   :  0.000000 (Ne1=   7228.0000)
               Final occupancy bounds   : [  0.0000,  1.0000]
================================================================================

    3        -1.171775572172E+04     6.2461E-05     5.6507E-05    -2.1015E-01
MG BCs: +ve charge blocks (gridpoints):     25001 (   17105342).
MG BCs: -ve charge blocks (gridpoints):      8514 (    1083511).
MG BCs:     Elided blocks (gridpoints):    168913 (  172781772).
MG BCs: Computational effort saved:  99.9825%.
MG BCs: Charge after coarse-graining:           -9.0006818.
MG DL_MG: Calling solver with defect correction order = 8
MG DL_MG: Solver finished
MG Hartree energy from (\int phi*rho dr):              1252.292881
MG Hartree energy from (\int eps (grad phi)^2 dr):     1251.632701
MG Discrepancy due to finite box and discretization:     -0.660180 (  -0.05272%)
MG Correction to account for finite box:                  0.475734
MG Remaining discrepancy, due to discretization:         -0.184446 (  -0.01473%)
      ideal mu1:      -0.718560832572
             Q0:  -11717.817425907357
             G0:      -0.060773823410
   RMS gradient:       0.000037654971
MG BCs: +ve charge blocks (gridpoints):     24996 (   17105259).
MG BCs: -ve charge blocks (gridpoints):      8512 (    1083571).
MG BCs:     Elided blocks (gridpoints):    168918 (  172781795).
MG BCs: Computational effort saved:  99.9825%.
MG BCs: Charge after coarse-graining:           -9.0006818.
MG DL_MG: Calling solver with defect correction order = 8
MG DL_MG: Solver finished
MG Hartree energy from (\int phi*rho dr):              1252.256699
MG Hartree energy from (\int eps (grad phi)^2 dr):     1251.596708
MG Discrepancy due to finite box and discretization:     -0.659991 (  -0.05270%)
MG Correction to account for finite box:                  0.475679
MG Remaining discrepancy, due to discretization:         -0.184312 (  -0.01472%)
     Trial step:       0.576512483795
             Q1:  -11717.838211396942
 Quadratic coef:       0.014251378299
 Linear coef   :      -0.035036867884
           Qmin:  -11717.838960352750
Quadratic minimum step length (  0.708675024403) accepted
    Initial Ne1:    7228.00034839
      Final Ne1:    7228.00000000

=================== Penalty functional idempotency correction ==================
 RMS occupancy error at iteration   1:  0.000166 (step -0.4909 Ne1=   7228.0000)
 RMS occupancy error at iteration   2:  0.000001 (step -0.5000 Ne1=   7228.0000)
            Final RMS occupancy error   :  0.000000 (Ne1=   7228.0000)
               Final occupancy bounds   : [  0.0000,  1.0000]
================================================================================

    4        -1.171781742591E+04     3.7655E-05     3.4066E-05    -6.1704E-02
MG BCs: +ve charge blocks (gridpoints):     24996 (   17105232).
MG BCs: -ve charge blocks (gridpoints):      8512 (    1083588).
MG BCs:     Elided blocks (gridpoints):    168918 (  172781805).
MG BCs: Computational effort saved:  99.9825%.
MG BCs: Charge after coarse-graining:           -9.0006818.
MG DL_MG: Calling solver with defect correction order = 8
MG DL_MG: Solver finished
MG Hartree energy from (\int phi*rho dr):              1252.249073
MG Hartree energy from (\int eps (grad phi)^2 dr):     1251.589127
MG Discrepancy due to finite box and discretization:     -0.659946 (  -0.05270%)
MG Correction to account for finite box:                  0.475665
MG Remaining discrepancy, due to discretization:         -0.184281 (  -0.01472%)
      ideal mu1:      -0.718935361018
             Q0:  -11717.838934886153
             G0:      -0.050892064402
   RMS gradient:       0.000034528901
MG BCs: +ve charge blocks (gridpoints):     24999 (   17106205).
MG BCs: -ve charge blocks (gridpoints):      8510 (    1083227).
MG BCs:     Elided blocks (gridpoints):    168915 (  172781193).
MG BCs: Computational effort saved:  99.9825%.
MG BCs: Charge after coarse-graining:           -9.0006816.
MG DL_MG: Calling solver with defect correction order = 8
MG DL_MG: Solver finished
MG Hartree energy from (\int phi*rho dr):              1252.920968
MG Hartree energy from (\int eps (grad phi)^2 dr):     1252.261241
MG Discrepancy due to finite box and discretization:     -0.659726 (  -0.05266%)
MG Correction to account for finite box:                  0.475512
MG Remaining discrepancy, due to discretization:         -0.184214 (  -0.01470%)
     Trial step:       0.639186982441
             Q1:  -11717.860429535969
 Quadratic coef:       0.011034895258
 Linear coef   :      -0.032529545075
           Qmin:  -11717.862908183542
Quadratic minimum step length (  0.942123204147) accepted
    Initial Ne1:    7228.00038932
      Final Ne1:    7228.00000000

=================== Penalty functional idempotency correction ==================
 RMS occupancy error at iteration   1:  0.000680 (step -0.4627 Ne1=   7228.0000)
 RMS occupancy error at iteration   2:  0.000005 (step -0.5000 Ne1=   7228.0000)
            Final RMS occupancy error   :  0.000000 (Ne1=   7228.0000)
               Final occupancy bounds   : [  0.0000,  1.0000]
================================================================================

    5        -1.171783893489E+04     3.4529E-05     3.1237E-05    -2.1509E-02
MG BCs: +ve charge blocks (gridpoints):     25002 (   17106655).
MG BCs: -ve charge blocks (gridpoints):      8510 (    1083063).
MG BCs:     Elided blocks (gridpoints):    168912 (  172780907).
MG BCs: Computational effort saved:  99.9825%.
MG BCs: Charge after coarse-graining:           -9.0006815.
MG DL_MG: Calling solver with defect correction order = 8
MG DL_MG: Solver finished
MG Hartree energy from (\int phi*rho dr):              1253.241233
MG Hartree energy from (\int eps (grad phi)^2 dr):     1252.581617
MG Discrepancy due to finite box and discretization:     -0.659615 (  -0.05263%)
MG Correction to account for finite box:                  0.475433
MG Remaining discrepancy, due to discretization:         -0.184182 (  -0.01470%)
      ideal mu1:      -0.720444673728
             Q0:  -11717.862453911221
             G0:      -0.058543227116
   RMS gradient:       0.000037281847
MG BCs: +ve charge blocks (gridpoints):     25000 (   17106471).
MG BCs: -ve charge blocks (gridpoints):      8509 (    1083178).
MG BCs:     Elided blocks (gridpoints):    168914 (  172780976).
MG BCs: Computational effort saved:  99.9825%.
MG BCs: Charge after coarse-graining:           -9.0006816.
MG DL_MG: Calling solver with defect correction order = 8
MG DL_MG: Solver finished
MG Hartree energy from (\int phi*rho dr):              1253.021621
MG Hartree energy from (\int eps (grad phi)^2 dr):     1252.362391
MG Discrepancy due to finite box and discretization:     -0.659230 (  -0.05261%)
MG Correction to account for finite box:                  0.475048
MG Remaining discrepancy, due to discretization:         -0.184182 (  -0.01470%)
     Trial step:       0.776010881332
             Q1:  -11717.891785380896
 Quadratic coef:       0.016098711594
 Linear coef   :      -0.045430181270
           Qmin:  -11717.894504634010
Quadratic minimum step length (  1.094942126283) accepted
    Initial Ne1:    7228.00052684
      Final Ne1:    7228.00000000

=================== Penalty functional idempotency correction ==================
 RMS occupancy error at iteration   1:  0.002634 (step -0.3819 Ne1=   7228.0000)
 RMS occupancy error at iteration   2:  0.000031 (step -0.4998 Ne1=   7228.0000)
            Final RMS occupancy error   :  0.000000 (Ne1=   7228.0000)
               Final occupancy bounds   : [ -0.0000,  1.0000]
================================================================================

    6        -1.171786245391E+04     3.7282E-05     3.3728E-05    -2.3519E-02
MG BCs: +ve charge blocks (gridpoints):     24998 (   17106410).
MG BCs: -ve charge blocks (gridpoints):      8509 (    1083216).
MG BCs:     Elided blocks (gridpoints):    168916 (  172780999).
MG BCs: Computational effort saved:  99.9825%.
MG BCs: Charge after coarse-graining:           -9.0006816.
MG DL_MG: Calling solver with defect correction order = 8
MG DL_MG: Solver finished
MG Hartree energy from (\int phi*rho dr):              1252.937028
MG Hartree energy from (\int eps (grad phi)^2 dr):     1252.277915
MG Discrepancy due to finite box and discretization:     -0.659113 (  -0.05261%)
MG Correction to account for finite box:                  0.474931
MG Remaining discrepancy, due to discretization:         -0.184182 (  -0.01470%)
      ideal mu1:      -0.721184502675
             Q0:  -11717.893231215538
             G0:      -0.073457042205
   RMS gradient:       0.000041448172
MG BCs: +ve charge blocks (gridpoints):     24999 (   17105067).
MG BCs: -ve charge blocks (gridpoints):      8512 (    1083629).
MG BCs:     Elided blocks (gridpoints):    168915 (  172781929).
MG BCs: Computational effort saved:  99.9825%.
MG BCs: Charge after coarse-graining:           -9.0006818.
MG DL_MG: Calling solver with defect correction order = 8
MG DL_MG: Solver finished
MG Hartree energy from (\int phi*rho dr):              1252.113225
MG Hartree energy from (\int eps (grad phi)^2 dr):     1251.454016
MG Discrepancy due to finite box and discretization:     -0.659209 (  -0.05265%)
MG Correction to account for finite box:                  0.474946
MG Remaining discrepancy, due to discretization:         -0.184264 (  -0.01472%)
     Trial step:       0.921784684416
             Q1:  -11717.913467222708
 Quadratic coef:       0.047475569296
 Linear coef   :      -0.067711576467
           Qmin:  -11717.917374462557
Quadratic minimum step length (  0.657343293305) accepted
    Initial Ne1:    7228.00010452
      Final Ne1:    7228.00000000

=================== Penalty functional idempotency correction ==================
 RMS occupancy error at iteration   1:  0.000046 (step -0.4973 Ne1=   7228.0000)
            Final RMS occupancy error   :  0.000000 (Ne1=   7228.0000)
               Final occupancy bounds   : [ -0.0000,  1.0000]
================================================================================

    7        -1.171789323122E+04     4.1448E-05     3.7497E-05    -3.0777E-02
MG BCs: +ve charge blocks (gridpoints):     24999 (   17105450).
MG BCs: -ve charge blocks (gridpoints):      8514 (    1083538).
MG BCs:     Elided blocks (gridpoints):    168915 (  172781637).
MG BCs: Computational effort saved:  99.9825%.
MG BCs: Charge after coarse-graining:           -9.0006817.
MG DL_MG: Calling solver with defect correction order = 8
MG DL_MG: Solver finished
MG Hartree energy from (\int phi*rho dr):              1252.347244
MG Hartree energy from (\int eps (grad phi)^2 dr):     1251.688060
MG Discrepancy due to finite box and discretization:     -0.659184 (  -0.05264%)
MG Correction to account for finite box:                  0.474944
MG Remaining discrepancy, due to discretization:         -0.184240 (  -0.01471%)
      ideal mu1:      -0.720243264582
             Q0:  -11717.917386216111
             G0:      -0.061906382456
   RMS gradient:       0.000038037826
MG BCs: +ve charge blocks (gridpoints):     24999 (   17105355).
MG BCs: -ve charge blocks (gridpoints):      8512 (    1083490).
MG BCs:     Elided blocks (gridpoints):    168915 (  172781780).
MG BCs: Computational effort saved:  99.9825%.
MG BCs: Charge after coarse-graining:           -9.0006818.
MG DL_MG: Calling solver with defect correction order = 8
MG DL_MG: Solver finished
MG Hartree energy from (\int phi*rho dr):              1252.111079
MG Hartree energy from (\int eps (grad phi)^2 dr):     1251.451998
MG Discrepancy due to finite box and discretization:     -0.659081 (  -0.05264%)
MG Correction to account for finite box:                  0.474755
MG Remaining discrepancy, due to discretization:         -0.184326 (  -0.01472%)
     Trial step:       0.778414401314
             Q1:  -11717.946068668971
[...]
MG Hartree energy from (\int phi*rho dr):              1208.897156
MG Hartree energy from (\int eps (grad phi)^2 dr):     1208.707053
MG Discrepancy due to finite box and discretization:     -0.190103 (  -0.01573%)
MG Correction to account for finite box:                  0.006365
MG Remaining discrepancy, due to discretization:         -0.183737 (  -0.01520%)
             Q2:  -11752.204653761699
  Cubic LS coeff:       0.933738190030
Predicted energy:  -11752.204653761728
Cubic minimum step length accepted
    Initial Ne1:    7228.00000000
      Final Ne1:    7228.00000000

=================== Penalty functional idempotency correction ==================
 RMS occupancy error at iteration   1:  0.000000 (step -0.5000 Ne1=   7228.0000)
            Final RMS occupancy error   :  0.000000 (Ne1=   7228.0000)
               Final occupancy bounds   : [  0.0000,  1.0000]
================================================================================

    7        -1.175220465376E+04     7.5631E-09     6.8421E-09    -1.5134E-09

Reusing previously generated solute cavity.
MG BCs: +ve charge blocks (gridpoints):     29015 (   19325175).
MG BCs: -ve charge blocks (gridpoints):      8495 (    1052875).
MG BCs:     Elided blocks (gridpoints):    164899 (  170592575).
MG BCs: Computational effort saved:  99.9804%.
MG BCs: Charge after coarse-graining:           -9.0009720.
MG DL_MG: Calling solver with defect correction order = 8
MG DL_MG: Solver finished
MG Hartree energy from (\int phi*rho dr):              1208.897155
MG Hartree energy from (\int eps (grad phi)^2 dr):     1208.707052
MG Discrepancy due to finite box and discretization:     -0.190103 (  -0.01573%)
MG Correction to account for finite box:                  0.006365
MG Remaining discrepancy, due to discretization:         -0.183737 (  -0.01520%)
      ideal mu1:      -0.485512542296
             Q0:  -11752.204653761699
             G0:      -0.000000002599
   RMS gradient:       0.000000007157

Reusing previously generated solute cavity.
MG BCs: +ve charge blocks (gridpoints):     29015 (   19325175).
MG BCs: -ve charge blocks (gridpoints):      8495 (    1052875).
MG BCs:     Elided blocks (gridpoints):    164899 (  170592575).
MG BCs: Computational effort saved:  99.9804%.
MG BCs: Charge after coarse-graining:           -9.0009720.
MG DL_MG: Calling solver with defect correction order = 8
MG DL_MG: Solver finished
MG Hartree energy from (\int phi*rho dr):              1208.897128
MG Hartree energy from (\int eps (grad phi)^2 dr):     1208.707025
MG Discrepancy due to finite box and discretization:     -0.190103 (  -0.01573%)
MG Correction to account for finite box:                  0.006365
MG Remaining discrepancy, due to discretization:         -0.183737 (  -0.01520%)
     Trial step:       0.646573575991
             Q1:  -11752.204653762281
 Quadratic coef:       0.000000001099
 Linear coef   :      -0.000000001681
           Qmin:  -11752.204653762341
Quadratic minimum step length (  0.494523295507) accepted
    Initial Ne1:    7228.00000000
      Final Ne1:    7228.00000000

=================== Penalty functional idempotency correction ==================
 RMS occupancy error at iteration   1:  0.000000 (step -0.5000 Ne1=   7228.0000)
            Final RMS occupancy error   :  0.000000 (Ne1=   7228.0000)
               Final occupancy bounds   : [  0.0000,  1.0000]
================================================================================

    8        -1.175220465376E+04     7.1572E-09     6.4749E-09    -2.3283E-09

Reusing previously generated solute cavity.
MG BCs: +ve charge blocks (gridpoints):     29015 (   19325175).
MG BCs: -ve charge blocks (gridpoints):      8495 (    1052875).
MG BCs:     Elided blocks (gridpoints):    164899 (  170592575).
MG BCs: Computational effort saved:  99.9804%.
MG BCs: Charge after coarse-graining:           -9.0009720.
MG DL_MG: Calling solver with defect correction order = 8
MG DL_MG: Solver finished
MG Hartree energy from (\int phi*rho dr):              1208.897134
MG Hartree energy from (\int eps (grad phi)^2 dr):     1208.707032
MG Discrepancy due to finite box and discretization:     -0.190103 (  -0.01573%)
MG Correction to account for finite box:                  0.006365
MG Remaining discrepancy, due to discretization:         -0.183737 (  -0.01520%)
      ideal mu1:      -0.485512518502
             Q0:  -11752.204653762165
             G0:      -0.000000001205
   RMS gradient:       0.000000004179

Reusing previously generated solute cavity.
MG BCs: +ve charge blocks (gridpoints):     29015 (   19325175).
MG BCs: -ve charge blocks (gridpoints):      8495 (    1052875).
MG BCs:     Elided blocks (gridpoints):    164899 (  170592575).
MG BCs: Computational effort saved:  99.9804%.
MG BCs: Charge after coarse-graining:           -9.0009720.
MG DL_MG: Calling solver with defect correction order = 8
MG DL_MG: Solver finished
MG Hartree energy from (\int phi*rho dr):              1208.897138
MG Hartree energy from (\int eps (grad phi)^2 dr):     1208.707035
MG Discrepancy due to finite box and discretization:     -0.190103 (  -0.01573%)
MG Correction to account for finite box:                  0.006365
MG Remaining discrepancy, due to discretization:         -0.183737 (  -0.01520%)
     Trial step:       0.565460604806
             Q1:  -11752.204653762281
 Quadratic coef:       0.000000000566
 Linear coef   :      -0.000000000681
           Qmin:  -11752.204653762370
Quadratic minimum step length (  0.340550945883) accepted
    Initial Ne1:    7228.00000000
      Final Ne1:    7228.00000000

=================== Penalty functional idempotency correction ==================
 RMS occupancy error at iteration   1:  0.000000 (step -0.5000 Ne1=   7228.0000)
            Final RMS occupancy error   :  0.000000 (Ne1=   7228.0000)
               Final occupancy bounds   : [  0.0000,  1.0000]
================================================================================

    9        -1.175220465376E+04     4.1787E-09     3.7804E-09    -4.6566E-10

Reusing previously generated solute cavity.
MG BCs: +ve charge blocks (gridpoints):     29015 (   19325175).
MG BCs: -ve charge blocks (gridpoints):      8495 (    1052875).
MG BCs:     Elided blocks (gridpoints):    164899 (  170592575).
MG BCs: Computational effort saved:  99.9804%.
MG BCs: Charge after coarse-graining:           -9.0009720.
MG DL_MG: Calling solver with defect correction order = 8
MG DL_MG: Solver finished
MG Hartree energy from (\int phi*rho dr):              1208.897136
MG Hartree energy from (\int eps (grad phi)^2 dr):     1208.707034
MG Discrepancy due to finite box and discretization:     -0.190103 (  -0.01573%)
MG Correction to account for finite box:                  0.006365
MG Remaining discrepancy, due to discretization:         -0.183737 (  -0.01520%)
      ideal mu1:      -0.485512518354
   10        -1.175220465376E+04     3.2508E-09     2.9409E-09    -2.3283E-10
Finished density kernel iterations (  10)

Writing density kernel to file "complex_5801.dkn" ... done


>>> Density kernel optimised for the current NGWF basis:
     ~~~~~~~~~~~~~~~~~~~~~~~~~~~~~~~~~~~~~~~~~~~~~~~~~~~~~~~~~~~
     Total energy                =  -1.17522046537624E+04  Eh
     Estimated bandgap           =   8.4144E-02  Eh
     RMS occupancy error         =   3.1559E-16
     [H,K] commutator            =   2.9409E-09
     Occupancy bounds            = [  0.000:  1.000]
     ~~~~~~~~~~~~~~~~~~~~~~~~~~~~~~~~~~~~~~~~~~~~~~~~~~~~~~~~~~~




################################################################################
########################### NGWF CG iteration  004 #############################
################################################################################
****** Reciprocal space K.E. preconditioning with k_zero =  3.5000 a0^-1 *******

>>> Checking for convergence of NGWFs: 
           ........................................................
           |         *** NGWF optimisation converged ***          |
           | RMS NGWF gradient =    0.00000193558874              |
           | Criteria satisfied:                                  |
           | -> RMS NGWF gradient lower than set threshold.       |
           ========================================================

Reusing previously generated solute cavity.
MG BCs: +ve charge blocks (gridpoints):     29015 (   19325175).
MG BCs: -ve charge blocks (gridpoints):      8495 (    1052875).
MG BCs:     Elided blocks (gridpoints):    164899 (  170592575).
MG BCs: Computational effort saved:  99.9804%.
MG BCs: Charge after coarse-graining:           -9.0009720.
MG DL_MG: Calling solver with defect correction order = 8
MG DL_MG: Solver finished
MG Hartree energy from (\int phi*rho dr):              1208.897136
MG Hartree energy from (\int eps (grad phi)^2 dr):     1208.707034
MG Discrepancy due to finite box and discretization:     -0.190103 (  -0.01573%)
MG Correction to account for finite box:                  0.006365
MG Remaining discrepancy, due to discretization:         -0.183737 (  -0.01520%)

================================================================================
           ---------------- ENERGY COMPONENTS (Eh) ----------------
           | Kinetic                    :     8600.90459755809206 |
           | Pseudo. (local,OBC,corr'd) :    -5096.67551576500318 |
           | Pseudopotential (non-local):     1410.49934592336467 |
           | Hartree (molecular)        :     1208.89713630222263 |
           | Exchange-correlation       :    -3398.84885609733237 |
           | Ion-ion (open BC)          :   833611.02670927671716 |
           | Smeared ion non-self corr. :  -833562.66545532864984 |
           | Smeared ion self corr.     :   -14525.98710726666468 |
           | Solvent cavitation energy  :        2.29295253917079 |
           | Solute-solvent dis-rep en. :       -1.64846090422336 |
           | Total                      :   -11752.20465376236461 |
           --------------------------------------------------------
           ------ LOCAL ENERGY COMPONENTS FROM MATRIX TRACES ------
           | Pseudopotential (local)    :    -5096.67551576499864 |
           | Hartree                    :    -2012.96366843914529 |
           --------------------------------------------------------
           Integrated density           :     7227.99999999892589
           Integrated density tr(KS)    :     7228.00000000000000
================================================================================


                        <<<<< CALCULATION SUMMARY >>>>>                         
|ITER|    RMS GRADIENT   |     TOTAL ENERGY    |   step   |     Epredicted              
   0     0.00003949726487 -11752.14339433552232   0.618987 -11752.19639848562292        
   1     0.00000985976524 -11752.20410258602351   0.086434 -11752.20456380961514        
   2     0.00000434602629 -11752.20463514106814   0.015801 -11752.20465152304132        
   3     0.00000193558874 -11752.20465376239736  <-- CG                                 

=================== Finished the calculation in solvent ========================
= Adjusting the following parameters: 
= read_denskern: F
= read_tightbox_ngwfs: F
= maxit_pen: 0 (restored to user-specified value)
= restart read filename prefix: ""
= restart write filename prefix: ""
================================================================================

================================================================================
IS: Calculation in solvent completed (NGWFs converged).      

Individual components of total energy in solvent:     hartree           kcal/mol
- Usual non-electrostatic DFT terms:    -12961.74628169956668    -8133618.415709
- Electrostatic fixed charge energy:      1208.89713630222263      758594.389740
- Apolar cavitation energy:                  2.29295253917079        1438.849411
- Apolar dispersion-repulsion energy:       -1.64846090422336       -1034.424813
 -------------------------------------------------------------------------------
- Total energy in solvent:              -11752.20465376239736    -7374619.601371

Components of total energy in solvent:                hartree           kcal/mol
- Usual non-electrostatic DFT terms:    -12961.74628169956668    -8133618.415709
- Electrostatic energy:                   1208.89713630222263      758594.389740
- Apolar energy terms:                       0.64449163494743         404.424598
 -------------------------------------------------------------------------------
- Total energy in solvent:              -11752.20465376239736    -7374619.601371

Calculation of free energy of solvation:              hartree           kcal/mol
- Total energy in solvent:         (+)  -11752.20465376239736    -7374619.601371
- Total energy in vacuum:          (-)  -11748.37155401671771    -7372214.295018
 -------------------------------------------------------------------------------
- Total free energy of solvation:           -3.83309974567965       -2405.306353

Components of polar term in f.e. of solvation:        hartree           kcal/mol
- Electrostatic:                            -4.54020096143722       -2849.019056
- Change in nonelectrostatic DFT terms:      0.06260958081111          39.288104
 -------------------------------------------------------------------------------
- Polar term in f.e. of solvation:          -4.47759138062611       -2809.730951

Components of free energy of solvation:               hartree           kcal/mol
- Polar term in f.e. of solvation: (+)      -4.47759138062611       -2809.730951
- Apolar (cavitation, dis., rep.): (+)       0.64449163494743         404.424598
 -------------------------------------------------------------------------------
- Total free energy of solvation:           -3.83309974567868       -2405.306353
================================================================================


------------------------------ TIMING INFORMATION ------------------------------
AVERAGE TIME:   34323.921s on     60 node(s)                                    
TOTAL TIME:     34323.921s on     60 node(s)                                    
================= AVERAGE TIMINGS FROM ALL NODES (CUMULATIVE) ==================
|| TAG                                    #calls    cpu time   %total  Gflops ||
|| work_imbalance                       :     1        0.00s   0.000%  ------ ||
|| sparse_set_to_garbage                :   182        0.03s   0.000%  ------ ||
|| parallel_prepare_fd_halos_request    :  1953        0.03s   0.000%  ------ ||
|| ngwfs_initialise_from_radial         :     1        0.11s   0.000%  ------ ||
|| basis_extract_function_from_box      :  3596        0.16s   0.000%  ------ ||
|| parallel_prepare_fd_halos_alloc      :  1953        0.17s   0.000%  ------ ||
|| parallel_prepare_fd_halos_satisfy    :  1953        0.65s   0.002%  ------ ||
|| pseudopotentials_nonlocal_mat        :    31        2.55s   0.007%  ------ ||
|| openbc_locps_radial                  :     1        2.96s   0.009%  ------ ||
|| density_init_guess_real              :     1        5.06s   0.015%  ------ ||
|| restart_kernel_read                  :     1        5.79s   0.017%  ------ ||
|| restart_ngwfs_tightbox_input         :     1        6.78s   0.020%  ------ ||
|| parallel_prepare_fd_halos_comms_imbal:  1953       10.62s   0.031%  ------ ||
|| parallel_prepare_fd_halos_clear      :  1953       18.79s   0.055%  ------ ||
|| sparse_init                          :     2       22.47s   0.065%  ------ ||
|| parallel_prepare_fd_halos_comms_wait :  1953       23.14s   0.067%  ------ ||
|| projectors_func_ovlp_box             :    31       27.29s   0.080%  ------ ||
|| function_ops_brappd_ketppd           :    31       30.03s   0.087%  ------ ||
|| palser_mano_kernel_optimise          :     1       32.65s   0.095%  ------ ||
|| projectors_init_fftbox_recip         :   143       34.92s   0.102%  ------ ||
|| basis_copy_function_to_box           : 58633       45.26s   0.132%  ------ ||
|| ngwf_gradient_coeffs                 :    16       46.64s   0.136%  ------ ||
|| pseudo_make_structure_factor         :     2       51.62s   0.150%  ------ ||
|| parallel_prepare_fd_halos            :  1953       53.41s   0.156%  ------ ||
|| fourier_apply_box_pair               :  5191       54.61s   0.159% 586.231 ||
|| sparse_embed_hotelling_invert_embed  :    31       74.75s   0.218%  ------ ||
|| restart_kernel_write                 :    17       93.86s   0.273%  ------ ||
|| finite_difference_derivative         :  1953      123.14s   0.359%  ------ ||
|| integrals_kinetic                    :    31      151.79s   0.442%  ------ ||
|| projectors_gradient_batch            :   112      178.18s   0.519%  ------ ||
|| basis_dot_function_with_box          : 8.930M     179.25s   0.522%  ------ ||
|| sparse_trace                         :  5571      201.62s   0.587%  ------ ||
|| openbc_locps_on_grid                 :     2      261.60s   0.762%  ------ ||
|| kernel_purify                        :   496      280.45s   0.817%  ------ ||
|| lnv_gradient_norm                    :   160      402.29s   1.172%  ------ ||
|| basis_add_function_to_box            : 18.61M     421.97s   1.229%  ------ ||
|| kernel_fix                           :   160      532.93s   1.553%  ------ ||
|| hamiltonian_energy_components        :     4      539.94s   1.573%  ------ ||
|| integrals_locpot_mat_els_batch       :  1183      724.32s   2.110%  ------ ||
|| ngwf_gradient_build_batch            :   112      788.68s   2.298%  ------ ||
|| restart_ngwfs_tightbox_output        :    14      909.20s   2.649%  ------ ||
|| ngwf_gradient_batch                  :   112     1074.71s   3.131%  ------ ||
|| density_batch_row_sums               :  2268     1102.54s   3.212%  ------ ||
|| ngwf_gradient_lnv                    :    16     1202.62s   3.504%  ------ ||
|| cell_grid_deposit_box_real           : 37312     1405.36s   4.094%  ------ ||
|| fourier_apply_cell_forward           :  9101     1435.27s   4.182%  85.153 ||
|| fourier_apply_cell_backward          :  9753     1605.91s   4.679%  81.557 ||
|| cell_grid_extract_box_real           : 40809     1671.04s   4.868%  ------ ||
|| sparse_product                       :  6795     1783.08s   5.195%  ------ ||
|| density_fftbox_deposit_to_cell       : 35316     2075.37s   6.046%  ------ ||
|| potential_apply_to_ngwf_batch        :  1183     3879.09s  11.301%  ------ ||
|| density_fftbox_interpolate_multiply  : 35316     3937.39s  11.471%  ------ ||
|| xc_energy_potential                  :   325     3975.60s  11.583%  ------ ||
|| multigrid_prepare_bound_cond         :   325     4588.90s  13.369%  ------ ||
|| integrals_locpot_dbl_grid            :   169     4622.62s  13.468%  ------ ||
|| fourier_apply_box                    : 122.4k    4837.10s  14.093% 755.990 ||
|| nlxc_vdw_energy                      :   650     6443.47s  18.773%  ------ ||
|| dl_mg_solver_calls                   :   325     6979.27s  20.334%  ------ ||
|| density_batch_interp_deposit         :  2268     6986.65s  20.355%  ------ ||
|| density_on_dbl_grid                  :   324     8394.35s  24.456%  ------ ||
|| multigrid_calculate_hartree          :   325    11737.61s  34.197%  ------ ||
|| hamiltonian_lhxc_calculate           :   320    23978.40s  69.859%  ------ ||
|| lnv_denskernel_optimise_cg           :    16    29237.73s  85.182%  ------ ||
|| ngwf_cg_optimise                     :     2    33405.86s  97.325%  ------ ||
|| total_time                           :     1    34323.92s 100.000%  ------ ||
================================================================================
Overhead of generating timer report: 
- 0 ms averaging over threads,
- 15 ms ensuring consistency across MPI ranks,
- 0 ms printing in order.

Job completed: 19-01-2020 07:06 (-0000)

Application 38634508 resources: utime ~6924183s, stime ~237304s, Rss ~3851672, inblocks ~316711251, outblocks ~67976050
