 +---------------------------------------------------------------+
 |                                                               |
 |        ####### #     # ####### ####### ####### ######         |
 |        #     # ##    # #          #    #       #     #        |
 |        #     # # #   # #          #    #       #     #        |
 |        #     # #  #  # #####      #    #####   ######         |
 |        #     # #   # # #          #    #       #              |
 |        #     # #    ## #          #    #       #              |
 |        ####### #     # #######    #    ####### #              |
 |                                                               |
 |        Linear-Scaling Ab Initio Total Energy Program          |
 |                                                               |
 |          Release for academic collaborators of ODG            |
 |                                             Version 5.3.2.6.  |
 |                                                               |
 +---------------------------------------------------------------+
 |                                                               |
 |  Authors:                                                     |
 |  Jacek Dziedzic, Peter D. Haynes, Nicholas D. M. Hine,        |
 |  Arash. A. Mostofi, Mike C. Payne and Chris-Kriton Skylaris   |
 |                                                               |
 |  Contributors:                                                |
 |  J. Aarons, L. Andrinopoulos, P. W. Avraam, R. A. Bell,       |
 |  A. Bhandari, G. A. Bramley, R. J. Charlton, S. J. Clark,     |
 |  R. J. Clements, G. C. Constantinescu, F. Corsetti,           |
 |  N. Corsini, O. Dieguez, S. M. M. Dubois, K. K. B. Duff,      |
 |  J. M. Escartin, A. Greco, H. Helal, Q. O. Hill, L. P. Lee,   |
 |  J.-H. Li, E. B. Linscott, G. Moynihan, D. D. O`Regan,        |
 |  O. K. Okan, M. J. S. Phipps, C. J. Pickard,                  |
 |  J. C. A. Prentice, M. I. J. Probert, L. E. Ratcliff,         |
 |  M. Robinson, A. Ruiz Serrano, J. S. Spencer, E. W. Tait,     |
 |  G. Teobaldi, D. Turban, V. Vitale, K. A. Wilkinson,          |
 |  C. Weber, J. C. Womack, N. Yeung and T. J. Zuehlsdorff       |
 |                                                               |
 |                                   Copyright (c) 2004-2019     |
 |                                                               |
 |  Please cite:                                                 |
 |  "Introducing ONETEP: Linear-scaling density functional       |
 |   simulations on parallel computers".                         |
 |   C.-K. Skylaris, P. D. Haynes, A. A. Mostofi, M. C. Payne.   |
 |   J. Chem. Phys. 122 084119 (2005).                           |
 |                                                               |
 |          in all publications arising from your use of ONETEP. |
 |                                                               |
 +---------------------------------------------------------------+
 |                                                               |
 |   ONETEP is based on developments described in the following  |
 |   publications:                                               |
 |                                                               |
 |  "Nonorthogonal generalized Wannier function pseudopotential  |
 |   plane-wave method".                                         |
 |   C.-K. Skylaris, A. A. Mostofi, P. D. Haynes, O. Dieguez,    |
 |   M. C. Payne.                                                |
 |   Phys. Rev. B 66 035119 (2002).                              |
 |                                                               |
 |  "Preconditioned iterative minimization for linear-scaling    |
 |   electronic structure calculations".                         |
 |   A. A. Mostofi, P. D. Haynes, C.-K. Skylaris, M. C. Payne.   |
 |   J. Chem. Phys. 119(17), pp.8842-8848 (2003).                |
 |                                                               |
 |  "Total-energy calculations on a real space grid with         |
 |   localized functions and a plane-wave basis".                |
 |   A. A. Mostofi, C.-K. Skylaris, P. D. Haynes, M. C. Payne.   |
 |   Comput. Phys. Commun. 147, pp.788-802 (2002).               |
 |                                                               |
 |  "Accurate kinetic energy evaluation in electronic structure  |
 |   calculations with localized functions on real space grids"  |
 |   C.-K. Skylaris, A. A. Mostofi, P. D. Haynes, C. J. Pickard, |
 |   M. C. Payne.                                                |
 |   Comput. Phys. Commun. 140, pp.315-322 (2001).               |
 |                                                               |
 |  "Accurate ionic forces and geometry optimization in linear-  |
 |   scaling density-functional theory with local orbitals"      |
 |   N. D. M. Hine, M. Robinson, P. D. Haynes, C.-K. Skylaris,   |
 |   M. C. Payne, and A. A. Mostofi.                             |
 |   Phys. Rev. B 83 195102 (2011).                              |
 |                                                               |
 +---------------------------------------------------------------+

Job started: 18-01-2020 21:43 (-0000)
 
Reading parameters from file "complex_21001.dat" ...... done

If your calculation crashes here, before "Checking processes and threads..."
is displayed, then your stack size is insufficient.
If so, use "ulimit -s unlimited" at runtime.
You can disable this check with "check_stack_size F".

Checking processes and threads...
   Determining the default number of threads...
      No default threads set at compilation time: defaulting to 1.
      OpenMP library call suggests 4 threads.
      Hybrid MPI-OpenMP compilation detected.
      Number of MPI processes > 1.
      OMP_NUM_THREADS environment variable present and
      its value matches the one obtained from the OpenMP library call.
      Using this value as default.
      Default threads: 4
      Default applies to threads_max and threads_num_fftboxes.
      Settings in the input file override this default.
   ... done

   Running with 60 MPI processes.
   There are 6 MPI processes running on the same node as the root process.
   Each MPI process is using: 
               1 threads for simulation cell FFTs.
               1 threads for parallel FFT box operations.
               4 threads for loops over batched FFT box operations.
               4 threads in other parallel regions.
... done

Basic input checks...... done

Reading geometry and species blocks from file "complex_21001.dat" ...
  <species_atomic_set> block not found: NGWF initialisation set to SOLVE
IS: Dielectric excluded regions:
    - NONE.
    
  Number of PPD points along a3 set to 1.  This is 
  the default value, it may have been provided also in the input file.
... done
 Writing xyz coordinates to file "complex_21001.xyz" ... done


--------------------------------------------------------------------------------
---------------------------------- INPUT FILE ----------------------------------
--------------------------------------------------------------------------------

cutoff_energy       : 800 eV                                                    
xc_functional VV10                                                              
task SINGLEPOINT                                                                
write_xyz true                                                                  
output_detail VERBOSE                                                           
ngwf_threshold_orig : 0.000002                                                  
kernel_cutoff       : 1000                                                      
k_zero              : 3.5                                                       
elec_cg_max 0                                                                   
occ_mix 1.0                                                                     
dispersion 0                                                                    
maxit_ngwf_cg 40                                                                
minit_lnv 10                                                                    
maxit_lnv 10                                                                    
write_denskern T                                                                
write_tightbox_ngwfs T                                                          
charge 9                                                                        
is_implicit_solvent T                                                           
is_auto_solvation T                                                             
is_include_apolar T                                                             
is_smeared_ion_rep T                                                            
is_solvent_surf_tension 4.7624E-5 Ha/bohr**2                                    
is_apolar_scaling_factor 0.281075                                               
is_solvation_beta 1.3                                                           
is_density_threshold 0.00035                                                    
is_bulk_permittivity 78.54                                                      
is_dielectric_model fix_initial                                                 
is_smeared_ion_width 0.8                                                        
mg_defco_fd_order 8                                                             
is_bc_coarseness 10                                                             
is_bc_surface_coarseness 1                                                      
fine_grid_scale 2.0                                                             
%block species                                                                  
N   N   7 4 8.0                                                                 
H   H   1 1 8.0                                                                 
C   C   6 4 8.0                                                                 
S   S  16 9 8.0                                                                 
O   O   8 4 8.0                                                                 
%endblock species                                                               
%block species_pot                                                              
N   N_00.recpot                                                                 
H   H_04.recpot                                                                 
C   C_01.recpot                                                                 
S   S_00.recpot                                                                 
O   O_02.recpot                                                                 
%endblock species_pot                                                           
%block lattice_cart                                                             
135.996   0.000   0.000                                                         
0.000 142.663   0.000                                                           
0.000   0.000   160.158                                                         
%endblock lattice_cart                                                          
%block positions_abs                                                            
     Hash =  -000006514386263481662703
%endblock positions_abs                                                         

--------------------------------------------------------------------------------
-------------------------------- END INPUT FILE --------------------------------
--------------------------------------------------------------------------------


 
 ESDF WARNING(1): "kernelcutoff" (esdf_physical) has no units. Assume "bohr".
 ESDF WARNING(2): "kzero" (esdf_physical) has no units. Assume "1/bohr".
 ESDF WARNING(3
 ): "issmearedionwidth" (esdf_physical) has no units. Assume "bohr".
<<<<<<<<<<<<<<<<<<<<<<<<<<<<<<<<< Full system >>>>>>>>>>>>>>>>>>>>>>>>>>>>>>>>>>
<<<<<<<<<<<<<<<<<<<<<<<<< Pseudopotential information >>>>>>>>>>>>>>>>>>>>>>>>>>
File: N_00.recpot [ 2001 points up to Gmax=  52.9 (1/bohr)]
  Atomic number:  7;  ionic charge:  5.000000
    Shell 1: l = 0; rc = 1.48 bohr
File: H_04.recpot [ 2001 points up to Gmax=  52.9 (1/bohr)]
  Atomic number:  1;  ionic charge:  1.000000
    Local potential
File: C_01.recpot [ 2001 points up to Gmax=  52.9 (1/bohr)]
  Atomic number:  6;  ionic charge:  4.000000
    Shell 1: l = 0; rc = 1.48 bohr
File: S_00.recpot [ 2001 points up to Gmax=  52.9 (1/bohr)]
  Atomic number: 16;  ionic charge:  6.000000
    Shell 1: l = 0; rc = 1.90 bohr
    Shell 2: l = 2; rc = 1.84 bohr
File: O_02.recpot [ 2001 points up to Gmax=  52.9 (1/bohr)]
  Atomic number:  8;  ionic charge:  6.000000
    Shell 1: l = 0; rc = 1.31 bohr
<<<<<<<<<<<<<<<<<<<<<<<<<<<<<<<<<<<<<<<<>>>>>>>>>>>>>>>>>>>>>>>>>>>>>>>>>>>>>>>>

-------------------------- Atom counting information ---------------------------
Symbol    Natoms    Nngwfs    Nprojs
  N        236       944       236
  H       1317      1317         0
  C        816      3264       816
  S          6        54        36
  O        240       960       240
.......   ......    ......    ......
Totals:   2615      6539      1328
--------------------------------------------------------------------------------

=============================== PSINC grid sizes ===============================
                      Simulation cell:  270 x 286 x 315
                              FFT-box:   99 x 105 x  99
                                  PPD:    5 x  11 x   1
Grid space d1=  0.503688888889a0 (KE cutoff=  29.94189Eh = 814.76038eV)
Grid space d2=  0.498821678322a0 (KE cutoff=  30.52906Eh = 830.73786eV)
Grid space d3=  0.508438095238a0 (KE cutoff=  29.38514Eh = 799.61048eV)
================================================================================

********************* Fourier parallelisation information **********************
       Coarse grid (whole simulation cell) dimensions:    270   286   315
          Real-space ('12') slabs/node (min max mean):      5     6     5
         Recip-space ('23') slabs/node (min max mean):      2     3     2
********************************************************************************

********************* Fourier parallelisation information **********************
       Double grid (whole simulation cell) dimensions:    540   572   630
          Real-space ('12') slabs/node (min max mean):     10    11    10
         Recip-space ('23') slabs/node (min max mean):      4     5     4
********************************************************************************
ONETEP fine grid is 540 x 572 x 630 gridpoints, 135.9960 x 142.6630 x 160.1580 bohr.
FD multigrid is     537 x 569 x 625 gridpoints, 135.2405 x 141.9148 x 158.8869 bohr.


Calculating local pseudopotential in open BC on a radial grid ...
Discrepancy between calculated realspace psloc and -Z/x on [5a0,253.965a0]:
max |rel. diff| # avg |rel. diff| #  avg rel. diff #  f # pseudopotential file
 0.000259282084    0.000004141996   0.000000074978   54  'N_00.recpot'
 0.000405386992    0.000016970607  -0.000000075982   54  'H_04.recpot'
 0.000371694516    0.000017434762   0.000000149329   54  'C_01.recpot'
 0.000461642895    0.000020341726   0.000000491514   54  'S_00.recpot'
 0.000682525123    0.000027368244   0.000000159803   54  'O_02.recpot'
... done

Atom SCF Calculation for N  : Z (AE atom) =   7 : Z (PS atom) =   5
Config String:
Orbitals (num,occ):  2     2.00 3.00
Orbitals   (num,l):  2        0    1
Real-space Grid (nr,dr,rmax): 1203    0.0066555740    8.0000000000
Spherical Bessel Basis (nsws,lmax,cutoff):   47    1  176.3951722778
Confining potential (l,width,scale):  0    3.0000000000  100.0000000000
Confining potential (l,width,scale):  1    3.0000000000  100.0000000000
  1         -4.7366890484   -3.4501654188    7.0523828109   -1.9619316308
  2         -9.7225420322   -2.0763080851    8.3068355706   -2.2908832437
  3         -9.7134243553   -2.1270543915    8.2534567806   -2.2819809971
  4         -9.7235185949   -2.1427582218    8.2369947390   -2.2802814234
  5         -9.7258373845   -2.1477905863    8.2317116314   -2.2798536235
  6         -9.7268932325   -2.1503512400    8.2290229806   -2.2796830099
  7         -9.7273189469   -2.1516634231    8.2276451699   -2.2796169657
  8         -9.7274675212   -2.1523365544    8.2269384796   -2.2795940092
  9         -9.7275041773   -2.1526817003    8.2265762312   -2.2795881371
 10         -9.7275008637   -2.1528585007    8.2263907413   -2.2795884060
 11         -9.7274868305   -2.1529489544    8.2262958841   -2.2795903922
 12         -9.7274755655   -2.1529859230    8.2262571347   -2.2795920452
 13         -9.7274662327   -2.1530083995    8.2262335832   -2.2795934369
 14         -9.7274589439   -2.1530220534    8.2262192809   -2.2795945372
 15         -9.7274534633   -2.1530303399    8.2262106039   -2.2795953734
 16         -9.7274494492   -2.1530353634    8.2262053452   -2.2795959920
 17         -9.7274465654   -2.1530384053    8.2262021621   -2.2795964406
 18         -9.7274445237   -2.1530402447    8.2262002378   -2.2795967611
 19         -9.7274430947   -2.1530413553    8.2261990762   -2.2795969874
 20         -9.7274421038   -2.1530420249    8.2261983762   -2.2795971458
 21         -9.7274414219   -2.1530424277    8.2261979551   -2.2795972557
 22         -9.7274409555   -2.1530426696    8.2261977024   -2.2795973315
 23         -9.7274406382   -2.1530428144    8.2261975510   -2.2795973835
 24         -9.7274404232   -2.1530429010    8.2261974606   -2.2795974190
 25         -9.7274402783   -2.1530429525    8.2261974067   -2.2795974432
 26         -9.7274401808   -2.1530429831    8.2261973748   -2.2795974596
Atom SCF converged after  26 iterations to a total energy of     -9.72744018

Atom SCF Calculation for H  : Z (AE atom) =   1 : Z (PS atom) =   1
Config String:
Orbitals (num,occ):  1     1.00
Orbitals   (num,l):  1        0
Real-space Grid (nr,dr,rmax): 1203    0.0066555740    8.0000000000
Spherical Bessel Basis (nsws,lmax,cutoff):   47    0  176.3951722778
Confining potential (l,width,scale):  0    3.0000000000  100.0000000000
  1         -0.3178661827   -0.2469879004    0.2820953124   -0.2487802071
  2         -0.3961824611   -0.2455070831    0.2902209900   -0.2567664324
  3         -0.4406462424   -0.2424227551    0.2948173255   -0.2622129794
  4         -0.4569739054   -0.2416771342    0.2960118236   -0.2639986016
  5         -0.4627745219   -0.2416114401    0.2961916694   -0.2644992007
  6         -0.4648634749   -0.2416666130    0.2961598921   -0.2646237065
  7         -0.4656347011   -0.2417155160    0.2961132802   -0.2646490719
  8         -0.4659271144   -0.2417438448    0.2960836537   -0.2646515522
  9         -0.4660407254   -0.2417580788    0.2960682004   -0.2646501482
 10         -0.4660857867   -0.2417647566    0.2960608087   -0.2646488305
 11         -0.4661039568   -0.2417677717    0.2960574330   -0.2646480606
 12         -0.4661113773   -0.2417691018    0.2960559329   -0.2646476727
 13         -0.4661144368   -0.2417696800    0.2960552775   -0.2646474903
 14         -0.4661157072   -0.2417699291    0.2960549942   -0.2646474079
 15         -0.4661162374   -0.2417700356    0.2960548727   -0.2646473715
 16         -0.4661164596   -0.2417700810    0.2960548208   -0.2646473556
 17         -0.4661165529   -0.2417701003    0.2960547987   -0.2646473488
Atom SCF converged after  17 iterations to a total energy of     -0.46611655

Atom SCF Calculation for C  : Z (AE atom) =   6 : Z (PS atom) =   4
Config String:
Orbitals (num,occ):  2     2.00 2.00
Orbitals   (num,l):  2        0    1
Real-space Grid (nr,dr,rmax): 1203    0.0066555740    8.0000000000
Spherical Bessel Basis (nsws,lmax,cutoff):   47    1  176.3951722778
Confining potential (l,width,scale):  0    3.0000000000  100.0000000000
Confining potential (l,width,scale):  1    3.0000000000  100.0000000000
  1         -5.2812238291   -1.3293161250    4.5135249990   -1.4716766231
  2         -5.3996591362   -1.3542148509    4.4876064308   -1.4645117417
  3         -5.4111847148   -1.3757224423    4.4645718036   -1.4593107263
  4         -5.4199203659   -1.3833334895    4.4563636676   -1.4579885221
  5         -5.4226876204   -1.3865104950    4.4529090432   -1.4575385943
  6         -5.4235070726   -1.3878131251    4.4514866831   -1.4573882877
  7         -5.4237271252   -1.3883401868    4.4509094528   -1.4573411661
  8         -5.4237693051   -1.3885521813    4.4506766230   -1.4573281030
  9         -5.4237656430   -1.3886371046    4.4505830704   -1.4573255254
 10         -5.4237547927   -1.3886709976    4.4505456041   -1.4573257244
 11         -5.4237478594   -1.3886817763    4.4505336403   -1.4573262476
 12         -5.4237429748   -1.3886873440    4.4505274417   -1.4573266921
 13         -5.4237397042   -1.3886902144    4.4505242350   -1.4573270222
 14         -5.4237375865   -1.3886916908    4.4505225792   -1.4573272507
 15         -5.4237362473   -1.3886924482    4.4505217259   -1.4573274021
 16         -5.4237354152   -1.3886928356    4.4505212873   -1.4573274996
 17         -5.4237349050   -1.3886930331    4.4505210623   -1.4573275610
 18         -5.4237345954   -1.3886931333    4.4505209473   -1.4573275991
 19         -5.4237344092   -1.3886931840    4.4505208887   -1.4573276224
 20         -5.4237342980   -1.3886932094    4.4505208590   -1.4573276366
 21         -5.4237342320   -1.3886932221    4.4505208440   -1.4573276451
Atom SCF converged after  21 iterations to a total energy of     -5.42373423

Atom SCF Calculation for S  : Z (AE atom) =  16 : Z (PS atom) =   6
Config String:
Orbitals (num,occ):  3     2.00 4.00 0.00
Orbitals   (num,l):  3        0    1    2
Real-space Grid (nr,dr,rmax): 1203    0.0066555740    8.0000000000
Spherical Bessel Basis (nsws,lmax,cutoff):   47    2  176.3951722778
Confining potential (l,width,scale):  0    3.0000000000  100.0000000000
Confining potential (l,width,scale):  1    3.0000000000  100.0000000000
Confining potential (l,width,scale):  2    3.0000000000  100.0000000000
  1        -12.4916237786   -1.0485914554   10.1554312477   -2.4822447765
  2         -9.9747083603   -2.4807597367    8.3138131863   -2.0618837268
  3        -10.1811370131   -2.3153496392    8.4906092179   -2.1137756843
  4        -10.1856385898   -2.2984912006    8.5093862195   -2.1218167101
  5        -10.1891317560   -2.2894783333    8.5195006030   -2.1261392389
  6        -10.1911142562   -2.2849160124    8.5246320974   -2.1283733378
  7        -10.1921506977   -2.2826473329    8.5271859473   -2.1295140514
  8        -10.1926851273   -2.2815219985    8.5284534218   -2.1300957983
  9        -10.1929632671   -2.2809620806    8.5290843811   -2.1303933136
 10        -10.1931100895   -2.2806822783    8.5293998452   -2.1305460626
 11        -10.1931885828   -2.2805418782    8.5295582201   -2.1306248009
 12        -10.1932309625   -2.2804711729    8.5296380158   -2.1306655459
 13        -10.1932540142   -2.2804354512    8.5296783476   -2.1306867097
 14        -10.1932666242   -2.2804173494    8.5296987927   -2.1306977435
 15        -10.1932735535   -2.2804081489    8.5297091868   -2.1307035175
 16        -10.1932773756   -2.2804034581    8.5297144867   -2.1307065505
 17        -10.1932794908   -2.2804010586    8.5297171976   -2.1307081499
 18        -10.1932806648   -2.2803998268    8.5297185890   -2.1307089965
 19        -10.1932813181   -2.2803991920    8.5297193057   -2.1307094466
 20        -10.1932816826   -2.2803988634    8.5297196763   -2.1307096867
 21        -10.1932818864   -2.2803986926    8.5297198688   -2.1307098154
 22        -10.1932820006   -2.2803986034    8.5297199692   -2.1307098847
 23        -10.1932820648   -2.2803985565    8.5297200219   -2.1307099221
Atom SCF converged after  23 iterations to a total energy of    -10.19328206

Atom SCF Calculation for O  : Z (AE atom) =   8 : Z (PS atom) =   6
Config String:
Orbitals (num,occ):  2     2.00 4.00
Orbitals   (num,l):  2        0    1
Real-space Grid (nr,dr,rmax): 1203    0.0066555740    8.0000000000
Spherical Bessel Basis (nsws,lmax,cutoff):   47    1  176.3951722778
Confining potential (l,width,scale):  0    3.0000000000  100.0000000000
Confining potential (l,width,scale):  1    3.0000000000  100.0000000000
  1         -1.9497477053   -7.5870966769   10.1554312477   -2.4822447765
  2        -15.9466298225   -3.1778351734   13.6353006614   -3.2931224232
  3        -16.0387051750   -3.0909030611   13.7305651010   -3.3194522996
  4        -15.9025031450   -3.1083023605   13.7128101414   -3.3180850501
  5        -15.8912953362   -3.1033022259   13.7185404266   -3.3206942093
  6        -15.8793912992   -3.1043100674   13.7175820250   -3.3209366960
  7        -15.8748748605   -3.1043975610   13.7175531476   -3.3211845618
  8        -15.8725354084   -3.1044655610   13.7175148333   -3.3213149154
  9        -15.8713193866   -3.1045129589   13.7174824743   -3.3213832909
 10        -15.8706863385   -3.1045436851   13.7174593895   -3.3214192053
 11        -15.8703562731   -3.1045627330   13.7174442347   -3.3214381098
 12        -15.8701839150   -3.1045741887   13.7174347673   -3.3214480859
 13        -15.8700937727   -3.1045809294   13.7174290448   -3.3214533647
 14        -15.8700465571   -3.1045848305   13.7174256662   -3.3214561658
 15        -15.8700217888   -3.1045870593   13.7174237063   -3.3214576563
 16        -15.8700087767   -3.1045883194   13.7174225849   -3.3214584516
 17        -15.8700019307   -3.1045890258   13.7174219502   -3.3214588771
 18        -15.8699983237   -3.1045894190   13.7174215942   -3.3214591053
 19        -15.8699964206   -3.1045896366   13.7174213960   -3.3214592281
 20        -15.8699954151   -3.1045897563   13.7174212864   -3.3214592942
 21        -15.8699948832   -3.1045898219   13.7174212260   -3.3214593299
 22        -15.8699946014   -3.1045898577   13.7174211930   -3.3214593493
 23        -15.8699944520   -3.1045898771   13.7174211750   -3.3214593597
 24        -15.8699943726   -3.1045898877   13.7174211652   -3.3214593654
Atom SCF converged after  24 iterations to a total energy of    -15.86999437

========================== Calculation in vacuum ==============================
= Adjusting the following parameters: 
= is_implicit_solvent: F
= is_include_apolar: F
= write_denskern: T
= write_tightbox_ngwfs: T
= restart read filename prefix: ""
= restart write filename prefix: "vacuum_"
===============================================================================

Determining parallel strategy ...
... using space-filling curve
... NGWF load balancing: max    109;  min    108;  average    109
... Projector load balancing: max     26;  min     21;  average     22
... done
Calculating direct Ion-Ion energy ...
Ion-Ion Energy        :    836121.56215361028444
Basis initialisation ...... NGWF spheres initialised
... Projector spheres initialised
... NGWF tight boxes initialised
... Tight-boxes gathered
... NGWF basis size (local,global):    1032759  62499929
... Nonlocal pseudopotential projector initialisation
... done

========================== Sparse matrix information ===========================
                        Overlap matrix filling:   6.74%
                        Density kernel filling: 100.00%
              NGWF-Proj overlap matrix filling:   1.76%
                    Hamiltonian matrix filling:   7.61%
                  NGWF diagonal matrix filling:   0.05%
                             KS matrix filling: 100.00% 
                           KSKS matrix filling: 100.00% 
================================================================================

Sparse matrix initialisation ... done

Generating smeared ion density ... done
Smeared ion self correction:     -14525.987107
Smeared ion non-self correction: -836073.365486
NGWF initialisation ...... done
============ Calculation of NGWF S^-1 using Hotelling algorithm ================ 
         Iteration  |  Frobenius norm and Maximum abs value    (of I-S*S_n^-1)   
               1       0.78638451E+02     0.98227858E+00
               2       0.76747004E+02     0.96504869E+00
               3       0.73691843E+02     0.93195581E+00
               4       0.69364087E+02     0.87062167E+00
               5       0.63994304E+02     0.76379407E+00
               6       0.57987159E+02     0.70473266E+00
               7       0.51979767E+02     0.67196640E+00
               8       0.46420769E+02     0.64469537E+00
               9       0.40264630E+02     0.60621434E+00
              10       0.31856924E+02     0.53897816E+00
              11       0.21200198E+02     0.42912350E+00
              12       0.10681286E+02     0.28299191E+00
              13       0.34587016E+01     0.13857854E+00
              14       0.53853085E+00     0.37634736E-01
              15       0.26409902E-01     0.34395073E-02
              16       0.17298572E-03     0.37061690E-04
              17       0.18222416E-07     0.48912242E-08
              18       0.90092942E-13     0.59952043E-14
================================================================================
Calculating local pseudopotential in open BC on the fine real space grid ...
... done

MG BCs: +ve charge blocks (gridpoints):     20445 (   16087855).
MG BCs: -ve charge blocks (gridpoints):      8169 (    1090620).
MG BCs:     Elided blocks (gridpoints):    173469 (  173792150).
MG BCs: Computational effort saved:  99.9850%.
MG BCs: Charge after coarse-graining:           -9.0002255.
MG DL_MG: Calling solver with defect correction order = 8
MG DL_MG: Solver finished
MG Hartree energy from (\int phi*rho dr):              1460.449153
MG Hartree energy from (\int eps (grad phi)^2 dr):     1459.827770
MG Discrepancy due to finite box and discretization:     -0.621383 (  -0.04255%)
MG Correction to account for finite box:                  0.466906
MG Remaining discrepancy, due to discretization:         -0.154477 (  -0.01058%)
Up spin density kernel initialisation ... 
======= Optimisation of K by Palser-Manolopoulos canonical purification ======== 
         Iteration  |  Band structure energy |    c_n   
               1       -2592.06593463697936    0.5267198
               2       -2768.81771515079572    0.5171370
               3       -2949.62365904641729    0.5159807
               4       -3100.00134510806811    0.5304756
               5       -3191.80319307299033    0.5681116
               6       -3229.80502244195213    0.6135834
               7       -3242.74361007722837    0.6243836
               8       -3248.45839077365235    0.6222516
               9       -3251.26402491858516    0.6347122
              10       -3252.44441046424572    0.6577148
              11       -3252.90855667930327    0.6778472
              12       -3253.10472105501185    0.6711666
              13       -3253.20514298431181    0.6166576
              14       -3253.26955096899519    0.5371814
              15       -3253.30522731372184    0.4725517
              16       -3253.31330537233089    0.4485568
              17       -3253.31459083631125    0.4403475
              18       -3253.31492886716660    0.4714864
              19       -3253.31502165476013    0.4952924
              20       -3253.31503817790008    0.4998734
              21       -3253.31504041370545    0.4999999
              22       -3253.31504313982532    0.5000000
              23       -3253.31504718317683    0.5000000
              24       -3253.31505309797922    0.5000000
              25       -3253.31506148488370    0.5000000
              26       -3253.31507257969588    0.5000000
              27       -3253.31508517946122    0.5000000
              28       -3253.31509550196279    0.5000000
              29       -3253.31509986050742    0.5000000
              30       -3253.31510038892975    0.5000000
              31       -3253.31510039546674    0.5000000
Termination criterion satisfied: band energy change below threshold.
Final occupancy bounds: [    0.00000000000021:    0.99999999999845]
Closest occupancy to 0.5:     0.99999999999962
================================================================================
... done

Writing density kernel to file "complex_21001.vacuum_dkn" ... done

>>> Optimising kernel for current NGWFs:
   Initial electron number for spin 1:    7228.00000000
     Final electron number for spin 1:    7228.00000000

=================== Penalty functional idempotency correction ==================
 RMS occupancy error at iteration   1:  0.000000 (step -0.5000 Ne1=   7228.0000)
            Final RMS occupancy error   :  0.000000 (Ne1=   7228.0000)
               Final occupancy bounds   : [ -0.0000,  1.0000]
================================================================================

................................................................................
<<<<<<<<<<<<<< LNV (Original version) density kernel optimisation >>>>>>>>>>>>>>
~~~~~~~~~~~~~~~~~~~~~~~~~~~~~~~~~~~~~~~~~~~~~~~~~~~~~~~~~~~~~~~~~~~~~~~~~~~~~~~~
   iter  |      energy (Eh)       | rms gradient |  commutator  |   dE (Eh)
MG BCs: +ve charge blocks (gridpoints):     30873 (   17229468).
MG BCs: -ve charge blocks (gridpoints):      8427 (    1118788).
MG BCs:     Elided blocks (gridpoints):    163038 (  172622369).
MG BCs: Computational effort saved:  99.9794%.
MG BCs: Charge after coarse-graining:           -9.0009801.
MG DL_MG: Calling solver with defect correction order = 8
MG DL_MG: Solver finished
MG Hartree energy from (\int phi*rho dr):              1423.265273
MG Hartree energy from (\int eps (grad phi)^2 dr):     1422.594146
MG Discrepancy due to finite box and discretization:     -0.671127 (  -0.04715%)
MG Correction to account for finite box:                  0.474505
MG Remaining discrepancy, due to discretization:         -0.196622 (  -0.01381%)
      ideal mu1:      -0.732514888714
             Q0:  -11579.287356224144
             G0:    -146.895130962204
   RMS gradient:       0.001853499030
MG BCs: +ve charge blocks (gridpoints):     30874 (   17306433).
MG BCs: -ve charge blocks (gridpoints):      8348 (    1101822).
MG BCs:     Elided blocks (gridpoints):    163037 (  172562370).
MG BCs: Computational effort saved:  99.9795%.
MG BCs: Charge after coarse-graining:           -9.0010001.
MG DL_MG: Calling solver with defect correction order = 8
MG DL_MG: Solver finished
MG Hartree energy from (\int phi*rho dr):              1443.471764
MG Hartree energy from (\int eps (grad phi)^2 dr):     1442.818531
MG Discrepancy due to finite box and discretization:     -0.653233 (  -0.04525%)
MG Correction to account for finite box:                  0.473021
MG Remaining discrepancy, due to discretization:         -0.180212 (  -0.01248%)
     Trial step:       0.500000000000
             Q1:  -11590.592614887515
 Quadratic coef:      62.142306817730
 Linear coef   :     -73.447565481102
           Qmin:  -11600.989740442530
Quadratic minimum step length (  0.295481328431) accepted
    Initial Ne1:    7228.00000000
      Final Ne1:    7228.00000000

=================== Penalty functional idempotency correction ==================
 RMS occupancy error at iteration   1:  0.003484 (step -0.4881 Ne1=   7228.0000)
 RMS occupancy error at iteration   2:  0.000027 (step -0.5000 Ne1=   7228.0000)
            Final RMS occupancy error   :  0.000000 (Ne1=   7228.0000)
               Final occupancy bounds   : [  0.0000,  1.0000]
================================================================================

    1        -1.157928735622E+04     1.8535E-03     1.6768E-03
MG BCs: +ve charge blocks (gridpoints):     30884 (   17275915).
MG BCs: -ve charge blocks (gridpoints):      8383 (    1109241).
MG BCs:     Elided blocks (gridpoints):    163027 (  172585469).
MG BCs: Computational effort saved:  99.9794%.
MG BCs: Charge after coarse-graining:           -9.0009922.
MG DL_MG: Calling solver with defect correction order = 8
MG DL_MG: Solver finished
MG Hartree energy from (\int phi*rho dr):              1427.021249
MG Hartree energy from (\int eps (grad phi)^2 dr):     1426.361716
MG Discrepancy due to finite box and discretization:     -0.659533 (  -0.04622%)
MG Correction to account for finite box:                  0.473497
MG Remaining discrepancy, due to discretization:         -0.186036 (  -0.01304%)
      ideal mu1:      -0.767381719440
             Q0:  -11601.427778720157
             G0:     -11.819037424827
   RMS gradient:       0.000521979381
MG BCs: +ve charge blocks (gridpoints):     30882 (   17292176).
MG BCs: -ve charge blocks (gridpoints):      8350 (    1104761).
MG BCs:     Elided blocks (gridpoints):    163028 (  172573688).
MG BCs: Computational effort saved:  99.9795%.
MG BCs: Charge after coarse-graining:           -9.0009959.
MG DL_MG: Calling solver with defect correction order = 8
MG DL_MG: Solver finished
MG Hartree energy from (\int phi*rho dr):              1431.533226
MG Hartree energy from (\int eps (grad phi)^2 dr):     1430.877718
MG Discrepancy due to finite box and discretization:     -0.655507 (  -0.04579%)
MG Correction to account for finite box:                  0.472787
MG Remaining discrepancy, due to discretization:         -0.182720 (  -0.01276%)
     Trial step:       0.384370477815
             Q1:  -11604.230803844053
 Quadratic coef:       1.739863938396
 Linear coef   :      -4.542889062291
           Qmin:  -11604.393217651450
Quadratic minimum step length (  0.501807181872) accepted
    Initial Ne1:    7227.99990013
      Final Ne1:    7228.00000000

=================== Penalty functional idempotency correction ==================
 RMS occupancy error at iteration   1:  0.001843 (step -0.4929 Ne1=   7228.0000)
 RMS occupancy error at iteration   2:  0.000010 (step -0.5001 Ne1=   7228.0000)
            Final RMS occupancy error   :  0.000000 (Ne1=   7228.0000)
               Final occupancy bounds   : [  0.0000,  1.0000]
================================================================================

    2        -1.160142777872E+04     5.2198E-04     4.7222E-04    -2.2140E+01
MG BCs: +ve charge blocks (gridpoints):     30887 (   17297203).
MG BCs: -ve charge blocks (gridpoints):      8342 (    1103360).
MG BCs:     Elided blocks (gridpoints):    163022 (  172570062).
MG BCs: Computational effort saved:  99.9795%.
MG BCs: Charge after coarse-graining:           -9.0009971.
MG DL_MG: Calling solver with defect correction order = 8
MG DL_MG: Solver finished
MG Hartree energy from (\int phi*rho dr):              1432.952857
MG Hartree energy from (\int eps (grad phi)^2 dr):     1432.298490
MG Discrepancy due to finite box and discretization:     -0.654366 (  -0.04567%)
MG Correction to account for finite box:                  0.472588
MG Remaining discrepancy, due to discretization:         -0.181778 (  -0.01269%)
      ideal mu1:      -0.787072038919
             Q0:  -11604.429396734107
             G0:      -1.884817956766
   RMS gradient:       0.000208721424
MG BCs: +ve charge blocks (gridpoints):     30890 (   17296685).
MG BCs: -ve charge blocks (gridpoints):      8348 (    1104151).
MG BCs:     Elided blocks (gridpoints):    163019 (  172569789).
MG BCs: Computational effort saved:  99.9795%.
MG BCs: Charge after coarse-graining:           -9.0009970.
MG DL_MG: Calling solver with defect correction order = 8
MG DL_MG: Solver finished
MG Hartree energy from (\int phi*rho dr):              1431.336197
MG Hartree energy from (\int eps (grad phi)^2 dr):     1430.682291
MG Discrepancy due to finite box and discretization:     -0.653906 (  -0.04568%)
MG Correction to account for finite box:                  0.472253
MG Remaining discrepancy, due to discretization:         -0.181653 (  -0.01269%)
     Trial step:       0.439180903805
             Q1:  -11604.902026517200
 Quadratic coef:       0.355146270667
 Linear coef   :      -0.827776053760
           Qmin:  -11604.911742496806
Quadratic minimum step length (  0.511822121566) accepted
    Initial Ne1:    7227.99995569
      Final Ne1:    7228.00000000

=================== Penalty functional idempotency correction ==================
 RMS occupancy error at iteration   1:  0.000605 (step -0.4975 Ne1=   7228.0000)
 RMS occupancy error at iteration   2:  0.000001 (step -0.5000 Ne1=   7228.0000)
            Final RMS occupancy error   :  0.000000 (Ne1=   7228.0000)
               Final occupancy bounds   : [  0.0000,  1.0000]
================================================================================

    3        -1.160442939673E+04     2.0872E-04     1.8883E-04    -3.0016E+00
MG BCs: +ve charge blocks (gridpoints):     30890 (   17296613).
MG BCs: -ve charge blocks (gridpoints):      8352 (    1104310).
MG BCs:     Elided blocks (gridpoints):    163017 (  172569702).
MG BCs: Computational effort saved:  99.9795%.
MG BCs: Charge after coarse-graining:           -9.0009970.
MG DL_MG: Calling solver with defect correction order = 8
MG DL_MG: Solver finished
MG Hartree energy from (\int phi*rho dr):              1431.075838
MG Hartree energy from (\int eps (grad phi)^2 dr):     1430.421999
MG Discrepancy due to finite box and discretization:     -0.653839 (  -0.04569%)
MG Correction to account for finite box:                  0.472198
MG Remaining discrepancy, due to discretization:         -0.181641 (  -0.01269%)
      ideal mu1:      -0.788064635248
             Q0:  -11604.916417627013
             G0:      -0.465171127751
   RMS gradient:       0.000103733877
MG BCs: +ve charge blocks (gridpoints):     30893 (   17297469).
MG BCs: -ve charge blocks (gridpoints):      8345 (    1104091).
MG BCs:     Elided blocks (gridpoints):    163014 (  172569065).
MG BCs: Computational effort saved:  99.9795%.
MG BCs: Charge after coarse-graining:           -9.0009971.
MG DL_MG: Calling solver with defect correction order = 8
MG DL_MG: Solver finished
MG Hartree energy from (\int phi*rho dr):              1432.114157
MG Hartree energy from (\int eps (grad phi)^2 dr):     1431.460312
MG Discrepancy due to finite box and discretization:     -0.653845 (  -0.04566%)
MG Correction to account for finite box:                  0.472113
MG Remaining discrepancy, due to discretization:         -0.181733 (  -0.01269%)
     Trial step:       0.474112330505
             Q1:  -11605.020404151059
 Quadratic coef:       0.116556843415
 Linear coef   :      -0.220543367462
           Qmin:  -11605.020743069232
Quadratic minimum step length (  0.448546506840) accepted
    Initial Ne1:    7227.99999025
      Final Ne1:    7228.00000000

=================== Penalty functional idempotency correction ==================
 RMS occupancy error at iteration   1:  0.000200 (step -0.4992 Ne1=   7228.0000)
 RMS occupancy error at iteration   2:  0.000000 (step -0.5000 Ne1=   7228.0000)
            Final RMS occupancy error   :  0.000000 (Ne1=   7228.0000)
               Final occupancy bounds   : [  0.0000,  1.0000]
================================================================================

    4        -1.160491641763E+04     1.0373E-04     9.3846E-05    -4.8702E-01
MG BCs: +ve charge blocks (gridpoints):     30893 (   17297428).
MG BCs: -ve charge blocks (gridpoints):      8347 (    1104087).
MG BCs:     Elided blocks (gridpoints):    163014 (  172569110).
MG BCs: Computational effort saved:  99.9795%.
MG BCs: Charge after coarse-graining:           -9.0009971.
MG DL_MG: Calling solver with defect correction order = 8
MG DL_MG: Solver finished
MG Hartree energy from (\int phi*rho dr):              1432.058069
MG Hartree energy from (\int eps (grad phi)^2 dr):     1431.404224
MG Discrepancy due to finite box and discretization:     -0.653845 (  -0.04566%)
MG Correction to account for finite box:                  0.472117
MG Remaining discrepancy, due to discretization:         -0.181727 (  -0.01269%)
      ideal mu1:      -0.788467734564
             Q0:  -11605.021246841643
             G0:      -0.107873313478
   RMS gradient:       0.000050113945
MG BCs: +ve charge blocks (gridpoints):     30891 (   17297736).
MG BCs: -ve charge blocks (gridpoints):      8347 (    1103882).
MG BCs:     Elided blocks (gridpoints):    163016 (  172569007).
MG BCs: Computational effort saved:  99.9795%.
MG BCs: Charge after coarse-graining:           -9.0009970.
MG DL_MG: Calling solver with defect correction order = 8
MG DL_MG: Solver finished
MG Hartree energy from (\int phi*rho dr):              1432.443474
MG Hartree energy from (\int eps (grad phi)^2 dr):     1431.789492
MG Discrepancy due to finite box and discretization:     -0.653981 (  -0.04565%)
MG Correction to account for finite box:                  0.472109
MG Remaining discrepancy, due to discretization:         -0.181872 (  -0.01270%)
     Trial step:       0.461152284715
             Q1:  -11605.048332041595
 Quadratic coef:       0.022660825018
 Linear coef   :      -0.049746024970
           Qmin:  -11605.048547999018
Quadratic minimum step length (  0.506170738544) accepted
    Initial Ne1:    7227.99999743
      Final Ne1:    7228.00000000

=================== Penalty functional idempotency correction ==================
 RMS occupancy error at iteration   1:  0.000071 (step -0.4997 Ne1=   7228.0000)
            Final RMS occupancy error   :  0.000000 (Ne1=   7228.0000)
               Final occupancy bounds   : [ -0.0000,  1.0000]
================================================================================

    5        -1.160502124684E+04     5.0114E-05     4.5337E-05    -1.0483E-01
MG BCs: +ve charge blocks (gridpoints):     30891 (   17297790).
MG BCs: -ve charge blocks (gridpoints):      8347 (    1103856).
MG BCs:     Elided blocks (gridpoints):    163016 (  172568979).
MG BCs: Computational effort saved:  99.9795%.
MG BCs: Charge after coarse-graining:           -9.0009970.
MG DL_MG: Calling solver with defect correction order = 8
MG DL_MG: Solver finished
MG Hartree energy from (\int phi*rho dr):              1432.481093
MG Hartree energy from (\int eps (grad phi)^2 dr):     1431.827099
MG Discrepancy due to finite box and discretization:     -0.653995 (  -0.04565%)
MG Correction to account for finite box:                  0.472108
MG Remaining discrepancy, due to discretization:         -0.181886 (  -0.01270%)
      ideal mu1:      -0.788309803810
             Q0:  -11605.048606994329
             G0:      -0.031672307214
   RMS gradient:       0.000027178821
MG BCs: +ve charge blocks (gridpoints):     30889 (   17297391).
MG BCs: -ve charge blocks (gridpoints):      8349 (    1104086).
MG BCs:     Elided blocks (gridpoints):    163018 (  172569148).
MG BCs: Computational effort saved:  99.9795%.
MG BCs: Charge after coarse-graining:           -9.0009969.
MG DL_MG: Calling solver with defect correction order = 8
MG DL_MG: Solver finished
MG Hartree energy from (\int phi*rho dr):              1431.823067
MG Hartree energy from (\int eps (grad phi)^2 dr):     1431.169079
MG Discrepancy due to finite box and discretization:     -0.653988 (  -0.04568%)
MG Correction to account for finite box:                  0.472106
MG Remaining discrepancy, due to discretization:         -0.181881 (  -0.01270%)
     Trial step:       0.483137446836
             Q1:  -11605.058599485434
 Quadratic coef:       0.005309586539
 Linear coef   :      -0.015302077643
           Qmin:  -11605.059632032648
Quadratic minimum step length (  0.696194201723) accepted
    Initial Ne1:    7228.00034737
      Final Ne1:    7228.00000000

=================== Penalty functional idempotency correction ==================
 RMS occupancy error at iteration   1:  0.000040 (step -0.4998 Ne1=   7228.0000)
            Final RMS occupancy error   :  0.000000 (Ne1=   7228.0000)
               Final occupancy bounds   : [ -0.0000,  1.0000]
================================================================================

    6        -1.160504860699E+04     2.7179E-05     2.4588E-05    -2.7360E-02
MG BCs: +ve charge blocks (gridpoints):     30889 (   17297208).
MG BCs: -ve charge blocks (gridpoints):      8349 (    1104166).
MG BCs:     Elided blocks (gridpoints):    163018 (  172569251).
MG BCs: Computational effort saved:  99.9795%.
MG BCs: Charge after coarse-graining:           -9.0009968.
MG DL_MG: Calling solver with defect correction order = 8
MG DL_MG: Solver finished
MG Hartree energy from (\int phi*rho dr):              1431.532166
MG Hartree energy from (\int eps (grad phi)^2 dr):     1430.878182
MG Discrepancy due to finite box and discretization:     -0.653984 (  -0.04568%)
MG Correction to account for finite box:                  0.472105
MG Remaining discrepancy, due to discretization:         -0.181879 (  -0.01271%)
      ideal mu1:      -0.787924212438
             Q0:  -11605.059642461943
             G0:      -0.016646192629
   RMS gradient:       0.000019730865
MG BCs: +ve charge blocks (gridpoints):     30890 (   17297699).
MG BCs: -ve charge blocks (gridpoints):      8347 (    1103964).
MG BCs:     Elided blocks (gridpoints):    163017 (  172568962).
MG BCs: Computational effort saved:  99.9795%.
MG BCs: Charge after coarse-graining:           -9.0009969.
MG DL_MG: Calling solver with defect correction order = 8
MG DL_MG: Solver finished
MG Hartree energy from (\int phi*rho dr):              1432.181237
MG Hartree energy from (\int eps (grad phi)^2 dr):     1431.527288
MG Discrepancy due to finite box and discretization:     -0.653948 (  -0.04566%)
MG Correction to account for finite box:                  0.472091
MG Remaining discrepancy, due to discretization:         -0.181857 (  -0.01270%)
     Trial step:       0.579963351534
             Q1:  -11605.063912284444
 Quadratic coef:       0.005384359167
 Linear coef   :      -0.009654181668
           Qmin:  -11605.063969960387
Quadratic minimum step length (  0.519938527759) accepted
    Initial Ne1:    7228.00014705
      Final Ne1:    7228.00000000

=================== Penalty functional idempotency correction ==================
 RMS occupancy error at iteration   1:  0.000002 (step -0.5000 Ne1=   7228.0000)
            Final RMS occupancy error   :  0.000000 (Ne1=   7228.0000)
               Final occupancy bounds   : [  0.0000,  1.0000]
================================================================================

    7        -1.160505964246E+04     1.9731E-05     1.7850E-05    -1.1035E-02
MG BCs: +ve charge blocks (gridpoints):     30890 (   17297651).
MG BCs: -ve charge blocks (gridpoints):      8348 (    1103994).
MG BCs:     Elided blocks (gridpoints):    163017 (  172568980).
MG BCs: Computational effort saved:  99.9795%.
MG BCs: Charge after coarse-graining:           -9.0009969.
MG DL_MG: Calling solver with defect correction order = 8
MG DL_MG: Solver finished
MG Hartree energy from (\int phi*rho dr):              1432.113958
MG Hartree energy from (\int eps (grad phi)^2 dr):     1431.460006
MG Discrepancy due to finite box and discretization:     -0.653952 (  -0.04566%)
MG Correction to account for finite box:                  0.472093
MG Remaining discrepancy, due to discretization:         -0.181860 (  -0.01270%)
      ideal mu1:      -0.788313169153
             Q0:  -11605.063970111427
             G0:      -0.009776135534
   RMS gradient:       0.000015121316
MG BCs: +ve charge blocks (gridpoints):     30891 (   17297645).
MG BCs: -ve charge blocks (gridpoints):      8348 (    1103978).
MG BCs:     Elided blocks (gridpoints):    163016 (  172569002).
MG BCs: Computational effort saved:  99.9795%.
MG BCs: Charge after coarse-graining:           -9.0009970.
MG DL_MG: Calling solver with defect correction order = 8
MG DL_MG: Solver finished
MG Hartree energy from (\int phi*rho dr):              1432.178757
MG Hartree energy from (\int eps (grad phi)^2 dr):     1431.524858
MG Discrepancy due to finite box and discretization:     -0.653900 (  -0.04566%)
MG Correction to account for finite box:                  0.472070
MG Remaining discrepancy, due to discretization:         -0.181829 (  -0.01270%)
     Trial step:       0.549131396981
             Q1:  -11605.068003707565
 Quadratic coef:       0.001334786824
 Linear coef   :      -0.005368382963
           Qmin:  -11605.069367890143
Quadratic minimum step length (  1.104276571449) accepted
    Initial Ne1:    7228.00018223
      Final Ne1:    7228.00000000

=================== Penalty functional idempotency correction ==================
 RMS occupancy error at iteration   1:  0.000027 (step -0.4994 Ne1=   7228.0000)
            Final RMS occupancy error   :  0.000000 (Ne1=   7228.0000)
               Final occupancy bounds   : [ -0.0000,  1.0000]
================================================================================

    8        -1.160506397011E+04     1.5121E-05     1.3680E-05    -4.3276E-03
MG BCs: +ve charge blocks (gridpoints):     30890 (   17297724).
MG BCs: -ve charge blocks (gridpoints):      8347 (    1103946).
MG BCs:     Elided blocks (gridpoints):    163017 (  172568955).
MG BCs: Computational effort saved:  99.9795%.
MG BCs: Charge after coarse-graining:           -9.0009970.
MG DL_MG: Calling solver with defect correction order = 8
MG DL_MG: Solver finished
MG Hartree energy from (\int phi*rho dr):              1432.242050
MG Hartree energy from (\int eps (grad phi)^2 dr):     1431.588205
MG Discrepancy due to finite box and discretization:     -0.653844 (  -0.04565%)
MG Correction to account for finite box:                  0.472046
MG Remaining discrepancy, due to discretization:         -0.181798 (  -0.01269%)
      ideal mu1:      -0.788379926524
             Q0:  -11605.069352959865
             G0:      -0.014931871379
   RMS gradient:       0.000018737095
MG BCs: +ve charge blocks (gridpoints):     30890 (   17297586).
MG BCs: -ve charge blocks (gridpoints):      8346 (    1104090).
MG BCs:     Elided blocks (gridpoints):    163017 (  172568949).
MG BCs: Computational effort saved:  99.9795%.
MG BCs: Charge after coarse-graining:           -9.0009970.
MG DL_MG: Calling solver with defect correction order = 8
MG DL_MG: Solver finished
MG Hartree energy from (\int phi*rho dr):              1431.869960
MG Hartree energy from (\int eps (grad phi)^2 dr):     1431.216207
MG Discrepancy due to finite box and discretization:     -0.653752 (  -0.04566%)
MG Correction to account for finite box:                  0.472001
MG Remaining discrepancy, due to discretization:         -0.181751 (  -0.01269%)
     Trial step:       0.778712357892
             Q1:  -11605.076842212933
 Quadratic coef:       0.004138379702
 Linear coef   :      -0.011627632769
           Qmin:  -11605.077520519004
Quadratic minimum step length (  1.093976626553) accepted
    Initial Ne1:    7228.00050142
      Final Ne1:    7228.00000000

=================== Penalty functional idempotency correction ==================
 RMS occupancy error at iteration   1:  0.000166 (step -0.4961 Ne1=   7228.0000)
 RMS occupancy error at iteration   2:  0.000000 (step -0.5000 Ne1=   7228.0000)
            Final RMS occupancy error   :  0.000000 (Ne1=   7228.0000)
               Final occupancy bounds   : [  0.0000,  1.0000]
================================================================================

    9        -1.160506935296E+04     1.8737E-05     1.6951E-05    -5.3828E-03
MG BCs: +ve charge blocks (gridpoints):     30890 (   17297511).
MG BCs: -ve charge blocks (gridpoints):      8347 (    1104157).
MG BCs:     Elided blocks (gridpoints):    163017 (  172568957).
MG BCs: Computational effort saved:  99.9795%.
MG BCs: Charge after coarse-graining:           -9.0009970.
MG DL_MG: Calling solver with defect correction order = 8
MG DL_MG: Solver finished
MG Hartree energy from (\int phi*rho dr):              1431.714251
MG Hartree energy from (\int eps (grad phi)^2 dr):     1431.060541
MG Discrepancy due to finite box and discretization:     -0.653710 (  -0.04566%)
MG Correction to account for finite box:                  0.471978
MG Remaining discrepancy, due to discretization:         -0.181731 (  -0.01269%)
      ideal mu1:      -0.787734431495
   10        -1.160507742295E+04     2.2291E-05     2.0166E-05    -8.0700E-03
Finished density kernel iterations (  10)

Writing density kernel to file "complex_21001.vacuum_dkn" ... done


>>> Density kernel optimised for the current NGWF basis:
     ~~~~~~~~~~~~~~~~~~~~~~~~~~~~~~~~~~~~~~~~~~~~~~~~~~~~~~~~~~~
     Total energy                =  -1.16050774229520E+04  Eh
     Estimated bandgap           =  -2.7893E-01  Eh
     RMS occupancy error         =   5.5700E-12
     [H,K] commutator            =   2.0166E-05
     Occupancy bounds            = [  0.000:  1.000]
     ~~~~~~~~~~~~~~~~~~~~~~~~~~~~~~~~~~~~~~~~~~~~~~~~~~~~~~~~~~~




################################################################################
########################### NGWF CG iteration  001 #############################
################################################################################
****** Reciprocal space K.E. preconditioning with k_zero =  3.5000 a0^-1 *******

>>> Checking for convergence of NGWFs:   NOT CONVERGED
  ========================================================================
         NGWF RMS gradient =  1.5975E-03 >  2.0000E-06  | above tolerance
  ========================================================================

>>> Improving NGWFs using line search:
============ Calculation of NGWF S^-1 using Hotelling algorithm ================ 
         Iteration  |  Frobenius norm and Maximum abs value    (of I-S*S_n^-1)   
               1       0.19869476E+00     0.49386380E-02
               2       0.90931378E-03     0.34959929E-04
               3       0.32177479E-07     0.18589740E-08
               4       0.12815525E-12     0.64392935E-14
================================================================================
MG BCs: +ve charge blocks (gridpoints):     30424 (   17242949).
MG BCs: -ve charge blocks (gridpoints):      8366 (    1103751).
MG BCs:     Elided blocks (gridpoints):    163489 (  172623925).
MG BCs: Computational effort saved:  99.9797%.
MG BCs: Charge after coarse-graining:           -9.0009932.
MG DL_MG: Calling solver with defect correction order = 8
MG DL_MG: Solver finished
MG Hartree energy from (\int phi*rho dr):              1399.469323
MG Hartree energy from (\int eps (grad phi)^2 dr):     1398.816331
MG Discrepancy due to finite box and discretization:     -0.652992 (  -0.04666%)
MG Correction to account for finite box:                  0.471910
MG Remaining discrepancy, due to discretization:         -0.181081 (  -0.01294%)
============ Calculation of NGWF S^-1 using Hotelling algorithm ================ 
         Iteration  |  Frobenius norm and Maximum abs value    (of I-S*S_n^-1)   
               1       0.18770138E+01     0.38766517E-01
               2       0.73094443E-01     0.20621670E-02
               3       0.14865231E-03     0.65665023E-05
               4       0.11081758E-08     0.89659187E-10
               5       0.11074379E-12     0.57731597E-14
================================================================================
------------------------------- NGWF line search -------------------------------
RMS gradient                =       0.00159748457583
Trial step length           =               0.122474
Gradient along search dir.  =       -280.15442311792
Functional at step 0        =  -11605.07742295204662
Functional at step 1        =  -11636.77353537047748
Functional predicted        =  -11717.60150095460813
Selected quadratic step     =               0.803300
--------------------------- NGWF line search finished --------------------------
                                               
Writing NGWFs to file "complex_21001.vacuum_tightbox_ngwfs"....  done

>>> Optimising kernel for current NGWFs:
   Initial electron number for spin 1:    7263.54126002
     Final electron number for spin 1:    7228.00000000

=================== Penalty functional idempotency correction ==================
 RMS occupancy error at iteration   1:  0.004242 (step -0.4865 Ne1=   7228.0000)
 RMS occupancy error at iteration   2:  0.000066 (step -0.5002 Ne1=   7228.0000)
            Final RMS occupancy error   :  0.000000 (Ne1=   7228.0000)
               Final occupancy bounds   : [  0.0000,  1.0000]
================================================================================

................................................................................
<<<<<<<<<<<<<< LNV (Original version) density kernel optimisation >>>>>>>>>>>>>>
~~~~~~~~~~~~~~~~~~~~~~~~~~~~~~~~~~~~~~~~~~~~~~~~~~~~~~~~~~~~~~~~~~~~~~~~~~~~~~~~
   iter  |      energy (Eh)       | rms gradient |  commutator  |   dE (Eh)
MG BCs: +ve charge blocks (gridpoints):     24753 (   16969266).
MG BCs: -ve charge blocks (gridpoints):      8530 (    1086272).
MG BCs:     Elided blocks (gridpoints):    169161 (  172915087).
MG BCs: Computational effort saved:  99.9826%.
MG BCs: Charge after coarse-graining:           -9.0006747.
MG DL_MG: Calling solver with defect correction order = 8
MG DL_MG: Solver finished
MG Hartree energy from (\int phi*rho dr):              1243.241449
MG Hartree energy from (\int eps (grad phi)^2 dr):     1242.588000
MG Discrepancy due to finite box and discretization:     -0.653449 (  -0.05256%)
MG Correction to account for finite box:                  0.471572
MG Remaining discrepancy, due to discretization:         -0.181877 (  -0.01463%)
      ideal mu1:      -0.725853191259
             Q0:  -11716.632598406984
             G0:      -9.848369893785
   RMS gradient:       0.000479922199
MG BCs: +ve charge blocks (gridpoints):     24828 (   17001650).
MG BCs: -ve charge blocks (gridpoints):      8505 (    1077479).
MG BCs:     Elided blocks (gridpoints):    169086 (  172891496).
MG BCs: Computational effort saved:  99.9825%.
MG BCs: Charge after coarse-graining:           -9.0006665.
MG DL_MG: Calling solver with defect correction order = 8
MG DL_MG: Solver finished
MG Hartree energy from (\int phi*rho dr):              1270.826659
MG Hartree energy from (\int eps (grad phi)^2 dr):     1270.165868
MG Discrepancy due to finite box and discretization:     -0.660791 (  -0.05200%)
MG Correction to account for finite box:                  0.471490
MG Remaining discrepancy, due to discretization:         -0.189301 (  -0.01490%)
     Trial step:       0.922980562277
             Q1:  -11713.159913459443
 Quadratic coef:      12.562538929622
 Linear coef   :      -9.089853982081
           Qmin:  -11718.276880782514
Quadratic minimum step length (  0.333919703111) accepted
    Initial Ne1:    7227.99962349
      Final Ne1:    7228.00000000

=================== Penalty functional idempotency correction ==================
 RMS occupancy error at iteration   1:  0.000362 (step -0.4985 Ne1=   7228.0000)
 RMS occupancy error at iteration   2:  0.000000 (step -0.5000 Ne1=   7228.0000)
            Final RMS occupancy error   :  0.000000 (Ne1=   7228.0000)
               Final occupancy bounds   : [  0.0000,  1.0000]
================================================================================

    1        -1.171663259841E+04     4.7992E-04     4.3417E-04
MG BCs: +ve charge blocks (gridpoints):     24781 (   16981214).
MG BCs: -ve charge blocks (gridpoints):      8519 (    1083040).
MG BCs:     Elided blocks (gridpoints):    169133 (  172906371).
MG BCs: Computational effort saved:  99.9826%.
MG BCs: Charge after coarse-graining:           -9.0006717.
MG DL_MG: Calling solver with defect correction order = 8
MG DL_MG: Solver finished
MG Hartree energy from (\int phi*rho dr):              1251.793322
MG Hartree energy from (\int eps (grad phi)^2 dr):     1251.137352
MG Discrepancy due to finite box and discretization:     -0.655970 (  -0.05240%)
MG Correction to account for finite box:                  0.471520
MG Remaining discrepancy, due to discretization:         -0.184450 (  -0.01473%)
      ideal mu1:      -0.734716003760
             Q0:  -11718.234701894457
             G0:      -0.999454481437
   RMS gradient:       0.000154324892
MG BCs: +ve charge blocks (gridpoints):     24785 (   16982316).
MG BCs: -ve charge blocks (gridpoints):      8516 (    1083563).
MG BCs:     Elided blocks (gridpoints):    169129 (  172904746).
MG BCs: Computational effort saved:  99.9826%.
MG BCs: Charge after coarse-graining:           -9.0006713.
MG DL_MG: Calling solver with defect correction order = 8
MG DL_MG: Solver finished
MG Hartree energy from (\int phi*rho dr):              1253.722579
MG Hartree energy from (\int eps (grad phi)^2 dr):     1253.066272
MG Discrepancy due to finite box and discretization:     -0.656306 (  -0.05235%)
MG Correction to account for finite box:                  0.471555
MG Remaining discrepancy, due to discretization:         -0.184751 (  -0.01474%)
     Trial step:       0.555158891970
             Q1:  -11718.425241755904
 Quadratic coef:       0.364316181041
 Linear coef   :      -0.554856042488
           Qmin:  -11718.445964284043
Quadratic minimum step length (  0.422755400090) accepted
    Initial Ne1:    7227.99995070
      Final Ne1:    7228.00000000

=================== Penalty functional idempotency correction ==================
 RMS occupancy error at iteration   1:  0.000143 (step -0.4994 Ne1=   7228.0000)
            Final RMS occupancy error   :  0.000000 (Ne1=   7228.0000)
               Final occupancy bounds   : [ -0.0000,  1.0000]
================================================================================

    2        -1.171823470189E+04     1.5432E-04     1.3961E-04    -1.6021E+00
MG BCs: +ve charge blocks (gridpoints):     24785 (   16982055).
MG BCs: -ve charge blocks (gridpoints):      8516 (    1083411).
MG BCs:     Elided blocks (gridpoints):    169129 (  172905159).
MG BCs: Computational effort saved:  99.9826%.
MG BCs: Charge after coarse-graining:           -9.0006714.
MG DL_MG: Calling solver with defect correction order = 8
MG DL_MG: Solver finished
MG Hartree energy from (\int phi*rho dr):              1253.261019
MG Hartree energy from (\int eps (grad phi)^2 dr):     1252.604796
MG Discrepancy due to finite box and discretization:     -0.656223 (  -0.05236%)
MG Correction to account for finite box:                  0.471547
MG Remaining discrepancy, due to discretization:         -0.184676 (  -0.01474%)
      ideal mu1:      -0.736005546516
             Q0:  -11718.446488628979
             G0:      -0.155746182333
   RMS gradient:       0.000060283214
MG BCs: +ve charge blocks (gridpoints):     24783 (   16981092).
MG BCs: -ve charge blocks (gridpoints):      8518 (    1083913).
MG BCs:     Elided blocks (gridpoints):    169131 (  172905620).
MG BCs: Computational effort saved:  99.9826%.
MG BCs: Charge after coarse-graining:           -9.0006715.
MG DL_MG: Calling solver with defect correction order = 8
MG DL_MG: Solver finished
MG Hartree energy from (\int phi*rho dr):              1252.615546
MG Hartree energy from (\int eps (grad phi)^2 dr):     1251.959343
MG Discrepancy due to finite box and discretization:     -0.656203 (  -0.05239%)
MG Correction to account for finite box:                  0.471563
MG Remaining discrepancy, due to discretization:         -0.184640 (  -0.01474%)
     Trial step:       0.484454765162
             Q1:  -11718.494812974473
 Quadratic coef:       0.027127634692
 Linear coef   :      -0.075451980187
           Qmin:  -11718.498953591174
Quadratic minimum step length (  0.673723893687) accepted
    Initial Ne1:    7228.00065140
      Final Ne1:    7228.00000000

=================== Penalty functional idempotency correction ==================
 RMS occupancy error at iteration   1:  0.000067 (step -0.4998 Ne1=   7228.0000)
            Final RMS occupancy error   :  0.000000 (Ne1=   7228.0000)
               Final occupancy bounds   : [ -0.0000,  1.0000]
================================================================================

    3        -1.171844648863E+04     6.0283E-05     5.4537E-05    -2.1179E-01
MG BCs: +ve charge blocks (gridpoints):     24784 (   16980700).
MG BCs: -ve charge blocks (gridpoints):      8520 (    1084149).
MG BCs:     Elided blocks (gridpoints):    169130 (  172905776).
MG BCs: Computational effort saved:  99.9826%.
MG BCs: Charge after coarse-graining:           -9.0006716.
MG DL_MG: Calling solver with defect correction order = 8
MG DL_MG: Solver finished
MG Hartree energy from (\int phi*rho dr):              1252.363291
MG Hartree energy from (\int eps (grad phi)^2 dr):     1251.707095
MG Discrepancy due to finite box and discretization:     -0.656196 (  -0.05240%)
MG Correction to account for finite box:                  0.471570
MG Remaining discrepancy, due to discretization:         -0.184626 (  -0.01474%)
      ideal mu1:      -0.734976404688
             Q0:  -11718.499055048451
             G0:      -0.037058953824
   RMS gradient:       0.000029394854
MG BCs: +ve charge blocks (gridpoints):     24784 (   16980748).
MG BCs: -ve charge blocks (gridpoints):      8520 (    1084125).
MG BCs:     Elided blocks (gridpoints):    169130 (  172905752).
MG BCs: Computational effort saved:  99.9826%.
MG BCs: Charge after coarse-graining:           -9.0006715.
MG DL_MG: Calling solver with defect correction order = 8
MG DL_MG: Solver finished
MG Hartree energy from (\int phi*rho dr):              1252.486861
MG Hartree energy from (\int eps (grad phi)^2 dr):     1251.830785
MG Discrepancy due to finite box and discretization:     -0.656076 (  -0.05238%)
MG Correction to account for finite box:                  0.471558
MG Remaining discrepancy, due to discretization:         -0.184518 (  -0.01473%)
     Trial step:       0.571304429092
             Q1:  -11718.508468074608
 Quadratic coef:       0.011758918301
 Linear coef   :      -0.021171944457
           Qmin:  -11718.508585075377
Quadratic minimum step length (  0.514317105159) accepted
    Initial Ne1:    7228.00025110
      Final Ne1:    7228.00000000

=================== Penalty functional idempotency correction ==================
 RMS occupancy error at iteration   1:  0.000019 (step -0.4999 Ne1=   7228.0000)
            Final RMS occupancy error   :  0.000000 (Ne1=   7228.0000)
               Final occupancy bounds   : [ -0.0000,  1.0000]
================================================================================

    4        -1.171849905505E+04     2.9395E-05     2.6593E-05    -5.2566E-02
MG BCs: +ve charge blocks (gridpoints):     24784 (   16980746).
MG BCs: -ve charge blocks (gridpoints):      8520 (    1084120).
MG BCs:     Elided blocks (gridpoints):    169130 (  172905759).
MG BCs: Computational effort saved:  99.9826%.
MG BCs: Charge after coarse-graining:           -9.0006716.
MG DL_MG: Calling solver with defect correction order = 8
MG DL_MG: Solver finished
MG Hartree energy from (\int phi*rho dr):              1252.474366
MG Hartree energy from (\int eps (grad phi)^2 dr):     1251.818279
MG Discrepancy due to finite box and discretization:     -0.656088 (  -0.05238%)
MG Correction to account for finite box:                  0.471559
MG Remaining discrepancy, due to discretization:         -0.184529 (  -0.01473%)
      ideal mu1:      -0.734980442668
             Q0:  -11718.508590554702
             G0:      -0.013080083128
   RMS gradient:       0.000017486237
MG BCs: +ve charge blocks (gridpoints):     24783 (   16981340).
MG BCs: -ve charge blocks (gridpoints):      8518 (    1083891).
MG BCs:     Elided blocks (gridpoints):    169131 (  172905394).
MG BCs: Computational effort saved:  99.9826%.
MG BCs: Charge after coarse-graining:           -9.0006714.
MG DL_MG: Calling solver with defect correction order = 8
MG DL_MG: Solver finished
MG Hartree energy from (\int phi*rho dr):              1252.902072
MG Hartree energy from (\int eps (grad phi)^2 dr):     1252.246031
MG Discrepancy due to finite box and discretization:     -0.656041 (  -0.05236%)
MG Correction to account for finite box:                  0.471549
MG Remaining discrepancy, due to discretization:         -0.184492 (  -0.01473%)
     Trial step:       0.542062395057
             Q1:  -11718.512374419370
 Quadratic coef:       0.003306356521
 Linear coef   :      -0.007090221188
           Qmin:  -11718.512391659950
Quadratic minimum step length (  0.581205059804) accepted
    Initial Ne1:    7228.00011579
      Final Ne1:    7228.00000000

=================== Penalty functional idempotency correction ==================
 RMS occupancy error at iteration   1:  0.000012 (step -0.4999 Ne1=   7228.0000)
            Final RMS occupancy error   :  0.000000 (Ne1=   7228.0000)
               Final occupancy bounds   : [ -0.0000,  1.0000]
================================================================================

    5        -1.171850859055E+04     1.7486E-05     1.5819E-05    -9.5355E-03
MG BCs: +ve charge blocks (gridpoints):     24782 (   16981383).
MG BCs: -ve charge blocks (gridpoints):      8518 (    1083879).
MG BCs:     Elided blocks (gridpoints):    169132 (  172905363).
MG BCs: Computational effort saved:  99.9826%.
MG BCs: Charge after coarse-graining:           -9.0006714.
MG DL_MG: Calling solver with defect correction order = 8
MG DL_MG: Solver finished
MG Hartree energy from (\int phi*rho dr):              1252.932986
MG Hartree energy from (\int eps (grad phi)^2 dr):     1252.276948
MG Discrepancy due to finite box and discretization:     -0.656038 (  -0.05236%)
MG Correction to account for finite box:                  0.471548
MG Remaining discrepancy, due to discretization:         -0.184490 (  -0.01472%)
      ideal mu1:      -0.735389760661
             Q0:  -11718.512392959441
             G0:      -0.004795650228
   RMS gradient:       0.000010588741
MG BCs: +ve charge blocks (gridpoints):     24783 (   16981256).
MG BCs: -ve charge blocks (gridpoints):      8519 (    1083964).
MG BCs:     Elided blocks (gridpoints):    169131 (  172905405).
MG BCs: Computational effort saved:  99.9826%.
MG BCs: Charge after coarse-graining:           -9.0006714.
MG DL_MG: Calling solver with defect correction order = 8
MG DL_MG: Solver finished
MG Hartree energy from (\int phi*rho dr):              1252.842431
MG Hartree energy from (\int eps (grad phi)^2 dr):     1252.186412
MG Discrepancy due to finite box and discretization:     -0.656019 (  -0.05236%)
MG Correction to account for finite box:                  0.471534
MG Remaining discrepancy, due to discretization:         -0.184485 (  -0.01473%)
     Trial step:       0.561292621310
             Q1:  -11718.514187283465
 Quadratic coef:       0.000897439064
 Linear coef   :      -0.002691763087
           Qmin:  -11718.514411366265
Quadratic minimum step length (  0.841765652937) accepted
    Initial Ne1:    7228.00008391
      Final Ne1:    7228.00000000

=================== Penalty functional idempotency correction ==================
 RMS occupancy error at iteration   1:  0.000013 (step -0.4997 Ne1=   7228.0000)
            Final RMS occupancy error   :  0.000000 (Ne1=   7228.0000)
               Final occupancy bounds   : [ -0.0000,  1.0000]
================================================================================

    6        -1.171851239296E+04     1.0589E-05     9.5794E-06    -3.8024E-03
MG BCs: +ve charge blocks (gridpoints):     24782 (   16981223).
MG BCs: -ve charge blocks (gridpoints):      8519 (    1083983).
MG BCs:     Elided blocks (gridpoints):    169132 (  172905419).
MG BCs: Computational effort saved:  99.9826%.
MG BCs: Charge after coarse-graining:           -9.0006714.
MG DL_MG: Calling solver with defect correction order = 8
MG DL_MG: Solver finished
MG Hartree energy from (\int phi*rho dr):              1252.797007
MG Hartree energy from (\int eps (grad phi)^2 dr):     1252.140998
MG Discrepancy due to finite box and discretization:     -0.656009 (  -0.05236%)
MG Correction to account for finite box:                  0.471526
MG Remaining discrepancy, due to discretization:         -0.184483 (  -0.01473%)
      ideal mu1:      -0.735254944756
             Q0:  -11718.514410391799
             G0:      -0.003957542361
   RMS gradient:       0.000009620584
MG BCs: +ve charge blocks (gridpoints):     24783 (   16981089).
MG BCs: -ve charge blocks (gridpoints):      8519 (    1084022).
MG BCs:     Elided blocks (gridpoints):    169131 (  172905514).
MG BCs: Computational effort saved:  99.9826%.
MG BCs: Charge after coarse-graining:           -9.0006714.
MG DL_MG: Calling solver with defect correction order = 8
MG DL_MG: Solver finished
MG Hartree energy from (\int phi*rho dr):              1252.745434
MG Hartree energy from (\int eps (grad phi)^2 dr):     1252.089406
MG Discrepancy due to finite box and discretization:     -0.656028 (  -0.05237%)
MG Correction to account for finite box:                  0.471534
MG Remaining discrepancy, due to discretization:         -0.184494 (  -0.01473%)
     Trial step:       0.687369514792
             Q1:  -11718.515328329639
 Quadratic coef:       0.001802356133
 Linear coef   :      -0.002720293972
           Qmin:  -11718.515436825915
Quadratic minimum step length (  0.518722996294) accepted
    Initial Ne1:    7228.00007491
      Final Ne1:    7228.00000000

=================== Penalty functional idempotency correction ==================
 RMS occupancy error at iteration   1:  0.000001 (step -0.5000 Ne1=   7228.0000)
            Final RMS occupancy error   :  0.000000 (Ne1=   7228.0000)
               Final occupancy bounds   : [  0.0000,  1.0000]
================================================================================

    7        -1.171851441039E+04     9.6206E-06     8.7035E-06    -2.0174E-03
MG BCs: +ve charge blocks (gridpoints):     24783 (   16981133).
MG BCs: -ve charge blocks (gridpoints):      8519 (    1084007).
MG BCs:     Elided blocks (gridpoints):    169131 (  172905485).
MG BCs: Computational effort saved:  99.9826%.
MG BCs: Charge after coarse-graining:           -9.0006714.
MG DL_MG: Calling solver with defect correction order = 8
MG DL_MG: Solver finished
MG Hartree energy from (\int phi*rho dr):              1252.758001
MG Hartree energy from (\int eps (grad phi)^2 dr):     1252.101977
MG Discrepancy due to finite box and discretization:     -0.656023 (  -0.05237%)
MG Correction to account for finite box:                  0.471532
MG Remaining discrepancy, due to discretization:         -0.184491 (  -0.01473%)
      ideal mu1:      -0.735160420525
             Q0:  -11718.515436835587
             G0:      -0.002907021891
   RMS gradient:       0.000008245267
MG BCs: +ve charge blocks (gridpoints):     24782 (   16981081).
MG BCs: -ve charge blocks (gridpoints):      8518 (    1084029).
MG BCs:     Elided blocks (gridpoints):    169132 (  172905515).
MG BCs: Computational effort saved:  99.9826%.
MG BCs: Charge after coarse-graining:           -9.0006714.
MG DL_MG: Calling solver with defect correction order = 8
MG DL_MG: Solver finished
MG Hartree energy from (\int phi*rho dr):              1252.712721
MG Hartree energy from (\int eps (grad phi)^2 dr):     1252.056694
MG Discrepancy due to finite box and discretization:     -0.656026 (  -0.05237%)
MG Correction to account for finite box:                  0.471526
MG Remaining discrepancy, due to discretization:         -0.184500 (  -0.01473%)
     Trial step:       0.597121741586
             Q1:  -11718.516863565310
 Quadratic coef:       0.000309116251
 Linear coef   :      -0.001735845974
           Qmin:  -11718.517873751505
Quadratic minimum step length (  1.676572113222) accepted
    Initial Ne1:    7228.00017724
      Final Ne1:    7228.00000000

=================== Penalty functional idempotency correction ==================
 RMS occupancy error at iteration   1:  0.000048 (step -0.4974 Ne1=   7228.0000)
[...]
MG Hartree energy from (\int phi*rho dr):              1209.144383
MG Hartree energy from (\int eps (grad phi)^2 dr):     1208.954105
MG Discrepancy due to finite box and discretization:     -0.190279 (  -0.01574%)
MG Correction to account for finite box:                  0.006453
MG Remaining discrepancy, due to discretization:         -0.183826 (  -0.01520%)
             Q2:  -11752.279748759931
  Cubic LS coeff:       1.061073460631
Predicted energy:  -11752.279748760167
Cubic minimum step length accepted
    Initial Ne1:    7228.00000000
      Final Ne1:    7228.00000000

=================== Penalty functional idempotency correction ==================
 RMS occupancy error at iteration   1:  0.000000 (step -0.5000 Ne1=   7228.0000)
            Final RMS occupancy error   :  0.000000 (Ne1=   7228.0000)
               Final occupancy bounds   : [  0.0000,  1.0000]
================================================================================

    7        -1.175227974875E+04     1.3116E-08     1.1865E-08    -6.1700E-09

Reusing previously generated solute cavity.
MG BCs: +ve charge blocks (gridpoints):     28853 (   19145707).
MG BCs: -ve charge blocks (gridpoints):      8510 (    1053534).
MG BCs:     Elided blocks (gridpoints):    165061 (  170771384).
MG BCs: Computational effort saved:  99.9804%.
MG BCs: Charge after coarse-graining:           -9.0009597.
MG DL_MG: Calling solver with defect correction order = 8
MG DL_MG: Solver finished
MG Hartree energy from (\int phi*rho dr):              1209.144378
MG Hartree energy from (\int eps (grad phi)^2 dr):     1208.954099
MG Discrepancy due to finite box and discretization:     -0.190279 (  -0.01574%)
MG Correction to account for finite box:                  0.006453
MG Remaining discrepancy, due to discretization:         -0.183826 (  -0.01520%)
      ideal mu1:      -0.485609915397
             Q0:  -11752.279748759815
             G0:      -0.000000007953
   RMS gradient:       0.000000017955

Reusing previously generated solute cavity.
MG BCs: +ve charge blocks (gridpoints):     28853 (   19145706).
MG BCs: -ve charge blocks (gridpoints):      8510 (    1053534).
MG BCs:     Elided blocks (gridpoints):    165061 (  170771385).
MG BCs: Computational effort saved:  99.9804%.
MG BCs: Charge after coarse-graining:           -9.0009597.
MG DL_MG: Calling solver with defect correction order = 8
MG DL_MG: Solver finished
MG Hartree energy from (\int phi*rho dr):              1209.144335
MG Hartree energy from (\int eps (grad phi)^2 dr):     1208.954056
MG Discrepancy due to finite box and discretization:     -0.190279 (  -0.01574%)
MG Correction to account for finite box:                  0.006453
MG Remaining discrepancy, due to discretization:         -0.183826 (  -0.01520%)
     Trial step:       0.792575078104
             Q1:  -11752.279748763307
 Quadratic coef:       0.000000002810
 Linear coef   :      -0.000000006303
           Qmin:  -11752.279748763349
Quadratic minimum step length (  0.888849597284) accepted
    Initial Ne1:    7228.00000000
      Final Ne1:    7228.00000000

=================== Penalty functional idempotency correction ==================
 RMS occupancy error at iteration   1:  0.000000 (step -0.5000 Ne1=   7228.0000)
            Final RMS occupancy error   :  0.000000 (Ne1=   7228.0000)
               Final occupancy bounds   : [  0.0000,  1.0000]
================================================================================

    8        -1.175227974876E+04     1.7955E-08     1.6243E-08    -7.3342E-09

Reusing previously generated solute cavity.
MG BCs: +ve charge blocks (gridpoints):     28853 (   19145706).
MG BCs: -ve charge blocks (gridpoints):      8510 (    1053534).
MG BCs:     Elided blocks (gridpoints):    165061 (  170771385).
MG BCs: Computational effort saved:  99.9804%.
MG BCs: Charge after coarse-graining:           -9.0009597.
MG DL_MG: Calling solver with defect correction order = 8
MG DL_MG: Solver finished
MG Hartree energy from (\int phi*rho dr):              1209.144329
MG Hartree energy from (\int eps (grad phi)^2 dr):     1208.954051
MG Discrepancy due to finite box and discretization:     -0.190279 (  -0.01574%)
MG Correction to account for finite box:                  0.006453
MG Remaining discrepancy, due to discretization:         -0.183826 (  -0.01520%)
      ideal mu1:      -0.485609846657
             Q0:  -11752.279748763307
             G0:      -0.000000011523
   RMS gradient:       0.000000017507

Reusing previously generated solute cavity.
MG BCs: +ve charge blocks (gridpoints):     28853 (   19145707).
MG BCs: -ve charge blocks (gridpoints):      8510 (    1053534).
MG BCs:     Elided blocks (gridpoints):    165061 (  170771384).
MG BCs: Computational effort saved:  99.9804%.
MG BCs: Charge after coarse-graining:           -9.0009597.
MG DL_MG: Calling solver with defect correction order = 8
MG DL_MG: Solver finished
MG Hartree energy from (\int phi*rho dr):              1209.144241
MG Hartree energy from (\int eps (grad phi)^2 dr):     1208.953962
MG Discrepancy due to finite box and discretization:     -0.190279 (  -0.01574%)
MG Correction to account for finite box:                  0.006453
MG Remaining discrepancy, due to discretization:         -0.183826 (  -0.01520%)
     Trial step:       0.839333091800
             Q1:  -11752.279748760629
 Quadratic coef:       0.000000012349
 Linear coef   :      -0.000000009671
           Qmin:  -11752.279748765201
Quadratic minimum step length (  0.328668606505) accepted
    Initial Ne1:    7228.00000000
      Final Ne1:    7228.00000000

=================== Penalty functional idempotency correction ==================
 RMS occupancy error at iteration   1:  0.000000 (step -0.5000 Ne1=   7228.0000)
            Final RMS occupancy error   :  0.000000 (Ne1=   7228.0000)
               Final occupancy bounds   : [ -0.0000,  1.0000]
================================================================================

    9        -1.175227974876E+04     1.7507E-08     1.5838E-08    -3.4925E-09

Reusing previously generated solute cavity.
MG BCs: +ve charge blocks (gridpoints):     28853 (   19145706).
MG BCs: -ve charge blocks (gridpoints):      8510 (    1053534).
MG BCs:     Elided blocks (gridpoints):    165061 (  170771385).
MG BCs: Computational effort saved:  99.9804%.
MG BCs: Charge after coarse-graining:           -9.0009597.
MG DL_MG: Calling solver with defect correction order = 8
MG DL_MG: Solver finished
MG Hartree energy from (\int phi*rho dr):              1209.144295
MG Hartree energy from (\int eps (grad phi)^2 dr):     1208.954016
MG Discrepancy due to finite box and discretization:     -0.190279 (  -0.01574%)
MG Correction to account for finite box:                  0.006453
MG Remaining discrepancy, due to discretization:         -0.183826 (  -0.01520%)
      ideal mu1:      -0.485609816580
   10        -1.175227974876E+04     1.1796E-08     1.0671E-08    -9.3132E-10
Finished density kernel iterations (  10)

Writing density kernel to file "complex_21001.dkn" ... done


>>> Density kernel optimised for the current NGWF basis:
     ~~~~~~~~~~~~~~~~~~~~~~~~~~~~~~~~~~~~~~~~~~~~~~~~~~~~~~~~~~~
     Total energy                =  -1.17522797487642E+04  Eh
     Estimated bandgap           =   8.0661E-02  Eh
     RMS occupancy error         =   3.5831E-16
     [H,K] commutator            =   1.0671E-08
     Occupancy bounds            = [  0.000:  1.000]
     ~~~~~~~~~~~~~~~~~~~~~~~~~~~~~~~~~~~~~~~~~~~~~~~~~~~~~~~~~~~




################################################################################
########################### NGWF CG iteration  004 #############################
################################################################################
****** Reciprocal space K.E. preconditioning with k_zero =  3.5000 a0^-1 *******

>>> Checking for convergence of NGWFs: 
           ........................................................
           |         *** NGWF optimisation converged ***          |
           | RMS NGWF gradient =    0.00000195125154              |
           | Criteria satisfied:                                  |
           | -> RMS NGWF gradient lower than set threshold.       |
           ========================================================

Reusing previously generated solute cavity.
MG BCs: +ve charge blocks (gridpoints):     28853 (   19145706).
MG BCs: -ve charge blocks (gridpoints):      8510 (    1053534).
MG BCs:     Elided blocks (gridpoints):    165061 (  170771385).
MG BCs: Computational effort saved:  99.9804%.
MG BCs: Charge after coarse-graining:           -9.0009597.
MG DL_MG: Calling solver with defect correction order = 8
MG DL_MG: Solver finished
MG Hartree energy from (\int phi*rho dr):              1209.144295
MG Hartree energy from (\int eps (grad phi)^2 dr):     1208.954016
MG Discrepancy due to finite box and discretization:     -0.190279 (  -0.01574%)
MG Correction to account for finite box:                  0.006453
MG Remaining discrepancy, due to discretization:         -0.183826 (  -0.01520%)

================================================================================
           ---------------- ENERGY COMPONENTS (Eh) ----------------
           | Kinetic                    :     8598.23691164948650 |
           | Pseudo. (local,OBC,corr'd) :    -5094.98807890753869 |
           | Pseudopotential (non-local):     1410.84213363166782 |
           | Hartree (molecular)        :     1209.14429464802038 |
           | Exchange-correlation       :    -3398.36718656424409 |
           | Ion-ion (open BC)          :   836121.56215361028444 |
           | Smeared ion non-self corr. :  -836073.36548563721590 |
           | Smeared ion self corr.     :   -14525.98710726666468 |
           | Solvent cavitation energy  :        2.28627971891348 |
           | Solute-solvent dis-rep en. :       -1.64366364691988 |
           | Total                      :   -11752.27974876421649 |
           --------------------------------------------------------
           ------ LOCAL ENERGY COMPONENTS FROM MATRIX TRACES ------
           | Pseudopotential (local)    :    -5094.98807890754051 |
           | Hartree                    :    -2013.31074552335531 |
           --------------------------------------------------------
           Integrated density           :     7227.99999999894408
           Integrated density tr(KS)    :     7228.00000000000000
================================================================================


                        <<<<< CALCULATION SUMMARY >>>>>                         
|ITER|    RMS GRADIENT   |     TOTAL ENERGY    |   step   |     Epredicted              
   0     0.00004096687106 -11752.21307680453174   0.625808 -11752.27072700340432        
   1     0.00000953927269 -11752.27926656603813   0.079771 -11752.27966501296396        
   2     0.00000428551274 -11752.27973123069387   0.015183 -11752.27974653630008        
   3     0.00000195125154 -11752.27974876423832  <-- CG                                 

=================== Finished the calculation in solvent ========================
= Adjusting the following parameters: 
= read_denskern: F
= read_tightbox_ngwfs: F
= maxit_pen: 0 (restored to user-specified value)
= restart read filename prefix: ""
= restart write filename prefix: ""
================================================================================

================================================================================
IS: Calculation in solvent completed (NGWFs converged).      

Individual components of total energy in solvent:     hartree           kcal/mol
- Usual non-electrostatic DFT terms:    -12962.06665948425143    -8133819.455800
- Electrostatic fixed charge energy:      1209.14429464802038      758749.483940
- Apolar cavitation energy:                  2.28627971891348        1434.662153
- Apolar dispersion-repulsion energy:       -1.64366364691988       -1031.414488
 -------------------------------------------------------------------------------
- Total energy in solvent:              -11752.27974876423832    -7374666.724195

Components of total energy in solvent:                hartree           kcal/mol
- Usual non-electrostatic DFT terms:    -12962.06665948425143    -8133819.455800
- Electrostatic energy:                   1209.14429464802038      758749.483940
- Apolar energy terms:                       0.64261607199361         403.247665
 -------------------------------------------------------------------------------
- Total energy in solvent:              -11752.27974876423832    -7374666.724195

Calculation of free energy of solvation:              hartree           kcal/mol
- Total energy in solvent:         (+)  -11752.27974876423832    -7374666.724195
- Total energy in vacuum:          (-)  -11748.38156960206106    -7372220.579893
 -------------------------------------------------------------------------------
- Total free energy of solvation:           -3.89817916217726       -2446.144303

Components of polar term in f.e. of solvation:        hartree           kcal/mol
- Electrostatic:                            -4.51946215284715       -2836.005257
- Change in nonelectrostatic DFT terms:     -0.02133308132215         -13.386710
 -------------------------------------------------------------------------------
- Polar term in f.e. of solvation:          -4.54079523416931       -2849.391967

Components of free energy of solvation:               hartree           kcal/mol
- Polar term in f.e. of solvation: (+)      -4.54079523416931       -2849.391967
- Apolar (cavitation, dis., rep.): (+)       0.64261607199361         403.247665
 -------------------------------------------------------------------------------
- Total free energy of solvation:           -3.89817916217570       -2446.144303
================================================================================


------------------------------ TIMING INFORMATION ------------------------------
AVERAGE TIME:   34824.998s on     60 node(s)                                    
TOTAL TIME:     34824.998s on     60 node(s)                                    
================= AVERAGE TIMINGS FROM ALL NODES (CUMULATIVE) ==================
|| TAG                                    #calls    cpu time   %total  Gflops ||
|| work_imbalance                       :     1        0.00s   0.000%  ------ ||
|| sparse_set_to_garbage                :   176        0.03s   0.000%  ------ ||
|| parallel_prepare_fd_halos_request    :  1947        0.03s   0.000%  ------ ||
|| ngwfs_initialise_from_radial         :     1        0.11s   0.000%  ------ ||
|| basis_extract_function_from_box      :  3596        0.16s   0.000%  ------ ||
|| parallel_prepare_fd_halos_alloc      :  1947        0.16s   0.000%  ------ ||
|| parallel_prepare_fd_halos_satisfy    :  1947        0.66s   0.002%  ------ ||
|| pseudopotentials_nonlocal_mat        :    30        2.74s   0.008%  ------ ||
|| openbc_locps_radial                  :     1        2.99s   0.009%  ------ ||
|| density_init_guess_real              :     1        5.05s   0.015%  ------ ||
|| restart_kernel_read                  :     1        5.87s   0.017%  ------ ||
|| restart_ngwfs_tightbox_input         :     1        7.42s   0.021%  ------ ||
|| parallel_prepare_fd_halos_comms_imbal:  1947       10.47s   0.030%  ------ ||
|| parallel_prepare_fd_halos_clear      :  1947       18.82s   0.054%  ------ ||
|| sparse_init                          :     2       22.68s   0.065%  ------ ||
|| parallel_prepare_fd_halos_comms_wait :  1947       23.23s   0.067%  ------ ||
|| projectors_func_ovlp_box             :    30       26.82s   0.077%  ------ ||
|| function_ops_brappd_ketppd           :    30       29.46s   0.085%  ------ ||
|| projectors_init_fftbox_recip         :   142       34.97s   0.100%  ------ ||
|| palser_mano_kernel_optimise          :     1       41.37s   0.119%  ------ ||
|| basis_copy_function_to_box           : 58415       44.92s   0.129%  ------ ||
|| pseudo_make_structure_factor         :     2       51.82s   0.149%  ------ ||
|| ngwf_gradient_coeffs                 :    16       52.39s   0.150%  ------ ||
|| parallel_prepare_fd_halos            :  1947       53.38s   0.153%  ------ ||
|| fourier_apply_box_pair               :  5136       54.02s   0.155% 586.414 ||
|| sparse_embed_hotelling_invert_embed  :    30       82.28s   0.236%  ------ ||
|| restart_kernel_write                 :    17       95.77s   0.275%  ------ ||
|| finite_difference_derivative         :  1947      122.51s   0.352%  ------ ||
|| integrals_kinetic                    :    30      150.30s   0.432%  ------ ||
|| projectors_gradient_batch            :   112      178.53s   0.513%  ------ ||
|| basis_dot_function_with_box          : 8.913M     178.90s   0.514%  ------ ||
|| sparse_trace                         :  5331      200.07s   0.575%  ------ ||
|| openbc_locps_on_grid                 :     2      261.84s   0.752%  ------ ||
|| kernel_purify                        :   495      306.24s   0.879%  ------ ||
|| basis_add_function_to_box            : 18.58M     421.26s   1.210%  ------ ||
|| lnv_gradient_norm                    :   160      470.00s   1.350%  ------ ||
|| kernel_fix                           :   160      541.26s   1.554%  ------ ||
|| hamiltonian_energy_components        :     4      543.21s   1.560%  ------ ||
|| integrals_locpot_mat_els_batch       :  1183      736.73s   2.116%  ------ ||
|| ngwf_gradient_build_batch            :   112      788.89s   2.265%  ------ ||
|| restart_ngwfs_tightbox_output        :    14     1010.14s   2.901%  ------ ||
|| ngwf_gradient_batch                  :   112     1080.67s   3.103%  ------ ||
|| density_batch_row_sums               :  2261     1129.29s   3.243%  ------ ||
|| ngwf_gradient_lnv                    :    16     1214.06s   3.486%  ------ ||
|| fourier_apply_cell_forward           :  9073     1435.15s   4.121%  84.898 ||
|| cell_grid_deposit_box_real           : 37197     1435.49s   4.122%  ------ ||
|| fourier_apply_cell_backward          :  9723     1625.19s   4.667%  80.342 ||
|| cell_grid_extract_box_real           : 40746     1710.12s   4.911%  ------ ||
|| sparse_product                       :  6665     1932.54s   5.549%  ------ ||
|| density_fftbox_deposit_to_cell       : 35207     2129.37s   6.114%  ------ ||
|| density_fftbox_interpolate_multiply  : 35207     3886.78s  11.161%  ------ ||
|| potential_apply_to_ngwf_batch        :  1183     3909.20s  11.225%  ------ ||
|| xc_energy_potential                  :   324     3989.74s  11.457%  ------ ||
|| multigrid_prepare_bound_cond         :   324     4624.49s  13.279%  ------ ||
|| integrals_locpot_dbl_grid            :   169     4664.94s  13.395%  ------ ||
|| fourier_apply_box                    : 122.1k    4781.87s  13.731% 763.188 ||
|| nlxc_vdw_energy                      :   648     6465.03s  18.564%  ------ ||
|| density_batch_interp_deposit         :  2261     6999.44s  20.099%  ------ ||
|| dl_mg_solver_calls                   :   324     7028.89s  20.183%  ------ ||
|| density_on_dbl_grid                  :   323     8440.69s  24.237%  ------ ||
|| multigrid_calculate_hartree          :   324    11823.87s  33.952%  ------ ||
|| hamiltonian_lhxc_calculate           :   319    24127.36s  69.282%  ------ ||
|| lnv_denskernel_optimise_cg           :    16    29630.93s  85.085%  ------ ||
|| ngwf_cg_optimise                     :     2    33869.17s  97.255%  ------ ||
|| total_time                           :     1    34825.00s 100.000%  ------ ||
================================================================================
Overhead of generating timer report: 
- 0 ms averaging over threads,
- 15 ms ensuring consistency across MPI ranks,
- 1 ms printing in order.

Job completed: 19-01-2020 07:23 (-0000)

Application 38634615 resources: utime ~6990470s, stime ~244295s, Rss ~3896732, inblocks ~354777372, outblocks ~68028294
