 +---------------------------------------------------------------+
 |                                                               |
 |        ####### #     # ####### ####### ####### ######         |
 |        #     # ##    # #          #    #       #     #        |
 |        #     # # #   # #          #    #       #     #        |
 |        #     # #  #  # #####      #    #####   ######         |
 |        #     # #   # # #          #    #       #              |
 |        #     # #    ## #          #    #       #              |
 |        ####### #     # #######    #    ####### #              |
 |                                                               |
 |        Linear-Scaling Ab Initio Total Energy Program          |
 |                                                               |
 |          Release for academic collaborators of ODG            |
 |                                             Version 5.3.2.6.  |
 |                                                               |
 +---------------------------------------------------------------+
 |                                                               |
 |  Authors:                                                     |
 |  Jacek Dziedzic, Peter D. Haynes, Nicholas D. M. Hine,        |
 |  Arash. A. Mostofi, Mike C. Payne and Chris-Kriton Skylaris   |
 |                                                               |
 |  Contributors:                                                |
 |  J. Aarons, L. Andrinopoulos, P. W. Avraam, R. A. Bell,       |
 |  A. Bhandari, G. A. Bramley, R. J. Charlton, S. J. Clark,     |
 |  R. J. Clements, G. C. Constantinescu, F. Corsetti,           |
 |  N. Corsini, O. Dieguez, S. M. M. Dubois, K. K. B. Duff,      |
 |  J. M. Escartin, A. Greco, H. Helal, Q. O. Hill, L. P. Lee,   |
 |  J.-H. Li, E. B. Linscott, G. Moynihan, D. D. O`Regan,        |
 |  O. K. Okan, M. J. S. Phipps, C. J. Pickard,                  |
 |  J. C. A. Prentice, M. I. J. Probert, L. E. Ratcliff,         |
 |  M. Robinson, A. Ruiz Serrano, J. S. Spencer, E. W. Tait,     |
 |  G. Teobaldi, D. Turban, V. Vitale, K. A. Wilkinson,          |
 |  C. Weber, J. C. Womack, N. Yeung and T. J. Zuehlsdorff       |
 |                                                               |
 |                                   Copyright (c) 2004-2019     |
 |                                                               |
 |  Please cite:                                                 |
 |  "Introducing ONETEP: Linear-scaling density functional       |
 |   simulations on parallel computers".                         |
 |   C.-K. Skylaris, P. D. Haynes, A. A. Mostofi, M. C. Payne.   |
 |   J. Chem. Phys. 122 084119 (2005).                           |
 |                                                               |
 |          in all publications arising from your use of ONETEP. |
 |                                                               |
 +---------------------------------------------------------------+
 |                                                               |
 |   ONETEP is based on developments described in the following  |
 |   publications:                                               |
 |                                                               |
 |  "Nonorthogonal generalized Wannier function pseudopotential  |
 |   plane-wave method".                                         |
 |   C.-K. Skylaris, A. A. Mostofi, P. D. Haynes, O. Dieguez,    |
 |   M. C. Payne.                                                |
 |   Phys. Rev. B 66 035119 (2002).                              |
 |                                                               |
 |  "Preconditioned iterative minimization for linear-scaling    |
 |   electronic structure calculations".                         |
 |   A. A. Mostofi, P. D. Haynes, C.-K. Skylaris, M. C. Payne.   |
 |   J. Chem. Phys. 119(17), pp.8842-8848 (2003).                |
 |                                                               |
 |  "Total-energy calculations on a real space grid with         |
 |   localized functions and a plane-wave basis".                |
 |   A. A. Mostofi, C.-K. Skylaris, P. D. Haynes, M. C. Payne.   |
 |   Comput. Phys. Commun. 147, pp.788-802 (2002).               |
 |                                                               |
 |  "Accurate kinetic energy evaluation in electronic structure  |
 |   calculations with localized functions on real space grids"  |
 |   C.-K. Skylaris, A. A. Mostofi, P. D. Haynes, C. J. Pickard, |
 |   M. C. Payne.                                                |
 |   Comput. Phys. Commun. 140, pp.315-322 (2001).               |
 |                                                               |
 |  "Accurate ionic forces and geometry optimization in linear-  |
 |   scaling density-functional theory with local orbitals"      |
 |   N. D. M. Hine, M. Robinson, P. D. Haynes, C.-K. Skylaris,   |
 |   M. C. Payne, and A. A. Mostofi.                             |
 |   Phys. Rev. B 83 195102 (2011).                              |
 |                                                               |
 +---------------------------------------------------------------+

Job started: 29-03-2020 08:35 (+0100)
 
Reading parameters from file "complex_33161.dat" ...... done

If your calculation crashes here, before "Checking processes and threads..."
is displayed, then your stack size is insufficient.
If so, use "ulimit -s unlimited" at runtime.
You can disable this check with "check_stack_size F".

Checking processes and threads...
   Determining the default number of threads...
      No default threads set at compilation time: defaulting to 1.
      OpenMP library call suggests 4 threads.
      Hybrid MPI-OpenMP compilation detected.
      Number of MPI processes > 1.
      OMP_NUM_THREADS environment variable present and
      its value matches the one obtained from the OpenMP library call.
      Using this value as default.
      Default threads: 4
      Default applies to threads_max and threads_num_fftboxes.
      Settings in the input file override this default.
   ... done

   Running with 60 MPI processes.
   There are 6 MPI processes running on the same node as the root process.
   Each MPI process is using: 
               1 threads for simulation cell FFTs.
               1 threads for parallel FFT box operations.
               4 threads for loops over batched FFT box operations.
               4 threads in other parallel regions.
... done

Basic input checks...... done

Reading geometry and species blocks from file "complex_33161.dat" ...
  <species_atomic_set> block not found: NGWF initialisation set to SOLVE
IS: Dielectric excluded regions:
    - NONE.
    
  Number of PPD points along a3 set to 1.  This is 
  the default value, it may have been provided also in the input file.
... done
 Writing xyz coordinates to file "complex_33161.xyz" ... done


--------------------------------------------------------------------------------
---------------------------------- INPUT FILE ----------------------------------
--------------------------------------------------------------------------------

cutoff_energy       : 800 eV                                                    
xc_functional VV10                                                              
task SINGLEPOINT                                                                
write_xyz true                                                                  
output_detail VERBOSE                                                           
ngwf_threshold_orig : 0.000002                                                  
kernel_cutoff       : 1000                                                      
k_zero              : 3.5                                                       
elec_cg_max 0                                                                   
occ_mix 1.0                                                                     
dispersion 0                                                                    
maxit_ngwf_cg 40                                                                
minit_lnv 10                                                                    
maxit_lnv 10                                                                    
write_denskern T                                                                
write_tightbox_ngwfs T                                                          
charge 9                                                                        
is_implicit_solvent T                                                           
is_auto_solvation T                                                             
is_include_apolar T                                                             
is_smeared_ion_rep T                                                            
is_solvent_surf_tension 4.7624E-5 Ha/bohr**2                                    
is_apolar_scaling_factor 0.281075                                               
is_solvation_beta 1.3                                                           
is_density_threshold 0.00035                                                    
is_bulk_permittivity 78.54                                                      
is_dielectric_model fix_initial                                                 
is_smeared_ion_width 0.8                                                        
mg_defco_fd_order 8                                                             
is_bc_coarseness 10                                                             
is_bc_surface_coarseness 1                                                      
fine_grid_scale 2.0                                                             
%block species                                                                  
N   N   7 4 8.0                                                                 
H   H   1 1 8.0                                                                 
C   C   6 4 8.0                                                                 
S   S  16 9 8.0                                                                 
O   O   8 4 8.0                                                                 
%endblock species                                                               
%block species_pot                                                              
N   N_00.recpot                                                                 
H   H_04.recpot                                                                 
C   C_01.recpot                                                                 
S   S_00.recpot                                                                 
O   O_02.recpot                                                                 
%endblock species_pot                                                           
%block lattice_cart                                                             
135.996   0.000   0.000                                                         
0.000 142.663   0.000                                                           
0.000   0.000   160.158                                                         
%endblock lattice_cart                                                          
%block positions_abs                                                            
     Hash =  -000000433598446341724522
%endblock positions_abs                                                         

--------------------------------------------------------------------------------
-------------------------------- END INPUT FILE --------------------------------
--------------------------------------------------------------------------------


 
 ESDF WARNING(1): "kernelcutoff" (esdf_physical) has no units. Assume "bohr".
 ESDF WARNING(2): "kzero" (esdf_physical) has no units. Assume "1/bohr".
 ESDF WARNING(3
 ): "issmearedionwidth" (esdf_physical) has no units. Assume "bohr".
<<<<<<<<<<<<<<<<<<<<<<<<<<<<<<<<< Full system >>>>>>>>>>>>>>>>>>>>>>>>>>>>>>>>>>
<<<<<<<<<<<<<<<<<<<<<<<<< Pseudopotential information >>>>>>>>>>>>>>>>>>>>>>>>>>
File: N_00.recpot [ 2001 points up to Gmax=  52.9 (1/bohr)]
  Atomic number:  7;  ionic charge:  5.000000
    Shell 1: l = 0; rc = 1.48 bohr
File: H_04.recpot [ 2001 points up to Gmax=  52.9 (1/bohr)]
  Atomic number:  1;  ionic charge:  1.000000
    Local potential
File: C_01.recpot [ 2001 points up to Gmax=  52.9 (1/bohr)]
  Atomic number:  6;  ionic charge:  4.000000
    Shell 1: l = 0; rc = 1.48 bohr
File: S_00.recpot [ 2001 points up to Gmax=  52.9 (1/bohr)]
  Atomic number: 16;  ionic charge:  6.000000
    Shell 1: l = 0; rc = 1.90 bohr
    Shell 2: l = 2; rc = 1.84 bohr
File: O_02.recpot [ 2001 points up to Gmax=  52.9 (1/bohr)]
  Atomic number:  8;  ionic charge:  6.000000
    Shell 1: l = 0; rc = 1.31 bohr
<<<<<<<<<<<<<<<<<<<<<<<<<<<<<<<<<<<<<<<<>>>>>>>>>>>>>>>>>>>>>>>>>>>>>>>>>>>>>>>>

-------------------------- Atom counting information ---------------------------
Symbol    Natoms    Nngwfs    Nprojs
  N        236       944       236
  H       1317      1317         0
  C        816      3264       816
  S          6        54        36
  O        240       960       240
.......   ......    ......    ......
Totals:   2615      6539      1328
--------------------------------------------------------------------------------

=============================== PSINC grid sizes ===============================
                      Simulation cell:  270 x 286 x 315
                              FFT-box:   99 x 105 x  99
                                  PPD:    5 x  11 x   1
Grid space d1=  0.503688888889a0 (KE cutoff=  29.94189Eh = 814.76038eV)
Grid space d2=  0.498821678322a0 (KE cutoff=  30.52906Eh = 830.73786eV)
Grid space d3=  0.508438095238a0 (KE cutoff=  29.38514Eh = 799.61048eV)
================================================================================

********************* Fourier parallelisation information **********************
       Coarse grid (whole simulation cell) dimensions:    270   286   315
          Real-space ('12') slabs/node (min max mean):      5     6     5
         Recip-space ('23') slabs/node (min max mean):      2     3     2
********************************************************************************

********************* Fourier parallelisation information **********************
       Double grid (whole simulation cell) dimensions:    540   572   630
          Real-space ('12') slabs/node (min max mean):     10    11    10
         Recip-space ('23') slabs/node (min max mean):      4     5     4
********************************************************************************
ONETEP fine grid is 540 x 572 x 630 gridpoints, 135.9960 x 142.6630 x 160.1580 bohr.
FD multigrid is     537 x 569 x 625 gridpoints, 135.2405 x 141.9148 x 158.8869 bohr.


Calculating local pseudopotential in open BC on a radial grid ...
Discrepancy between calculated realspace psloc and -Z/x on [5a0,253.965a0]:
max |rel. diff| # avg |rel. diff| #  avg rel. diff #  f # pseudopotential file
 0.000259282084    0.000004141996   0.000000074978   54  'N_00.recpot'
 0.000405386992    0.000016970607  -0.000000075982   54  'H_04.recpot'
 0.000371694516    0.000017434762   0.000000149329   54  'C_01.recpot'
 0.000461642895    0.000020341726   0.000000491514   54  'S_00.recpot'
 0.000682525123    0.000027368244   0.000000159803   54  'O_02.recpot'
... done

Atom SCF Calculation for N  : Z (AE atom) =   7 : Z (PS atom) =   5
Config String:
Orbitals (num,occ):  2     2.00 3.00
Orbitals   (num,l):  2        0    1
Real-space Grid (nr,dr,rmax): 1203    0.0066555740    8.0000000000
Spherical Bessel Basis (nsws,lmax,cutoff):   47    1  176.3951722778
Confining potential (l,width,scale):  0    3.0000000000  100.0000000000
Confining potential (l,width,scale):  1    3.0000000000  100.0000000000
  1         -4.7366890484   -3.4501654188    7.0523828109   -1.9619316308
  2         -9.7225420322   -2.0763080851    8.3068355706   -2.2908832437
  3         -9.7134243553   -2.1270543915    8.2534567806   -2.2819809971
  4         -9.7235185949   -2.1427582218    8.2369947390   -2.2802814234
  5         -9.7258373845   -2.1477905863    8.2317116314   -2.2798536235
  6         -9.7268932325   -2.1503512400    8.2290229806   -2.2796830099
  7         -9.7273189469   -2.1516634231    8.2276451699   -2.2796169657
  8         -9.7274675212   -2.1523365544    8.2269384796   -2.2795940092
  9         -9.7275041773   -2.1526817003    8.2265762312   -2.2795881371
 10         -9.7275008637   -2.1528585007    8.2263907413   -2.2795884060
 11         -9.7274868305   -2.1529489544    8.2262958841   -2.2795903922
 12         -9.7274755655   -2.1529859230    8.2262571347   -2.2795920452
 13         -9.7274662327   -2.1530083995    8.2262335832   -2.2795934369
 14         -9.7274589439   -2.1530220534    8.2262192809   -2.2795945372
 15         -9.7274534633   -2.1530303399    8.2262106039   -2.2795953734
 16         -9.7274494492   -2.1530353634    8.2262053452   -2.2795959920
 17         -9.7274465654   -2.1530384053    8.2262021621   -2.2795964406
 18         -9.7274445237   -2.1530402447    8.2262002378   -2.2795967611
 19         -9.7274430947   -2.1530413553    8.2261990762   -2.2795969874
 20         -9.7274421038   -2.1530420249    8.2261983762   -2.2795971458
 21         -9.7274414219   -2.1530424277    8.2261979551   -2.2795972557
 22         -9.7274409555   -2.1530426696    8.2261977024   -2.2795973315
 23         -9.7274406382   -2.1530428144    8.2261975510   -2.2795973835
 24         -9.7274404232   -2.1530429010    8.2261974606   -2.2795974190
 25         -9.7274402783   -2.1530429525    8.2261974067   -2.2795974432
 26         -9.7274401808   -2.1530429831    8.2261973748   -2.2795974596
Atom SCF converged after  26 iterations to a total energy of     -9.72744018

Atom SCF Calculation for H  : Z (AE atom) =   1 : Z (PS atom) =   1
Config String:
Orbitals (num,occ):  1     1.00
Orbitals   (num,l):  1        0
Real-space Grid (nr,dr,rmax): 1203    0.0066555740    8.0000000000
Spherical Bessel Basis (nsws,lmax,cutoff):   47    0  176.3951722778
Confining potential (l,width,scale):  0    3.0000000000  100.0000000000
  1         -0.3178661827   -0.2469879004    0.2820953124   -0.2487802071
  2         -0.3961824611   -0.2455070831    0.2902209900   -0.2567664324
  3         -0.4406462424   -0.2424227551    0.2948173255   -0.2622129794
  4         -0.4569739054   -0.2416771342    0.2960118236   -0.2639986016
  5         -0.4627745219   -0.2416114401    0.2961916694   -0.2644992007
  6         -0.4648634749   -0.2416666130    0.2961598921   -0.2646237065
  7         -0.4656347011   -0.2417155160    0.2961132802   -0.2646490719
  8         -0.4659271144   -0.2417438448    0.2960836537   -0.2646515522
  9         -0.4660407254   -0.2417580788    0.2960682004   -0.2646501482
 10         -0.4660857867   -0.2417647566    0.2960608087   -0.2646488305
 11         -0.4661039568   -0.2417677717    0.2960574330   -0.2646480606
 12         -0.4661113773   -0.2417691018    0.2960559329   -0.2646476727
 13         -0.4661144368   -0.2417696800    0.2960552775   -0.2646474903
 14         -0.4661157072   -0.2417699291    0.2960549942   -0.2646474079
 15         -0.4661162374   -0.2417700356    0.2960548727   -0.2646473715
 16         -0.4661164596   -0.2417700810    0.2960548208   -0.2646473556
 17         -0.4661165529   -0.2417701003    0.2960547987   -0.2646473488
Atom SCF converged after  17 iterations to a total energy of     -0.46611655

Atom SCF Calculation for C  : Z (AE atom) =   6 : Z (PS atom) =   4
Config String:
Orbitals (num,occ):  2     2.00 2.00
Orbitals   (num,l):  2        0    1
Real-space Grid (nr,dr,rmax): 1203    0.0066555740    8.0000000000
Spherical Bessel Basis (nsws,lmax,cutoff):   47    1  176.3951722778
Confining potential (l,width,scale):  0    3.0000000000  100.0000000000
Confining potential (l,width,scale):  1    3.0000000000  100.0000000000
  1         -5.2812238291   -1.3293161250    4.5135249990   -1.4716766231
  2         -5.3996591362   -1.3542148509    4.4876064308   -1.4645117417
  3         -5.4111847148   -1.3757224423    4.4645718036   -1.4593107263
  4         -5.4199203659   -1.3833334895    4.4563636676   -1.4579885221
  5         -5.4226876204   -1.3865104950    4.4529090432   -1.4575385943
  6         -5.4235070726   -1.3878131251    4.4514866831   -1.4573882877
  7         -5.4237271252   -1.3883401868    4.4509094528   -1.4573411661
  8         -5.4237693051   -1.3885521813    4.4506766230   -1.4573281030
  9         -5.4237656430   -1.3886371046    4.4505830704   -1.4573255254
 10         -5.4237547927   -1.3886709976    4.4505456041   -1.4573257244
 11         -5.4237478594   -1.3886817763    4.4505336403   -1.4573262476
 12         -5.4237429748   -1.3886873440    4.4505274417   -1.4573266921
 13         -5.4237397042   -1.3886902144    4.4505242350   -1.4573270222
 14         -5.4237375865   -1.3886916908    4.4505225792   -1.4573272507
 15         -5.4237362473   -1.3886924482    4.4505217259   -1.4573274021
 16         -5.4237354152   -1.3886928356    4.4505212873   -1.4573274996
 17         -5.4237349050   -1.3886930331    4.4505210623   -1.4573275610
 18         -5.4237345954   -1.3886931333    4.4505209473   -1.4573275991
 19         -5.4237344092   -1.3886931840    4.4505208887   -1.4573276224
 20         -5.4237342980   -1.3886932094    4.4505208590   -1.4573276366
 21         -5.4237342320   -1.3886932221    4.4505208440   -1.4573276451
Atom SCF converged after  21 iterations to a total energy of     -5.42373423

Atom SCF Calculation for S  : Z (AE atom) =  16 : Z (PS atom) =   6
Config String:
Orbitals (num,occ):  3     2.00 4.00 0.00
Orbitals   (num,l):  3        0    1    2
Real-space Grid (nr,dr,rmax): 1203    0.0066555740    8.0000000000
Spherical Bessel Basis (nsws,lmax,cutoff):   47    2  176.3951722778
Confining potential (l,width,scale):  0    3.0000000000  100.0000000000
Confining potential (l,width,scale):  1    3.0000000000  100.0000000000
Confining potential (l,width,scale):  2    3.0000000000  100.0000000000
  1        -12.4916237786   -1.0485914554   10.1554312477   -2.4822447765
  2         -9.9747083603   -2.4807597367    8.3138131863   -2.0618837268
  3        -10.1811370131   -2.3153496392    8.4906092179   -2.1137756843
  4        -10.1856385898   -2.2984912006    8.5093862195   -2.1218167101
  5        -10.1891317560   -2.2894783333    8.5195006030   -2.1261392389
  6        -10.1911142562   -2.2849160124    8.5246320974   -2.1283733378
  7        -10.1921506977   -2.2826473329    8.5271859473   -2.1295140514
  8        -10.1926851273   -2.2815219985    8.5284534218   -2.1300957983
  9        -10.1929632671   -2.2809620806    8.5290843811   -2.1303933136
 10        -10.1931100895   -2.2806822783    8.5293998452   -2.1305460626
 11        -10.1931885828   -2.2805418782    8.5295582201   -2.1306248009
 12        -10.1932309625   -2.2804711729    8.5296380158   -2.1306655459
 13        -10.1932540142   -2.2804354512    8.5296783476   -2.1306867097
 14        -10.1932666242   -2.2804173494    8.5296987927   -2.1306977435
 15        -10.1932735535   -2.2804081489    8.5297091868   -2.1307035175
 16        -10.1932773756   -2.2804034581    8.5297144867   -2.1307065505
 17        -10.1932794908   -2.2804010586    8.5297171976   -2.1307081499
 18        -10.1932806648   -2.2803998268    8.5297185890   -2.1307089965
 19        -10.1932813181   -2.2803991920    8.5297193057   -2.1307094466
 20        -10.1932816826   -2.2803988634    8.5297196763   -2.1307096867
 21        -10.1932818864   -2.2803986926    8.5297198688   -2.1307098154
 22        -10.1932820006   -2.2803986034    8.5297199692   -2.1307098847
 23        -10.1932820648   -2.2803985565    8.5297200219   -2.1307099221
Atom SCF converged after  23 iterations to a total energy of    -10.19328206

Atom SCF Calculation for O  : Z (AE atom) =   8 : Z (PS atom) =   6
Config String:
Orbitals (num,occ):  2     2.00 4.00
Orbitals   (num,l):  2        0    1
Real-space Grid (nr,dr,rmax): 1203    0.0066555740    8.0000000000
Spherical Bessel Basis (nsws,lmax,cutoff):   47    1  176.3951722778
Confining potential (l,width,scale):  0    3.0000000000  100.0000000000
Confining potential (l,width,scale):  1    3.0000000000  100.0000000000
  1         -1.9497477053   -7.5870966769   10.1554312477   -2.4822447765
  2        -15.9466298225   -3.1778351734   13.6353006614   -3.2931224232
  3        -16.0387051750   -3.0909030611   13.7305651010   -3.3194522996
  4        -15.9025031450   -3.1083023605   13.7128101414   -3.3180850501
  5        -15.8912953362   -3.1033022259   13.7185404266   -3.3206942093
  6        -15.8793912992   -3.1043100674   13.7175820250   -3.3209366960
  7        -15.8748748605   -3.1043975610   13.7175531476   -3.3211845618
  8        -15.8725354084   -3.1044655610   13.7175148333   -3.3213149154
  9        -15.8713193866   -3.1045129589   13.7174824743   -3.3213832909
 10        -15.8706863385   -3.1045436851   13.7174593895   -3.3214192053
 11        -15.8703562731   -3.1045627330   13.7174442347   -3.3214381098
 12        -15.8701839150   -3.1045741887   13.7174347673   -3.3214480859
 13        -15.8700937727   -3.1045809294   13.7174290448   -3.3214533647
 14        -15.8700465571   -3.1045848305   13.7174256662   -3.3214561658
 15        -15.8700217888   -3.1045870593   13.7174237063   -3.3214576563
 16        -15.8700087767   -3.1045883194   13.7174225849   -3.3214584516
 17        -15.8700019307   -3.1045890258   13.7174219502   -3.3214588771
 18        -15.8699983237   -3.1045894190   13.7174215942   -3.3214591053
 19        -15.8699964206   -3.1045896366   13.7174213960   -3.3214592281
 20        -15.8699954151   -3.1045897563   13.7174212864   -3.3214592942
 21        -15.8699948832   -3.1045898219   13.7174212260   -3.3214593299
 22        -15.8699946014   -3.1045898577   13.7174211930   -3.3214593493
 23        -15.8699944520   -3.1045898771   13.7174211750   -3.3214593597
 24        -15.8699943726   -3.1045898877   13.7174211652   -3.3214593654
Atom SCF converged after  24 iterations to a total energy of    -15.86999437

========================== Calculation in vacuum ==============================
= Adjusting the following parameters: 
= is_implicit_solvent: F
= is_include_apolar: F
= write_denskern: T
= write_tightbox_ngwfs: T
= restart read filename prefix: ""
= restart write filename prefix: "vacuum_"
===============================================================================

Determining parallel strategy ...
... using space-filling curve
... NGWF load balancing: max    109;  min    108;  average    109
... Projector load balancing: max     26;  min     21;  average     22
... done
Calculating direct Ion-Ion energy ...
Ion-Ion Energy        :    836977.70071245753206
Basis initialisation ...... NGWF spheres initialised
... Projector spheres initialised
... NGWF tight boxes initialised
... Tight-boxes gathered
... NGWF basis size (local,global):    1032055  62515529
... Nonlocal pseudopotential projector initialisation
... done

========================== Sparse matrix information ===========================
                        Overlap matrix filling:   6.85%
                        Density kernel filling: 100.00%
              NGWF-Proj overlap matrix filling:   1.78%
                    Hamiltonian matrix filling:   7.75%
                  NGWF diagonal matrix filling:   0.05%
                             KS matrix filling: 100.00% 
                           KSKS matrix filling: 100.00% 
================================================================================

Sparse matrix initialisation ... done

Generating smeared ion density ... done
Smeared ion self correction:     -14525.987107
Smeared ion non-self correction: -836929.619374
NGWF initialisation ...... done
============ Calculation of NGWF S^-1 using Hotelling algorithm ================ 
         Iteration  |  Frobenius norm and Maximum abs value    (of I-S*S_n^-1)   
               1       0.78659895E+02     0.98223197E+00
               2       0.76784291E+02     0.96495367E+00
               3       0.73750064E+02     0.93177474E+00
               4       0.69442738E+02     0.87037422E+00
               5       0.64086177E+02     0.76606772E+00
               6       0.58081287E+02     0.70187291E+00
               7       0.52064620E+02     0.66829466E+00
               8       0.46500997E+02     0.64652062E+00
               9       0.40368395E+02     0.60932458E+00
              10       0.32001239E+02     0.54368670E+00
              11       0.21364634E+02     0.43611685E+00
              12       0.10811532E+02     0.29117946E+00
              13       0.35173787E+01     0.13844524E+00
              14       0.54559529E+00     0.32698198E-01
              15       0.24985328E-01     0.23230472E-02
              16       0.11797908E-03     0.15409512E-04
              17       0.45278180E-08     0.82191798E-09
              18       0.89385036E-13     0.39968029E-14
================================================================================
Calculating local pseudopotential in open BC on the fine real space grid ...
... done

MG BCs: +ve charge blocks (gridpoints):     20254 (   15974330).
MG BCs: -ve charge blocks (gridpoints):      8135 (    1090548).
MG BCs:     Elided blocks (gridpoints):    173660 (  173905747).
MG BCs: Computational effort saved:  99.9851%.
MG BCs: Charge after coarse-graining:           -9.0002244.
MG DL_MG: Calling solver with defect correction order = 8
MG DL_MG: Solver finished
MG Hartree energy from (\int phi*rho dr):              1460.333653
MG Hartree energy from (\int eps (grad phi)^2 dr):     1459.712444
MG Discrepancy due to finite box and discretization:     -0.621208 (  -0.04254%)
MG Correction to account for finite box:                  0.466786
MG Remaining discrepancy, due to discretization:         -0.154422 (  -0.01057%)
Up spin density kernel initialisation ... 
======= Optimisation of K by Palser-Manolopoulos canonical purification ======== 
         Iteration  |  Band structure energy |    c_n   
               1       -2579.97487611647693    0.5281263
               2       -2756.37458121478539    0.5180417
               3       -2938.65424333263991    0.5159310
               4       -3092.48663870414657    0.5293204
               5       -3188.31261589420228    0.5655038
               6       -3228.88521802952891    0.6114860
               7       -3242.70077945050889    0.6232464
               8       -3248.72401358970046    0.6196492
               9       -3251.69911757607815    0.6324189
              10       -3252.94198749599855    0.6629638
              11       -3253.40890943650766    0.6895671
              12       -3253.60264651083708    0.6881617
              13       -3253.70421903272108    0.6493819
              14       -3253.76907849015879    0.5878706
              15       -3253.80849856823170    0.5147717
              16       -3253.82563636553232    0.4186075
              17       -3253.82805304687190    0.3333904
              18       -3253.82858181622669    0.3082397
              19       -3253.82875772158559    0.3305481
              20       -3253.82892817302354    0.3647033
              21       -3253.82911283669273    0.4072183
              22       -3253.82929798309442    0.4525512
              23       -3253.82945704804115    0.4866981
              24       -3253.82955666314137    0.4989357
              25       -3253.82958885017160    0.4999934
              26       -3253.82959160333439    0.5000001
              27       -3253.82959162175302    0.5000001
Termination criterion satisfied: band energy change below threshold.
Final occupancy bounds: [    0.00000000000007:    0.99999999999999]
Closest occupancy to 0.5:     1.00000000000000
================================================================================
... done

Writing density kernel to file "complex_33161.vacuum_dkn" ... done

>>> Optimising kernel for current NGWFs:
   Initial electron number for spin 1:    7228.00000000
     Final electron number for spin 1:    7228.00000000

=================== Penalty functional idempotency correction ==================
 RMS occupancy error at iteration   1:  0.000000 (step -0.5000 Ne1=   7228.0000)
            Final RMS occupancy error   :  0.000000 (Ne1=   7228.0000)
               Final occupancy bounds   : [  0.0000,  1.0000]
================================================================================

................................................................................
<<<<<<<<<<<<<< LNV (Original version) density kernel optimisation >>>>>>>>>>>>>>
~~~~~~~~~~~~~~~~~~~~~~~~~~~~~~~~~~~~~~~~~~~~~~~~~~~~~~~~~~~~~~~~~~~~~~~~~~~~~~~~
   iter  |      energy (Eh)       | rms gradient |  commutator  |   dE (Eh)
MG BCs: +ve charge blocks (gridpoints):     30772 (   17109492).
MG BCs: -ve charge blocks (gridpoints):      8442 (    1119507).
MG BCs:     Elided blocks (gridpoints):    163135 (  172741626).
MG BCs: Computational effort saved:  99.9795%.
MG BCs: Charge after coarse-graining:           -9.0009711.
MG DL_MG: Calling solver with defect correction order = 8
MG DL_MG: Solver finished
MG Hartree energy from (\int phi*rho dr):              1424.170894
MG Hartree energy from (\int eps (grad phi)^2 dr):     1423.494271
MG Discrepancy due to finite box and discretization:     -0.676623 (  -0.04751%)
MG Correction to account for finite box:                  0.479251
MG Remaining discrepancy, due to discretization:         -0.197372 (  -0.01386%)
      ideal mu1:      -0.709564779177
             Q0:  -11578.203589524142
             G0:    -148.784369862581
   RMS gradient:       0.001865380007
MG BCs: +ve charge blocks (gridpoints):     30810 (   17183323).
MG BCs: -ve charge blocks (gridpoints):      8364 (    1102242).
MG BCs:     Elided blocks (gridpoints):    163093 (  172685060).
MG BCs: Computational effort saved:  99.9795%.
MG BCs: Charge after coarse-graining:           -9.0009938.
MG DL_MG: Calling solver with defect correction order = 8
MG DL_MG: Solver finished
MG Hartree energy from (\int phi*rho dr):              1443.703405
MG Hartree energy from (\int eps (grad phi)^2 dr):     1443.045628
MG Discrepancy due to finite box and discretization:     -0.657777 (  -0.04556%)
MG Correction to account for finite box:                  0.476934
MG Remaining discrepancy, due to discretization:         -0.180843 (  -0.01253%)
     Trial step:       0.500000000000
             Q1:  -11589.989717201097
 Quadratic coef:      62.606057254336
 Linear coef   :     -74.392184931290
           Qmin:  -11600.302877602486
Quadratic minimum step length (  0.297064645954) accepted
    Initial Ne1:    7228.00000000
      Final Ne1:    7228.00000000

=================== Penalty functional idempotency correction ==================
 RMS occupancy error at iteration   1:  0.003543 (step -0.4879 Ne1=   7228.0000)
 RMS occupancy error at iteration   2:  0.000028 (step -0.5001 Ne1=   7228.0000)
            Final RMS occupancy error   :  0.000000 (Ne1=   7228.0000)
               Final occupancy bounds   : [  0.0000,  1.0000]
================================================================================

    1        -1.157820358952E+04     1.8654E-03     1.6876E-03
MG BCs: +ve charge blocks (gridpoints):     30798 (   17154515).
MG BCs: -ve charge blocks (gridpoints):      8405 (    1109710).
MG BCs:     Elided blocks (gridpoints):    163107 (  172706400).
MG BCs: Computational effort saved:  99.9795%.
MG BCs: Charge after coarse-graining:           -9.0009846.
MG DL_MG: Calling solver with defect correction order = 8
MG DL_MG: Solver finished
MG Hartree energy from (\int phi*rho dr):              1427.574113
MG Hartree energy from (\int eps (grad phi)^2 dr):     1426.909687
MG Discrepancy due to finite box and discretization:     -0.664425 (  -0.04654%)
MG Correction to account for finite box:                  0.477769
MG Remaining discrepancy, due to discretization:         -0.186656 (  -0.01308%)
      ideal mu1:      -0.750630192096
             Q0:  -11600.746618001023
             G0:     -12.250304396188
   RMS gradient:       0.000531409774
MG BCs: +ve charge blocks (gridpoints):     30800 (   17170361).
MG BCs: -ve charge blocks (gridpoints):      8394 (    1105314).
MG BCs:     Elided blocks (gridpoints):    163104 (  172694950).
MG BCs: Computational effort saved:  99.9795%.
MG BCs: Charge after coarse-graining:           -9.0009884.
MG DL_MG: Calling solver with defect correction order = 8
MG DL_MG: Solver finished
MG Hartree energy from (\int phi*rho dr):              1431.834911
MG Hartree energy from (\int eps (grad phi)^2 dr):     1431.174897
MG Discrepancy due to finite box and discretization:     -0.660014 (  -0.04610%)
MG Correction to account for finite box:                  0.476642
MG Remaining discrepancy, due to discretization:         -0.183372 (  -0.01281%)
     Trial step:       0.385398914084
             Q1:  -11603.652237483067
 Quadratic coef:       1.815634529441
 Linear coef   :      -4.721254011486
           Qmin:  -11603.815825911472
Quadratic minimum step length (  0.501082717814) accepted
    Initial Ne1:    7227.99989148
      Final Ne1:    7228.00000000

=================== Penalty functional idempotency correction ==================
 RMS occupancy error at iteration   1:  0.001898 (step -0.4927 Ne1=   7228.0000)
 RMS occupancy error at iteration   2:  0.000012 (step -0.5001 Ne1=   7228.0000)
            Final RMS occupancy error   :  0.000000 (Ne1=   7228.0000)
               Final occupancy bounds   : [  0.0000,  1.0000]
================================================================================

    2        -1.160074661800E+04     5.3141E-04     4.8075E-04    -2.2543E+01
MG BCs: +ve charge blocks (gridpoints):     30801 (   17175013).
MG BCs: -ve charge blocks (gridpoints):      8390 (    1103971).
MG BCs:     Elided blocks (gridpoints):    163103 (  172691641).
MG BCs: Computational effort saved:  99.9795%.
MG BCs: Charge after coarse-graining:           -9.0009897.
MG DL_MG: Calling solver with defect correction order = 8
MG DL_MG: Solver finished
MG Hartree energy from (\int phi*rho dr):              1433.162422
MG Hartree energy from (\int eps (grad phi)^2 dr):     1432.503646
MG Discrepancy due to finite box and discretization:     -0.658776 (  -0.04597%)
MG Correction to account for finite box:                  0.476319
MG Remaining discrepancy, due to discretization:         -0.182457 (  -0.01273%)
      ideal mu1:      -0.773872127717
             Q0:  -11603.854500569170
             G0:      -1.966039161797
   RMS gradient:       0.000213097465
MG BCs: +ve charge blocks (gridpoints):     30800 (   17174736).
MG BCs: -ve charge blocks (gridpoints):      8391 (    1104715).
MG BCs:     Elided blocks (gridpoints):    163105 (  172691174).
MG BCs: Computational effort saved:  99.9795%.
MG BCs: Charge after coarse-graining:           -9.0009895.
MG DL_MG: Calling solver with defect correction order = 8
MG DL_MG: Solver finished
MG Hartree energy from (\int phi*rho dr):              1431.460193
MG Hartree energy from (\int eps (grad phi)^2 dr):     1430.801919
MG Discrepancy due to finite box and discretization:     -0.658274 (  -0.04599%)
MG Correction to account for finite box:                  0.475961
MG Remaining discrepancy, due to discretization:         -0.182312 (  -0.01274%)
     Trial step:       0.439450492447
             Q1:  -11604.361199708306
 Quadratic coef:       0.357277738685
 Linear coef   :      -0.863976877822
           Qmin:  -11604.376822536498
Quadratic minimum step length (  0.531344418237) accepted
    Initial Ne1:    7227.99994643
      Final Ne1:    7228.00000000

=================== Penalty functional idempotency correction ==================
 RMS occupancy error at iteration   1:  0.000665 (step -0.4970 Ne1=   7228.0000)
 RMS occupancy error at iteration   2:  0.000003 (step -0.5000 Ne1=   7228.0000)
            Final RMS occupancy error   :  0.000000 (Ne1=   7228.0000)
               Final occupancy bounds   : [  0.0000,  1.0000]
================================================================================

    3        -1.160385450057E+04     2.1310E-04     1.9278E-04    -3.1079E+00
MG BCs: +ve charge blocks (gridpoints):     30800 (   17174675).
MG BCs: -ve charge blocks (gridpoints):      8396 (    1104880).
MG BCs:     Elided blocks (gridpoints):    163105 (  172691070).
MG BCs: Computational effort saved:  99.9795%.
MG BCs: Charge after coarse-graining:           -9.0009894.
MG DL_MG: Calling solver with defect correction order = 8
MG DL_MG: Solver finished
MG Hartree energy from (\int phi*rho dr):              1431.112127
MG Hartree energy from (\int eps (grad phi)^2 dr):     1430.453947
MG Discrepancy due to finite box and discretization:     -0.658179 (  -0.04599%)
MG Correction to account for finite box:                  0.475887
MG Remaining discrepancy, due to discretization:         -0.182293 (  -0.01274%)
      ideal mu1:      -0.774738705625
             Q0:  -11604.382095360546
             G0:      -0.520427263644
   RMS gradient:       0.000109699719
MG BCs: +ve charge blocks (gridpoints):     30804 (   17175853).
MG BCs: -ve charge blocks (gridpoints):      8393 (    1104670).
MG BCs:     Elided blocks (gridpoints):    163101 (  172690102).
MG BCs: Computational effort saved:  99.9795%.
MG BCs: Charge after coarse-graining:           -9.0009895.
MG DL_MG: Calling solver with defect correction order = 8
MG DL_MG: Solver finished
MG Hartree energy from (\int phi*rho dr):              1432.328696
MG Hartree energy from (\int eps (grad phi)^2 dr):     1431.670577
MG Discrepancy due to finite box and discretization:     -0.658119 (  -0.04595%)
MG Correction to account for finite box:                  0.475754
MG Remaining discrepancy, due to discretization:         -0.182365 (  -0.01273%)
     Trial step:       0.483217928323
             Q1:  -11604.507235796656
 Quadratic coef:       0.126339348071
 Linear coef   :      -0.251479784181
           Qmin:  -11604.507238640959
Quadratic minimum step length (  0.480925151911) accepted
    Initial Ne1:    7227.99998710
      Final Ne1:    7228.00000000

=================== Penalty functional idempotency correction ==================
 RMS occupancy error at iteration   1:  0.000271 (step -0.4972 Ne1=   7228.0000)
 RMS occupancy error at iteration   2:  0.000002 (step -0.5000 Ne1=   7228.0000)
            Final RMS occupancy error   :  0.000000 (Ne1=   7228.0000)
               Final occupancy bounds   : [  0.0000,  1.0000]
================================================================================

    4        -1.160438209536E+04     1.0970E-04     9.9243E-05    -5.2759E-01
MG BCs: +ve charge blocks (gridpoints):     30804 (   17175852).
MG BCs: -ve charge blocks (gridpoints):      8393 (    1104671).
MG BCs:     Elided blocks (gridpoints):    163101 (  172690102).
MG BCs: Computational effort saved:  99.9795%.
MG BCs: Charge after coarse-graining:           -9.0009895.
MG DL_MG: Calling solver with defect correction order = 8
MG DL_MG: Solver finished
MG Hartree energy from (\int phi*rho dr):              1432.323272
MG Hartree energy from (\int eps (grad phi)^2 dr):     1431.665152
MG Discrepancy due to finite box and discretization:     -0.658120 (  -0.04595%)
MG Correction to account for finite box:                  0.475755
MG Remaining discrepancy, due to discretization:         -0.182365 (  -0.01273%)
      ideal mu1:      -0.775198094082
             Q0:  -11604.507915602531
             G0:      -0.168933517244
   RMS gradient:       0.000062695163
MG BCs: +ve charge blocks (gridpoints):     30804 (   17176099).
MG BCs: -ve charge blocks (gridpoints):      8394 (    1104543).
MG BCs:     Elided blocks (gridpoints):    163102 (  172689983).
MG BCs: Computational effort saved:  99.9795%.
MG BCs: Charge after coarse-graining:           -9.0009893.
MG DL_MG: Calling solver with defect correction order = 8
MG DL_MG: Solver finished
MG Hartree energy from (\int phi*rho dr):              1432.703809
MG Hartree energy from (\int eps (grad phi)^2 dr):     1432.045579
MG Discrepancy due to finite box and discretization:     -0.658230 (  -0.04594%)
MG Correction to account for finite box:                  0.475695
MG Remaining discrepancy, due to discretization:         -0.182535 (  -0.01274%)
     Trial step:       0.482070177034
             Q1:  -11604.559353105258
 Quadratic coef:       0.030000307837
 Linear coef   :      -0.081437810565
           Qmin:  -11604.563182677002
Quadratic minimum step length (  0.654305615280) accepted
    Initial Ne1:    7227.99999430
      Final Ne1:    7228.00000000

=================== Penalty functional idempotency correction ==================
 RMS occupancy error at iteration   1:  0.000308 (step -0.4844 Ne1=   7228.0000)
 RMS occupancy error at iteration   2:  0.000005 (step -0.5000 Ne1=   7228.0000)
            Final RMS occupancy error   :  0.000000 (Ne1=   7228.0000)
               Final occupancy bounds   : [  0.0000,  1.0000]
================================================================================

    5        -1.160450791560E+04     6.2695E-05     5.6719E-05    -1.2582E-01
MG BCs: +ve charge blocks (gridpoints):     30803 (   17176210).
MG BCs: -ve charge blocks (gridpoints):      8393 (    1104471).
MG BCs:     Elided blocks (gridpoints):    163103 (  172689944).
MG BCs: Computational effort saved:  99.9795%.
MG BCs: Charge after coarse-graining:           -9.0009893.
MG DL_MG: Calling solver with defect correction order = 8
MG DL_MG: Solver finished
MG Hartree energy from (\int phi*rho dr):              1432.838723
MG Hartree energy from (\int eps (grad phi)^2 dr):     1432.180456
MG Discrepancy due to finite box and discretization:     -0.658267 (  -0.04594%)
MG Correction to account for finite box:                  0.475671
MG Remaining discrepancy, due to discretization:         -0.182596 (  -0.01274%)
      ideal mu1:      -0.775170567259
             Q0:  -11604.563077463186
             G0:      -0.124561314567
   RMS gradient:       0.000054064304
MG BCs: +ve charge blocks (gridpoints):     30797 (   17175474).
MG BCs: -ve charge blocks (gridpoints):      8393 (    1104848).
MG BCs:     Elided blocks (gridpoints):    163110 (  172690303).
MG BCs: Computational effort saved:  99.9795%.
MG BCs: Charge after coarse-graining:           -9.0009891.
MG DL_MG: Calling solver with defect correction order = 8
MG DL_MG: Solver finished
MG Hartree energy from (\int phi*rho dr):              1431.696197
MG Hartree energy from (\int eps (grad phi)^2 dr):     1431.038064
MG Discrepancy due to finite box and discretization:     -0.658133 (  -0.04597%)
MG Correction to account for finite box:                  0.475546
MG Remaining discrepancy, due to discretization:         -0.182586 (  -0.01275%)
     Trial step:       0.561623738629
             Q1:  -11604.617132449173
 Quadratic coef:       0.015901605189
 Linear coef   :      -0.069956591176
           Qmin:  -11604.640018196380
Quadratic minimum step length (  1.235387302411) accepted
    Initial Ne1:    7227.99996947
      Final Ne1:    7228.00000000

=================== Penalty functional idempotency correction ==================
 RMS occupancy error at iteration   1:  0.002218 (step -0.3767 Ne1=   7228.0000)
 RMS occupancy error at iteration   2:  0.000129 (step -0.4952 Ne1=   7228.0000)
 RMS occupancy error at iteration   3:  0.000001 (step -0.5000 Ne1=   7228.0000)
            Final RMS occupancy error   :  0.000000 (Ne1=   7228.0000)
               Final occupancy bounds   : [  0.0000,  1.0000]
================================================================================

    6        -1.160456307746E+04     5.4064E-05     4.8911E-05    -5.5162E-02
MG BCs: +ve charge blocks (gridpoints):     30799 (   17174662).
MG BCs: -ve charge blocks (gridpoints):      8394 (    1105264).
MG BCs:     Elided blocks (gridpoints):    163108 (  172690699).
MG BCs: Computational effort saved:  99.9795%.
MG BCs: Charge after coarse-graining:           -9.0009889.
MG DL_MG: Calling solver with defect correction order = 8
MG DL_MG: Solver finished
MG Hartree energy from (\int phi*rho dr):              1430.323264
MG Hartree energy from (\int eps (grad phi)^2 dr):     1429.665305
MG Discrepancy due to finite box and discretization:     -0.657959 (  -0.04600%)
MG Correction to account for finite box:                  0.475386
MG Remaining discrepancy, due to discretization:         -0.182574 (  -0.01276%)
      ideal mu1:      -0.775043445613
             Q0:  -11604.628220235114
             G0:      -0.241199291131
   RMS gradient:       0.000075106353
MG BCs: +ve charge blocks (gridpoints):     30811 (   17177395).
MG BCs: -ve charge blocks (gridpoints):      8390 (    1103910).
MG BCs:     Elided blocks (gridpoints):    163095 (  172689320).
MG BCs: Computational effort saved:  99.9795%.
MG BCs: Charge after coarse-graining:           -9.0009897.
MG DL_MG: Calling solver with defect correction order = 8
MG DL_MG: Solver finished
MG Hartree energy from (\int phi*rho dr):              1433.847266
MG Hartree energy from (\int eps (grad phi)^2 dr):     1433.189557
MG Discrepancy due to finite box and discretization:     -0.657709 (  -0.04587%)
MG Correction to account for finite box:                  0.475269
MG Remaining discrepancy, due to discretization:         -0.182440 (  -0.01272%)
     Trial step:       0.832960284429
             Q1:  -11604.686659925152
 Quadratic coef:       0.142469740107
 Linear coef   :      -0.200909430144
           Qmin:  -11604.699050362076
Quadratic minimum step length (  0.587316211679) accepted
    Initial Ne1:    7227.99999989
      Final Ne1:    7228.00000000

=================== Penalty functional idempotency correction ==================
 RMS occupancy error at iteration   1:  0.000132 (step -0.4901 Ne1=   7228.0000)
 RMS occupancy error at iteration   2:  0.000001 (step -0.5000 Ne1=   7228.0000)
            Final RMS occupancy error   :  0.000000 (Ne1=   7228.0000)
               Final occupancy bounds   : [  0.0000,  1.0000]
================================================================================

    7        -1.160462822024E+04     7.5106E-05     6.7947E-05    -6.5143E-02
MG BCs: +ve charge blocks (gridpoints):     30804 (   17176552).
MG BCs: -ve charge blocks (gridpoints):      8392 (    1104345).
MG BCs:     Elided blocks (gridpoints):    163103 (  172689728).
MG BCs: Computational effort saved:  99.9795%.
MG BCs: Charge after coarse-graining:           -9.0009895.
MG DL_MG: Calling solver with defect correction order = 8
MG DL_MG: Solver finished
MG Hartree energy from (\int phi*rho dr):              1432.802830
MG Hartree energy from (\int eps (grad phi)^2 dr):     1432.145047
MG Discrepancy due to finite box and discretization:     -0.657782 (  -0.04591%)
MG Correction to account for finite box:                  0.475304
MG Remaining discrepancy, due to discretization:         -0.182478 (  -0.01274%)
      ideal mu1:      -0.776242659386
             Q0:  -11604.699211857514
             G0:      -0.173534823741
   RMS gradient:       0.000063660019
MG BCs: +ve charge blocks (gridpoints):     30806 (   17176674).
MG BCs: -ve charge blocks (gridpoints):      8392 (    1104390).
MG BCs:     Elided blocks (gridpoints):    163100 (  172689561).
MG BCs: Computational effort saved:  99.9795%.
MG BCs: Charge after coarse-graining:           -9.0009896.
MG DL_MG: Calling solver with defect correction order = 8
MG DL_MG: Solver finished
MG Hartree energy from (\int phi*rho dr):              1432.854660
MG Hartree energy from (\int eps (grad phi)^2 dr):     1432.197141
MG Discrepancy due to finite box and discretization:     -0.657519 (  -0.04589%)
MG Correction to account for finite box:                  0.475209
MG Remaining discrepancy, due to discretization:         -0.182310 (  -0.01272%)
     Trial step:       0.699436257803
             Q1:  -11604.782215750427
 Quadratic coef:       0.038372654803
 Linear coef   :      -0.121376547716
           Qmin:  -11604.795193399652
Quadratic minimum step length (  1.106193443693) accepted
    Initial Ne1:    7227.99999976
      Final Ne1:    7228.00000000

=================== Penalty functional idempotency correction ==================
 RMS occupancy error at iteration   1:  0.001915 (step -0.3865 Ne1=   7228.0000)
 RMS occupancy error at iteration   2:  0.000083 (step -0.4945 Ne1=   7228.0000)
 RMS occupancy error at iteration   3:  0.000000 (step -0.5000 Ne1=   7228.0000)
            Final RMS occupancy error   :  0.000000 (Ne1=   7228.0000)
               Final occupancy bounds   : [  0.0000,  1.0000]
================================================================================

    8        -1.160469921186E+04     6.3660E-05     5.7592E-05    -7.0992E-02
MG BCs: +ve charge blocks (gridpoints):     30807 (   17176782).
MG BCs: -ve charge blocks (gridpoints):      8392 (    1104364).
MG BCs:     Elided blocks (gridpoints):    163098 (  172689479).
MG BCs: Computational effort saved:  99.9795%.
MG BCs: Charge after coarse-graining:           -9.0009896.
MG DL_MG: Calling solver with defect correction order = 8
MG DL_MG: Solver finished
MG Hartree energy from (\int phi*rho dr):              1432.888549
MG Hartree energy from (\int eps (grad phi)^2 dr):     1432.231172
MG Discrepancy due to finite box and discretization:     -0.657377 (  -0.04588%)
MG Correction to account for finite box:                  0.475162
MG Remaining discrepancy, due to discretization:         -0.182215 (  -0.01272%)
      ideal mu1:      -0.775955484109
             Q0:  -11604.786905876594
             G0:      -0.271816497193
   RMS gradient:       0.000083655953
MG BCs: +ve charge blocks (gridpoints):     30806 (   17175401).
MG BCs: -ve charge blocks (gridpoints):      8392 (    1105099).
MG BCs:     Elided blocks (gridpoints):    163099 (  172690125).
MG BCs: Computational effort saved:  99.9795%.
MG BCs: Charge after coarse-graining:           -9.0009894.
MG DL_MG: Calling solver with defect correction order = 8
MG DL_MG: Solver finished
MG Hartree energy from (\int phi*rho dr):              1431.090141
MG Hartree energy from (\int eps (grad phi)^2 dr):     1430.432822
MG Discrepancy due to finite box and discretization:     -0.657319 (  -0.04593%)
MG Correction to account for finite box:                  0.475248
MG Remaining discrepancy, due to discretization:         -0.182071 (  -0.01272%)
     Trial step:       0.879608891873
             Q1:  -11604.803996210918
 Quadratic coef:       0.222001873564
 Linear coef   :      -0.239092207889
           Qmin:  -11604.851280427758
Quadratic minimum step length (  0.473661840461) accepted
    Initial Ne1:    7227.99999982
      Final Ne1:    7228.00000000

=================== Penalty functional idempotency correction ==================
 RMS occupancy error at iteration   1:  0.003607 (step -0.3259 Ne1=   7228.0000)
 RMS occupancy error at iteration   2:  0.000244 (step -0.4834 Ne1=   7228.0000)
 RMS occupancy error at iteration   3:  0.000003 (step -0.5000 Ne1=   7228.0000)
            Final RMS occupancy error   :  0.000000 (Ne1=   7228.0000)
               Final occupancy bounds   : [  0.0000,  1.0000]
================================================================================

    9        -1.160478690588E+04     8.3656E-05     7.5682E-05    -8.7694E-02
MG BCs: +ve charge blocks (gridpoints):     30808 (   17176051).
MG BCs: -ve charge blocks (gridpoints):      8392 (    1104719).
MG BCs:     Elided blocks (gridpoints):    163097 (  172689855).
MG BCs: Computational effort saved:  99.9795%.
MG BCs: Charge after coarse-graining:           -9.0009895.
MG DL_MG: Calling solver with defect correction order = 8
MG DL_MG: Solver finished
MG Hartree energy from (\int phi*rho dr):              1431.900202
MG Hartree energy from (\int eps (grad phi)^2 dr):     1431.242973
MG Discrepancy due to finite box and discretization:     -0.657229 (  -0.04590%)
MG Correction to account for finite box:                  0.475118
MG Remaining discrepancy, due to discretization:         -0.182111 (  -0.01272%)
      ideal mu1:      -0.774985407533
   10        -1.160486173337E+04     7.2036E-05     6.5169E-05    -7.4827E-02
Finished density kernel iterations (  10)

Writing density kernel to file "complex_33161.vacuum_dkn" ... done


>>> Density kernel optimised for the current NGWF basis:
     ~~~~~~~~~~~~~~~~~~~~~~~~~~~~~~~~~~~~~~~~~~~~~~~~~~~~~~~~~~~
     Total energy                =  -1.16048617333691E+04  Eh
     Estimated bandgap           =  -3.4535E-01  Eh
     RMS occupancy error         =   1.1605E-09
     [H,K] commutator            =   6.5169E-05
     Occupancy bounds            = [  0.000:  1.000]
     ~~~~~~~~~~~~~~~~~~~~~~~~~~~~~~~~~~~~~~~~~~~~~~~~~~~~~~~~~~~




################################################################################
########################### NGWF CG iteration  001 #############################
################################################################################
****** Reciprocal space K.E. preconditioning with k_zero =  3.5000 a0^-1 *******

>>> Checking for convergence of NGWFs:   NOT CONVERGED
  ========================================================================
         NGWF RMS gradient =  1.5965E-03 >  2.0000E-06  | above tolerance
  ========================================================================

>>> Improving NGWFs using line search:
============ Calculation of NGWF S^-1 using Hotelling algorithm ================ 
         Iteration  |  Frobenius norm and Maximum abs value    (of I-S*S_n^-1)   
               1       0.19986744E+00     0.52158811E-02
               2       0.91835429E-03     0.38216193E-04
               3       0.32295766E-07     0.21412836E-08
               4       0.12639203E-12     0.54400928E-14
================================================================================
MG BCs: +ve charge blocks (gridpoints):     30303 (   17121437).
MG BCs: -ve charge blocks (gridpoints):      8399 (    1103930).
MG BCs:     Elided blocks (gridpoints):    163601 (  172745258).
MG BCs: Computational effort saved:  99.9797%.
MG BCs: Charge after coarse-graining:           -9.0009872.
MG DL_MG: Calling solver with defect correction order = 8
MG DL_MG: Solver finished
MG Hartree energy from (\int phi*rho dr):              1399.733462
MG Hartree energy from (\int eps (grad phi)^2 dr):     1399.077117
MG Discrepancy due to finite box and discretization:     -0.656345 (  -0.04689%)
MG Correction to account for finite box:                  0.475007
MG Remaining discrepancy, due to discretization:         -0.181338 (  -0.01296%)
============ Calculation of NGWF S^-1 using Hotelling algorithm ================ 
         Iteration  |  Frobenius norm and Maximum abs value    (of I-S*S_n^-1)   
               1       0.18797203E+01     0.41185363E-01
               2       0.73123519E-01     0.22087289E-02
               3       0.14652607E-03     0.66453936E-05
               4       0.10155541E-08     0.86671320E-10
               5       0.11119109E-12     0.44408921E-14
================================================================================
------------------------------- NGWF line search -------------------------------
RMS gradient                =       0.00159647736460
Trial step length           =               0.122474
Gradient along search dir.  =       -279.80126074146
Functional at step 0        =  -11604.86173336906359
Functional at step 1        =  -11636.51626153581310
Functional predicted        =  -11717.17396452144203
Selected quadratic step     =               0.802800
--------------------------- NGWF line search finished --------------------------
                                               
Writing NGWFs to file "complex_33161.vacuum_tightbox_ngwfs"....  done

>>> Optimising kernel for current NGWFs:
   Initial electron number for spin 1:    7263.80092934
     Final electron number for spin 1:    7228.00000000

=================== Penalty functional idempotency correction ==================
 RMS occupancy error at iteration   1:  0.004314 (step -0.4859 Ne1=   7228.0000)
 RMS occupancy error at iteration   2:  0.000071 (step -0.5003 Ne1=   7228.0000)
            Final RMS occupancy error   :  0.000000 (Ne1=   7228.0000)
               Final occupancy bounds   : [  0.0000,  1.0000]
================================================================================

................................................................................
<<<<<<<<<<<<<< LNV (Original version) density kernel optimisation >>>>>>>>>>>>>>
~~~~~~~~~~~~~~~~~~~~~~~~~~~~~~~~~~~~~~~~~~~~~~~~~~~~~~~~~~~~~~~~~~~~~~~~~~~~~~~~
   iter  |      energy (Eh)       | rms gradient |  commutator  |   dE (Eh)
MG BCs: +ve charge blocks (gridpoints):     24558 (   16852608).
MG BCs: -ve charge blocks (gridpoints):      8513 (    1085693).
MG BCs:     Elided blocks (gridpoints):    169356 (  173032324).
MG BCs: Computational effort saved:  99.9827%.
MG BCs: Charge after coarse-graining:           -9.0006667.
MG DL_MG: Calling solver with defect correction order = 8
MG DL_MG: Solver finished
MG Hartree energy from (\int phi*rho dr):              1243.943189
MG Hartree energy from (\int eps (grad phi)^2 dr):     1243.287304
MG Discrepancy due to finite box and discretization:     -0.655885 (  -0.05273%)
MG Correction to account for finite box:                  0.474454
MG Remaining discrepancy, due to discretization:         -0.181431 (  -0.01459%)
      ideal mu1:      -0.714598369620
             Q0:  -11716.210607174668
             G0:      -9.726384863833
   RMS gradient:       0.000476940703
MG BCs: +ve charge blocks (gridpoints):     24615 (   16873911).
MG BCs: -ve charge blocks (gridpoints):      8496 (    1079935).
MG BCs:     Elided blocks (gridpoints):    169299 (  173016779).
MG BCs: Computational effort saved:  99.9827%.
MG BCs: Charge after coarse-graining:           -9.0006613.
MG DL_MG: Calling solver with defect correction order = 8
MG DL_MG: Solver finished
MG Hartree energy from (\int phi*rho dr):              1261.518602
MG Hartree energy from (\int eps (grad phi)^2 dr):     1260.857759
MG Discrepancy due to finite box and discretization:     -0.660843 (  -0.05238%)
MG Correction to account for finite box:                  0.474243
MG Remaining discrepancy, due to discretization:         -0.186601 (  -0.01479%)
     Trial step:       0.645474373318
             Q1:  -11716.391530021443
 Quadratic coef:       6.097209327861
 Linear coef   :      -6.278132174637
           Qmin:  -11717.826713063558
Quadratic minimum step length (  0.332313785957) accepted
    Initial Ne1:    7227.99956048
      Final Ne1:    7228.00000000

=================== Penalty functional idempotency correction ==================
 RMS occupancy error at iteration   1:  0.000352 (step -0.4986 Ne1=   7228.0000)
 RMS occupancy error at iteration   2:  0.000000 (step -0.5000 Ne1=   7228.0000)
            Final RMS occupancy error   :  0.000000 (Ne1=   7228.0000)
               Final occupancy bounds   : [  0.0000,  1.0000]
================================================================================

    1        -1.171621060717E+04     4.7694E-04     4.3148E-04
MG BCs: +ve charge blocks (gridpoints):     24590 (   16863731).
MG BCs: -ve charge blocks (gridpoints):      8502 (    1082654).
MG BCs:     Elided blocks (gridpoints):    169324 (  173024240).
MG BCs: Computational effort saved:  99.9827%.
MG BCs: Charge after coarse-graining:           -9.0006639.
MG DL_MG: Calling solver with defect correction order = 8
MG DL_MG: Solver finished
MG Hartree energy from (\int phi*rho dr):              1252.223978
MG Hartree energy from (\int eps (grad phi)^2 dr):     1251.565614
MG Discrepancy due to finite box and discretization:     -0.658364 (  -0.05258%)
MG Correction to account for finite box:                  0.474330
MG Remaining discrepancy, due to discretization:         -0.184034 (  -0.01470%)
      ideal mu1:      -0.722602601041
             Q0:  -11717.806656490895
             G0:      -1.073705417414
   RMS gradient:       0.000158871492
MG BCs: +ve charge blocks (gridpoints):     24592 (   16864023).
MG BCs: -ve charge blocks (gridpoints):      8500 (    1083187).
MG BCs:     Elided blocks (gridpoints):    169322 (  173023415).
MG BCs: Computational effort saved:  99.9827%.
MG BCs: Charge after coarse-graining:           -9.0006637.
MG DL_MG: Calling solver with defect correction order = 8
MG DL_MG: Solver finished
MG Hartree energy from (\int phi*rho dr):              1253.662814
MG Hartree energy from (\int eps (grad phi)^2 dr):     1253.004086
MG Discrepancy due to finite box and discretization:     -0.658728 (  -0.05254%)
MG Correction to account for finite box:                  0.474338
MG Remaining discrepancy, due to discretization:         -0.184390 (  -0.01471%)
     Trial step:       0.463141482418
             Q1:  -11718.043729431462
 Quadratic coef:       0.260204578135
 Linear coef   :      -0.497277518701
           Qmin:  -11718.044243519895
Quadratic minimum step length (  0.442555332490) accepted
    Initial Ne1:    7227.99993504
      Final Ne1:    7228.00000000

=================== Penalty functional idempotency correction ==================
 RMS occupancy error at iteration   1:  0.000173 (step -0.4987 Ne1=   7228.0000)
 RMS occupancy error at iteration   2:  0.000001 (step -0.5000 Ne1=   7228.0000)
            Final RMS occupancy error   :  0.000000 (Ne1=   7228.0000)
               Final occupancy bounds   : [  0.0000,  1.0000]
================================================================================

    2        -1.171780665649E+04     1.5887E-04     1.4373E-04    -1.5960E+00
MG BCs: +ve charge blocks (gridpoints):     24592 (   16864049).
MG BCs: -ve charge blocks (gridpoints):      8500 (    1083141).
MG BCs:     Elided blocks (gridpoints):    169322 (  173023435).
MG BCs: Computational effort saved:  99.9827%.
MG BCs: Charge after coarse-graining:           -9.0006637.
MG DL_MG: Calling solver with defect correction order = 8
MG DL_MG: Solver finished
MG Hartree energy from (\int phi*rho dr):              1253.598909
MG Hartree energy from (\int eps (grad phi)^2 dr):     1252.940197
MG Discrepancy due to finite box and discretization:     -0.658712 (  -0.05255%)
MG Correction to account for finite box:                  0.474338
MG Remaining discrepancy, due to discretization:         -0.184374 (  -0.01471%)
      ideal mu1:      -0.723607492044
             Q0:  -11718.044743005303
             G0:      -0.189061262998
   RMS gradient:       0.000066427394
MG BCs: +ve charge blocks (gridpoints):     24592 (   16862717).
MG BCs: -ve charge blocks (gridpoints):      8502 (    1083724).
MG BCs:     Elided blocks (gridpoints):    169322 (  173024184).
MG BCs: Computational effort saved:  99.9827%.
MG BCs: Charge after coarse-graining:           -9.0006639.
MG DL_MG: Calling solver with defect correction order = 8
MG DL_MG: Solver finished
MG Hartree energy from (\int phi*rho dr):              1252.828645
MG Hartree energy from (\int eps (grad phi)^2 dr):     1252.169986
MG Discrepancy due to finite box and discretization:     -0.658659 (  -0.05257%)
MG Correction to account for finite box:                  0.474312
MG Remaining discrepancy, due to discretization:         -0.184347 (  -0.01471%)
     Trial step:       0.452731413469
             Q1:  -11718.104180410621
 Quadratic coef:       0.026156567512
 Linear coef   :      -0.085593972829
           Qmin:  -11718.114766797429
Quadratic minimum step length (  0.740752399677) accepted
    Initial Ne1:    7227.99998097
      Final Ne1:    7228.00000000

=================== Penalty functional idempotency correction ==================
 RMS occupancy error at iteration   1:  0.000216 (step -0.4877 Ne1=   7228.0000)
 RMS occupancy error at iteration   2:  0.000003 (step -0.5000 Ne1=   7228.0000)
            Final RMS occupancy error   :  0.000000 (Ne1=   7228.0000)
               Final occupancy bounds   : [  0.0000,  1.0000]
================================================================================

    3        -1.171804474301E+04     6.6427E-05     6.0095E-05    -2.3809E-01
MG BCs: +ve charge blocks (gridpoints):     24590 (   16861926).
MG BCs: -ve charge blocks (gridpoints):      8503 (    1084058).
MG BCs:     Elided blocks (gridpoints):    169324 (  173024641).
MG BCs: Computational effort saved:  99.9827%.
MG BCs: Charge after coarse-graining:           -9.0006640.
MG DL_MG: Calling solver with defect correction order = 8
MG DL_MG: Solver finished
MG Hartree energy from (\int phi*rho dr):              1252.338567
MG Hartree energy from (\int eps (grad phi)^2 dr):     1251.679942
MG Discrepancy due to finite box and discretization:     -0.658625 (  -0.05259%)
MG Correction to account for finite box:                  0.474295
MG Remaining discrepancy, due to discretization:         -0.184330 (  -0.01472%)
      ideal mu1:      -0.722092106450
             Q0:  -11718.114784200909
             G0:      -0.073322910611
   RMS gradient:       0.000041385852
MG BCs: +ve charge blocks (gridpoints):     24591 (   16862254).
MG BCs: -ve charge blocks (gridpoints):      8502 (    1083941).
MG BCs:     Elided blocks (gridpoints):    169323 (  173024430).
MG BCs: Computational effort saved:  99.9827%.
MG BCs: Charge after coarse-graining:           -9.0006639.
MG DL_MG: Calling solver with defect correction order = 8
MG DL_MG: Solver finished
MG Hartree energy from (\int phi*rho dr):              1252.524385
MG Hartree energy from (\int eps (grad phi)^2 dr):     1251.865948
MG Discrepancy due to finite box and discretization:     -0.658436 (  -0.05257%)
MG Correction to account for finite box:                  0.474247
MG Remaining discrepancy, due to discretization:         -0.184190 (  -0.01471%)
     Trial step:       0.579104378274
             Q1:  -11718.141538137337
 Quadratic coef:       0.015707682134
 Linear coef   :      -0.042461618563
           Qmin:  -11718.143480176475
Quadratic minimum step length (  0.782728763166) accepted
    Initial Ne1:    7227.99999131
      Final Ne1:    7228.00000000

=================== Penalty functional idempotency correction ==================
 RMS occupancy error at iteration   1:  0.000355 (step -0.4752 Ne1=   7228.0000)
 RMS occupancy error at iteration   2:  0.000005 (step -0.5000 Ne1=   7228.0000)
            Final RMS occupancy error   :  0.000000 (Ne1=   7228.0000)
               Final occupancy bounds   : [  0.0000,  1.0000]
================================================================================

    4        -1.171811478420E+04     4.1386E-05     3.7441E-05    -7.0041E-02
MG BCs: +ve charge blocks (gridpoints):     24590 (   16862339).
MG BCs: -ve charge blocks (gridpoints):      8501 (    1083911).
MG BCs:     Elided blocks (gridpoints):    169324 (  173024375).
MG BCs: Computational effort saved:  99.9827%.
MG BCs: Charge after coarse-graining:           -9.0006639.
MG DL_MG: Calling solver with defect correction order = 8
MG DL_MG: Solver finished
MG Hartree energy from (\int phi*rho dr):              1252.591181
MG Hartree energy from (\int eps (grad phi)^2 dr):     1251.932812
MG Discrepancy due to finite box and discretization:     -0.658369 (  -0.05256%)
MG Correction to account for finite box:                  0.474228
MG Remaining discrepancy, due to discretization:         -0.184141 (  -0.01470%)
      ideal mu1:      -0.722455195870
             Q0:  -11718.143433963764
             G0:      -0.069615948414
   RMS gradient:       0.000040296982
MG BCs: +ve charge blocks (gridpoints):     24589 (   16863965).
MG BCs: -ve charge blocks (gridpoints):      8499 (    1083358).
MG BCs:     Elided blocks (gridpoints):    169325 (  173023302).
MG BCs: Computational effort saved:  99.9827%.
MG BCs: Charge after coarse-graining:           -9.0006635.
MG DL_MG: Calling solver with defect correction order = 8
MG DL_MG: Solver finished
MG Hartree energy from (\int phi*rho dr):              1253.588187
MG Hartree energy from (\int eps (grad phi)^2 dr):     1252.930021
MG Discrepancy due to finite box and discretization:     -0.658166 (  -0.05250%)
MG Correction to account for finite box:                  0.474108
MG Remaining discrepancy, due to discretization:         -0.184058 (  -0.01468%)
     Trial step:       0.673261950321
             Q1:  -11718.171988951275
 Quadratic coef:       0.018314781692
 Linear coef   :      -0.046869769203
           Qmin:  -11718.173420333545
Quadratic minimum step length (  0.861479889741) accepted
    Initial Ne1:    7227.99998736
      Final Ne1:    7228.00000000

=================== Penalty functional idempotency correction ==================
 RMS occupancy error at iteration   1:  0.001143 (step -0.4259 Ne1=   7228.0000)
 RMS occupancy error at iteration   2:  0.000036 (step -0.4980 Ne1=   7228.0000)
            Final RMS occupancy error   :  0.000000 (Ne1=   7228.0000)
               Final occupancy bounds   : [ -0.0000,  1.0000]
================================================================================

    5        -1.171814343396E+04     4.0297E-05     3.6456E-05    -2.8650E-02
MG BCs: +ve charge blocks (gridpoints):     24589 (   16864414).
MG BCs: -ve charge blocks (gridpoints):      8498 (    1083186).
MG BCs:     Elided blocks (gridpoints):    169325 (  173023025).
MG BCs: Computational effort saved:  99.9827%.
MG BCs: Charge after coarse-graining:           -9.0006635.
MG DL_MG: Calling solver with defect correction order = 8
MG DL_MG: Solver finished
MG Hartree energy from (\int phi*rho dr):              1253.869141
MG Hartree energy from (\int eps (grad phi)^2 dr):     1253.211028
MG Discrepancy due to finite box and discretization:     -0.658113 (  -0.05249%)
MG Correction to account for finite box:                  0.474078
MG Remaining discrepancy, due to discretization:         -0.184035 (  -0.01468%)
      ideal mu1:      -0.724281023238
             Q0:  -11718.173117710627
             G0:      -0.082527209885
   RMS gradient:       0.000043537467
MG BCs: +ve charge blocks (gridpoints):     24588 (   16864206).
MG BCs: -ve charge blocks (gridpoints):      8500 (    1083421).
MG BCs:     Elided blocks (gridpoints):    169326 (  173022998).
MG BCs: Computational effort saved:  99.9827%.
MG BCs: Charge after coarse-graining:           -9.0006635.
MG DL_MG: Calling solver with defect correction order = 8
MG DL_MG: Solver finished
MG Hartree energy from (\int phi*rho dr):              1253.570611
MG Hartree energy from (\int eps (grad phi)^2 dr):     1252.912846
MG Discrepancy due to finite box and discretization:     -0.657765 (  -0.05247%)
MG Correction to account for finite box:                  0.473725
MG Remaining discrepancy, due to discretization:         -0.184041 (  -0.01468%)
     Trial step:       0.761578381212
             Q1:  -11718.217168561649
 Quadratic coef:       0.018800087888
 Linear coef   :      -0.062850938910
           Qmin:  -11718.225647259231
Quadratic minimum step length (  1.273023737926) accepted
    Initial Ne1:    7228.00197388
      Final Ne1:    7228.00000000

=================== Penalty functional idempotency correction ==================
 RMS occupancy error at iteration   1:  0.005831 (step -0.2660 Ne1=   7228.0000)
 RMS occupancy error at iteration   2:  0.000447 (step -0.4709 Ne1=   7228.0000)
 RMS occupancy error at iteration   3:  0.000010 (step -0.5003 Ne1=   7228.0000)
            Final RMS occupancy error   :  0.000000 (Ne1=   7228.0000)
               Final occupancy bounds   : [  0.0000,  1.0000]
================================================================================

    6        -1.171817311771E+04     4.3537E-05     3.9387E-05    -2.9684E-02
MG BCs: +ve charge blocks (gridpoints):     24587 (   16864120).
MG BCs: -ve charge blocks (gridpoints):      8500 (    1083543).
MG BCs:     Elided blocks (gridpoints):    169327 (  173022962).
MG BCs: Computational effort saved:  99.9827%.
MG BCs: Charge after coarse-graining:           -9.0006635.
MG DL_MG: Calling solver with defect correction order = 8
MG DL_MG: Solver finished
MG Hartree energy from (\int phi*rho dr):              1253.380723
MG Hartree energy from (\int eps (grad phi)^2 dr):     1252.723061
MG Discrepancy due to finite box and discretization:     -0.657662 (  -0.05247%)
MG Correction to account for finite box:                  0.473624
MG Remaining discrepancy, due to discretization:         -0.184039 (  -0.01468%)
      ideal mu1:      -0.725717632907
             Q0:  -11718.220708757406
             G0:      -0.172621511290
   RMS gradient:       0.000063538377
MG BCs: +ve charge blocks (gridpoints):     24590 (   16862224).
MG BCs: -ve charge blocks (gridpoints):      8501 (    1083933).
MG BCs:     Elided blocks (gridpoints):    169324 (  173024468).
MG BCs: Computational effort saved:  99.9827%.
MG BCs: Charge after coarse-graining:           -9.0006639.
MG DL_MG: Calling solver with defect correction order = 8
MG DL_MG: Solver finished
MG Hartree energy from (\int phi*rho dr):              1252.364649
MG Hartree energy from (\int eps (grad phi)^2 dr):     1251.707257
MG Discrepancy due to finite box and discretization:     -0.657391 (  -0.05249%)
MG Correction to account for finite box:                  0.473263
MG Remaining discrepancy, due to discretization:         -0.184128 (  -0.01470%)
     Trial step:       0.984635647117
             Q1:  -11718.301379044889
 Quadratic coef:       0.089299005993
 Linear coef   :      -0.169969293476
           Qmin:  -11718.301587487251
Quadratic minimum step length (  0.937064323452) accepted
    Initial Ne1:    7227.99990966
      Final Ne1:    7228.00000000

=================== Penalty functional idempotency correction ==================
 RMS occupancy error at iteration   1:  0.000531 (step -0.4590 Ne1=   7228.0000)
 RMS occupancy error at iteration   2:  0.000004 (step -0.5000 Ne1=   7228.0000)
            Final RMS occupancy error   :  0.000000 (Ne1=   7228.0000)
               Final occupancy bounds   : [  0.0000,  1.0000]
================================================================================

    7        -1.171822070876E+04     6.3538E-05     5.7482E-05    -4.7591E-02
MG BCs: +ve charge blocks (gridpoints):     24590 (   16862322).
MG BCs: -ve charge blocks (gridpoints):      8501 (    1083906).
MG BCs:     Elided blocks (gridpoints):    169324 (  173024397).
MG BCs: Computational effort saved:  99.9827%.
MG BCs: Charge after coarse-graining:           -9.0006639.
MG DL_MG: Calling solver with defect correction order = 8
MG DL_MG: Solver finished
MG Hartree energy from (\int phi*rho dr):              1252.412801
MG Hartree energy from (\int eps (grad phi)^2 dr):     1251.755390
MG Discrepancy due to finite box and discretization:     -0.657410 (  -0.05249%)
MG Correction to account for finite box:                  0.473287
MG Remaining discrepancy, due to discretization:         -0.184124 (  -0.01470%)
      ideal mu1:      -0.725392399786
             Q0:  -11718.301135946997
             G0:      -0.288004448010
   RMS gradient:       0.000082581570
MG BCs: +ve charge blocks (gridpoints):     24590 (   16861779).
MG BCs: -ve charge blocks (gridpoints):      8502 (    1083870).
MG BCs:     Elided blocks (gridpoints):    169324 (  173024976).
MG BCs: Computational effort saved:  99.9827%.
MG BCs: Charge after coarse-graining:           -9.0006641.
[...]
MG Hartree energy from (\int phi*rho dr):              1209.614996
MG Hartree energy from (\int eps (grad phi)^2 dr):     1209.424741
MG Discrepancy due to finite box and discretization:     -0.190255 (  -0.01573%)
MG Correction to account for finite box:                  0.006492
MG Remaining discrepancy, due to discretization:         -0.183763 (  -0.01519%)
             Q2:  -11752.316336755990
  Cubic LS coeff:       1.010936464739
Predicted energy:  -11752.316336756017
Cubic minimum step length accepted
    Initial Ne1:    7228.00000000
      Final Ne1:    7228.00000000

=================== Penalty functional idempotency correction ==================
 RMS occupancy error at iteration   1:  0.000000 (step -0.5000 Ne1=   7228.0000)
            Final RMS occupancy error   :  0.000000 (Ne1=   7228.0000)
               Final occupancy bounds   : [  0.0000,  1.0000]
================================================================================

    7        -1.175231633675E+04     8.6755E-09     7.8486E-09    -2.0955E-09

Reusing previously generated solute cavity.
MG BCs: +ve charge blocks (gridpoints):     28715 (   18998728).
MG BCs: -ve charge blocks (gridpoints):      8491 (    1053431).
MG BCs:     Elided blocks (gridpoints):    165199 (  170918466).
MG BCs: Computational effort saved:  99.9805%.
MG BCs: Charge after coarse-graining:           -9.0009524.
MG DL_MG: Calling solver with defect correction order = 8
MG DL_MG: Solver finished
MG Hartree energy from (\int phi*rho dr):              1209.614995
MG Hartree energy from (\int eps (grad phi)^2 dr):     1209.424741
MG Discrepancy due to finite box and discretization:     -0.190255 (  -0.01573%)
MG Correction to account for finite box:                  0.006492
MG Remaining discrepancy, due to discretization:         -0.183763 (  -0.01519%)
      ideal mu1:      -0.485552108091
             Q0:  -11752.316336756106
             G0:      -0.000000004148
   RMS gradient:       0.000000009490

Reusing previously generated solute cavity.
MG BCs: +ve charge blocks (gridpoints):     28715 (   18998728).
MG BCs: -ve charge blocks (gridpoints):      8491 (    1053431).
MG BCs:     Elided blocks (gridpoints):    165199 (  170918466).
MG BCs: Computational effort saved:  99.9805%.
MG BCs: Charge after coarse-graining:           -9.0009524.
MG DL_MG: Calling solver with defect correction order = 8
MG DL_MG: Solver finished
MG Hartree energy from (\int phi*rho dr):              1209.614964
MG Hartree energy from (\int eps (grad phi)^2 dr):     1209.424710
MG Discrepancy due to finite box and discretization:     -0.190255 (  -0.01573%)
MG Correction to account for finite box:                  0.006492
MG Remaining discrepancy, due to discretization:         -0.183763 (  -0.01519%)
     Trial step:       0.691421445201
             Q1:  -11752.316336757271
 Quadratic coef:       0.000000001704
 Linear coef   :      -0.000000002868
           Qmin:  -11752.316336757312
Quadratic minimum step length (  0.581749245258) accepted
    Initial Ne1:    7228.00000000
      Final Ne1:    7228.00000000

=================== Penalty functional idempotency correction ==================
 RMS occupancy error at iteration   1:  0.000000 (step -0.5000 Ne1=   7228.0000)
            Final RMS occupancy error   :  0.000000 (Ne1=   7228.0000)
               Final occupancy bounds   : [  0.0000,  1.0000]
================================================================================

    8        -1.175231633676E+04     9.4902E-09     8.5856E-09    -3.2596E-09

Reusing previously generated solute cavity.
MG BCs: +ve charge blocks (gridpoints):     28715 (   18998728).
MG BCs: -ve charge blocks (gridpoints):      8491 (    1053431).
MG BCs:     Elided blocks (gridpoints):    165199 (  170918466).
MG BCs: Computational effort saved:  99.9805%.
MG BCs: Charge after coarse-graining:           -9.0009524.
MG DL_MG: Calling solver with defect correction order = 8
MG DL_MG: Solver finished
MG Hartree energy from (\int phi*rho dr):              1209.614969
MG Hartree energy from (\int eps (grad phi)^2 dr):     1209.424715
MG Discrepancy due to finite box and discretization:     -0.190255 (  -0.01573%)
MG Correction to account for finite box:                  0.006492
MG Remaining discrepancy, due to discretization:         -0.183763 (  -0.01519%)
      ideal mu1:      -0.485552075739
             Q0:  -11752.316336757271
             G0:      -0.000000001895
   RMS gradient:       0.000000005475

Reusing previously generated solute cavity.
MG BCs: +ve charge blocks (gridpoints):     28715 (   18998728).
MG BCs: -ve charge blocks (gridpoints):      8491 (    1053431).
MG BCs:     Elided blocks (gridpoints):    165199 (  170918466).
MG BCs: Computational effort saved:  99.9805%.
MG BCs: Charge after coarse-graining:           -9.0009524.
MG DL_MG: Calling solver with defect correction order = 8
MG DL_MG: Solver finished
MG Hartree energy from (\int phi*rho dr):              1209.614971
MG Hartree energy from (\int eps (grad phi)^2 dr):     1209.424716
MG Discrepancy due to finite box and discretization:     -0.190255 (  -0.01573%)
MG Correction to account for finite box:                  0.006492
MG Remaining discrepancy, due to discretization:         -0.183763 (  -0.01519%)
     Trial step:       0.634219129245
             Q1:  -11752.316336757387
 Quadratic coef:       0.000000001086
 Linear coef   :      -0.000000001202
           Qmin:  -11752.316336757603
Quadratic minimum step length (  0.350906880316) accepted
    Initial Ne1:    7228.00000000
      Final Ne1:    7228.00000000

=================== Penalty functional idempotency correction ==================
 RMS occupancy error at iteration   1:  0.000000 (step -0.5000 Ne1=   7228.0000)
            Final RMS occupancy error   :  0.000000 (Ne1=   7228.0000)
               Final occupancy bounds   : [ -0.0000,  1.0000]
================================================================================

    9        -1.175231633676E+04     5.4748E-09     4.9530E-09    -1.1642E-09

Reusing previously generated solute cavity.
MG BCs: +ve charge blocks (gridpoints):     28715 (   18998728).
MG BCs: -ve charge blocks (gridpoints):      8491 (    1053431).
MG BCs:     Elided blocks (gridpoints):    165199 (  170918466).
MG BCs: Computational effort saved:  99.9805%.
MG BCs: Charge after coarse-graining:           -9.0009524.
MG DL_MG: Calling solver with defect correction order = 8
MG DL_MG: Solver finished
MG Hartree energy from (\int phi*rho dr):              1209.614970
MG Hartree energy from (\int eps (grad phi)^2 dr):     1209.424716
MG Discrepancy due to finite box and discretization:     -0.190255 (  -0.01573%)
MG Correction to account for finite box:                  0.006492
MG Remaining discrepancy, due to discretization:         -0.183763 (  -0.01519%)
      ideal mu1:      -0.485552076296
   10        -1.175231633676E+04     3.8958E-09     3.5245E-09    -2.3283E-10
Finished density kernel iterations (  10)

Writing density kernel to file "complex_33161.dkn" ... done


>>> Density kernel optimised for the current NGWF basis:
     ~~~~~~~~~~~~~~~~~~~~~~~~~~~~~~~~~~~~~~~~~~~~~~~~~~~~~~~~~~~
     Total energy                =  -1.17523163367575E+04  Eh
     Estimated bandgap           =   8.7938E-02  Eh
     RMS occupancy error         =   4.9619E-16
     [H,K] commutator            =   3.5245E-09
     Occupancy bounds            = [ -0.000:  1.000]
     ~~~~~~~~~~~~~~~~~~~~~~~~~~~~~~~~~~~~~~~~~~~~~~~~~~~~~~~~~~~




################################################################################
########################### NGWF CG iteration  004 #############################
################################################################################
****** Reciprocal space K.E. preconditioning with k_zero =  3.5000 a0^-1 *******

>>> Checking for convergence of NGWFs: 
           ........................................................
           |         *** NGWF optimisation converged ***          |
           | RMS NGWF gradient =    0.00000182317164              |
           | Criteria satisfied:                                  |
           | -> RMS NGWF gradient lower than set threshold.       |
           ========================================================

Reusing previously generated solute cavity.
MG BCs: +ve charge blocks (gridpoints):     28715 (   18998728).
MG BCs: -ve charge blocks (gridpoints):      8491 (    1053431).
MG BCs:     Elided blocks (gridpoints):    165199 (  170918466).
MG BCs: Computational effort saved:  99.9805%.
MG BCs: Charge after coarse-graining:           -9.0009524.
MG DL_MG: Calling solver with defect correction order = 8
MG DL_MG: Solver finished
MG Hartree energy from (\int phi*rho dr):              1209.614970
MG Hartree energy from (\int eps (grad phi)^2 dr):     1209.424716
MG Discrepancy due to finite box and discretization:     -0.190255 (  -0.01573%)
MG Correction to account for finite box:                  0.006492
MG Remaining discrepancy, due to discretization:         -0.183763 (  -0.01519%)

================================================================================
           ---------------- ENERGY COMPONENTS (Eh) ----------------
           | Kinetic                    :     8596.52989073837853 |
           | Pseudo. (local,OBC,corr'd) :    -5093.82627601660442 |
           | Pseudopotential (non-local):     1410.67754561982360 |
           | Hartree (molecular)        :     1209.61497024966798 |
           | Exchange-correlation       :    -3398.04150906246241 |
           | Ion-ion (open BC)          :   836977.70071245753206 |
           | Smeared ion non-self corr. :  -836929.61937364900950 |
           | Smeared ion self corr.     :   -14525.98710726666468 |
           | Solvent cavitation energy  :        2.25850812726299 |
           | Solute-solvent dis-rep en. :       -1.62369795539255 |
           | Total                      :   -11752.31633675753801 |
           --------------------------------------------------------
           ------ LOCAL ENERGY COMPONENTS FROM MATRIX TRACES ------
           | Pseudopotential (local)    :    -5093.82627601661079 |
           | Hartree                    :    -2012.96356991504945 |
           --------------------------------------------------------
           Integrated density           :     7227.99999999893316
           Integrated density tr(KS)    :     7228.00000000000091
================================================================================


                        <<<<< CALCULATION SUMMARY >>>>>                         
|ITER|    RMS GRADIENT   |     TOTAL ENERGY    |   step   |     Epredicted              
   0     0.00003966259765 -11752.25430628284812   0.620832 -11752.30791437195512        
   1     0.00000942876406 -11752.31587141612545   0.079480 -11752.31625926274137        
   2     0.00000412117802 -11752.31632149324287   0.014343 -11752.31633486451938        
   3     0.00000182317164 -11752.31633675750345  <-- CG                                 

=================== Finished the calculation in solvent ========================
= Adjusting the following parameters: 
= read_denskern: F
= read_tightbox_ngwfs: F
= maxit_pen: 0 (restored to user-specified value)
= restart read filename prefix: ""
= restart write filename prefix: ""
================================================================================

================================================================================
IS: Calculation in solvent completed (NGWFs converged).      

Individual components of total energy in solvent:     hartree           kcal/mol
- Usual non-electrostatic DFT terms:    -12962.56611717904161    -8134132.870228
- Electrostatic fixed charge energy:      1209.61497024966798      759044.837333
- Apolar cavitation energy:                  2.25850812726299        1417.235216
- Apolar dispersion-repulsion energy:       -1.62369795539255       -1018.885828
 -------------------------------------------------------------------------------
- Total energy in solvent:              -11752.31633675750345    -7374689.683507

Components of total energy in solvent:                hartree           kcal/mol
- Usual non-electrostatic DFT terms:    -12962.56611717904161    -8134132.870228
- Electrostatic energy:                   1209.61497024966798      759044.837333
- Apolar energy terms:                       0.63481017187045         398.349388
 -------------------------------------------------------------------------------
- Total energy in solvent:              -11752.31633675750345    -7374689.683507

Calculation of free energy of solvation:              hartree           kcal/mol
- Total energy in solvent:         (+)  -11752.31633675750345    -7374689.683507
- Total energy in vacuum:          (-)  -11748.45856487483252    -7372268.895155
 -------------------------------------------------------------------------------
- Total free energy of solvation:           -3.85777188267093       -2420.788353

Components of polar term in f.e. of solvation:        hartree           kcal/mol
- Electrostatic:                            -4.48934265485718       -2817.104987
- Change in nonelectrostatic DFT terms:     -0.00323939968439          -2.032754
 -------------------------------------------------------------------------------
- Polar term in f.e. of solvation:          -4.49258205454157       -2819.137741

Components of free energy of solvation:               hartree           kcal/mol
- Polar term in f.e. of solvation: (+)      -4.49258205454157       -2819.137741
- Apolar (cavitation, dis., rep.): (+)       0.63481017187045         398.349388
 -------------------------------------------------------------------------------
- Total free energy of solvation:           -3.85777188267113       -2420.788353
================================================================================


------------------------------ TIMING INFORMATION ------------------------------
AVERAGE TIME:   32649.303s on     60 node(s)                                    
TOTAL TIME:     32649.305s on     60 node(s)                                    
================= AVERAGE TIMINGS FROM ALL NODES (CUMULATIVE) ==================
|| TAG                                    #calls    cpu time   %total  Gflops ||
|| work_imbalance                       :     1        0.00s   0.000%  ------ ||
|| sparse_set_to_garbage                :   164        0.03s   0.000%  ------ ||
|| parallel_prepare_fd_halos_request    :  1827        0.03s   0.000%  ------ ||
|| ngwfs_initialise_from_radial         :     1        0.11s   0.000%  ------ ||
|| parallel_prepare_fd_halos_alloc      :  1827        0.13s   0.000%  ------ ||
|| basis_extract_function_from_box      :  3378        0.15s   0.000%  ------ ||
|| parallel_prepare_fd_halos_satisfy    :  1827        0.61s   0.002%  ------ ||
|| pseudopotentials_nonlocal_mat        :    28        2.19s   0.007%  ------ ||
|| openbc_locps_radial                  :     1        4.59s   0.014%  ------ ||
|| density_init_guess_real              :     1        5.39s   0.017%  ------ ||
|| restart_kernel_read                  :     1        5.61s   0.017%  ------ ||
|| restart_ngwfs_tightbox_input         :     1        8.74s   0.027%  ------ ||
|| parallel_prepare_fd_halos_comms_imbal:  1827        9.81s   0.030%  ------ ||
|| parallel_prepare_fd_halos_clear      :  1827       17.75s   0.054%  ------ ||
|| parallel_prepare_fd_halos_comms_wait :  1827       22.30s   0.068%  ------ ||
|| sparse_init                          :     2       23.71s   0.073%  ------ ||
|| projectors_func_ovlp_box             :    28       25.31s   0.078%  ------ ||
|| function_ops_brappd_ketppd           :    28       28.04s   0.086%  ------ ||
|| projectors_init_fftbox_recip         :   133       32.50s   0.100%  ------ ||
|| palser_mano_kernel_optimise          :     1       35.99s   0.110%  ------ ||
|| basis_copy_function_to_box           : 54818       42.02s   0.129%  ------ ||
|| ngwf_gradient_coeffs                 :    15       44.37s   0.136%  ------ ||
|| fourier_apply_box_pair               :  4809       50.54s   0.155% 586.725 ||
|| parallel_prepare_fd_halos            :  1827       50.65s   0.155%  ------ ||
|| pseudo_make_structure_factor         :     2       66.79s   0.205%  ------ ||
|| sparse_embed_hotelling_invert_embed  :    28       72.56s   0.222%  ------ ||
|| restart_kernel_write                 :    16       94.22s   0.289%  ------ ||
|| finite_difference_derivative         :  1827      126.71s   0.388%  ------ ||
|| integrals_kinetic                    :    28      143.07s   0.438%  ------ ||
|| projectors_gradient_batch            :   105      149.97s   0.459%  ------ ||
|| basis_dot_function_with_box          : 8.518M     171.97s   0.527%  ------ ||
|| sparse_trace                         :  5160      181.84s   0.557%  ------ ||
|| openbc_locps_on_grid                 :     2      264.73s   0.811%  ------ ||
|| kernel_purify                        :   464      265.52s   0.813%  ------ ||
|| lnv_gradient_norm                    :   150      391.10s   1.198%  ------ ||
|| basis_add_function_to_box            : 17.72M     409.98s   1.256%  ------ ||
|| kernel_fix                           :   150      498.47s   1.527%  ------ ||
|| hamiltonian_energy_components        :     4      544.81s   1.669%  ------ ||
|| integrals_locpot_mat_els_batch       :  1113      720.49s   2.207%  ------ ||
|| ngwf_gradient_build_batch            :   105      757.65s   2.321%  ------ ||
|| restart_ngwfs_tightbox_output        :    13     1024.55s   3.138%  ------ ||
|| density_batch_row_sums               :  2121     1037.41s   3.177%  ------ ||
|| ngwf_gradient_batch                  :   105     1052.19s   3.223%  ------ ||
|| ngwf_gradient_lnv                    :    15     1198.26s   3.670%  ------ ||
|| fourier_apply_cell_forward           :  8513     1305.56s   3.999%  87.566 ||
|| cell_grid_deposit_box_real           : 34897     1337.65s   4.097%  ------ ||
|| fourier_apply_cell_backward          :  9123     1465.54s   4.489%  83.596 ||
|| cell_grid_extract_box_real           : 38277     1521.45s   4.660%  ------ ||
|| sparse_product                       :  6352     1708.74s   5.234%  ------ ||
|| density_fftbox_deposit_to_cell       : 33027     1989.91s   6.095%  ------ ||
|| xc_energy_potential                  :   304     3631.70s  11.123%  ------ ||
|| density_fftbox_interpolate_multiply  : 33027     3646.39s  11.168%  ------ ||
|| potential_apply_to_ngwf_batch        :  1113     3693.83s  11.314%  ------ ||
|| multigrid_prepare_bound_cond         :   304     4191.13s  12.837%  ------ ||
|| integrals_locpot_dbl_grid            :   159     4430.51s  13.570%  ------ ||
|| fourier_apply_box                    : 114.6k    4473.73s  13.702% 765.914 ||
|| nlxc_vdw_energy                      :   608     5944.10s  18.206%  ------ ||
|| dl_mg_solver_calls                   :   304     6593.77s  20.196%  ------ ||
|| density_batch_interp_deposit         :  2121     6605.63s  20.232%  ------ ||
|| density_on_dbl_grid                  :   303     8018.88s  24.561%  ------ ||
|| multigrid_calculate_hartree          :   304    10959.87s  33.568%  ------ ||
|| hamiltonian_lhxc_calculate           :   299    22457.65s  68.784%  ------ ||
|| lnv_denskernel_optimise_cg           :    15    27552.19s  84.388%  ------ ||
|| ngwf_cg_optimise                     :     2    31676.67s  97.021%  ------ ||
|| total_time                           :     1    32649.30s 100.000%  ------ ||
================================================================================
Overhead of generating timer report: 
- 0 ms averaging over threads,
- 15 ms ensuring consistency across MPI ranks,
- 1 ms printing in order.

Job completed: 29-03-2020 17:39 (+0100)

Application 39998076 resources: utime ~6549430s, stime ~218787s, Rss ~3891340, inblocks ~293960640, outblocks ~63525279
