 +---------------------------------------------------------------+
 |                                                               |
 |        ####### #     # ####### ####### ####### ######         |
 |        #     # ##    # #          #    #       #     #        |
 |        #     # # #   # #          #    #       #     #        |
 |        #     # #  #  # #####      #    #####   ######         |
 |        #     # #   # # #          #    #       #              |
 |        #     # #    ## #          #    #       #              |
 |        ####### #     # #######    #    ####### #              |
 |                                                               |
 |        Linear-Scaling Ab Initio Total Energy Program          |
 |                                                               |
 |          Release for academic collaborators of ODG            |
 |                                             Version 5.3.2.6.  |
 |                                                               |
 +---------------------------------------------------------------+
 |                                                               |
 |  Authors:                                                     |
 |  Jacek Dziedzic, Peter D. Haynes, Nicholas D. M. Hine,        |
 |  Arash. A. Mostofi, Mike C. Payne and Chris-Kriton Skylaris   |
 |                                                               |
 |  Contributors:                                                |
 |  J. Aarons, L. Andrinopoulos, P. W. Avraam, R. A. Bell,       |
 |  A. Bhandari, G. A. Bramley, R. J. Charlton, S. J. Clark,     |
 |  R. J. Clements, G. C. Constantinescu, F. Corsetti,           |
 |  N. Corsini, O. Dieguez, S. M. M. Dubois, K. K. B. Duff,      |
 |  J. M. Escartin, A. Greco, H. Helal, Q. O. Hill, L. P. Lee,   |
 |  J.-H. Li, E. B. Linscott, G. Moynihan, D. D. O`Regan,        |
 |  O. K. Okan, M. J. S. Phipps, C. J. Pickard,                  |
 |  J. C. A. Prentice, M. I. J. Probert, L. E. Ratcliff,         |
 |  M. Robinson, A. Ruiz Serrano, J. S. Spencer, E. W. Tait,     |
 |  G. Teobaldi, D. Turban, V. Vitale, K. A. Wilkinson,          |
 |  C. Weber, J. C. Womack, N. Yeung and T. J. Zuehlsdorff       |
 |                                                               |
 |                                   Copyright (c) 2004-2019     |
 |                                                               |
 |  Please cite:                                                 |
 |  "Introducing ONETEP: Linear-scaling density functional       |
 |   simulations on parallel computers".                         |
 |   C.-K. Skylaris, P. D. Haynes, A. A. Mostofi, M. C. Payne.   |
 |   J. Chem. Phys. 122 084119 (2005).                           |
 |                                                               |
 |          in all publications arising from your use of ONETEP. |
 |                                                               |
 +---------------------------------------------------------------+
 |                                                               |
 |   ONETEP is based on developments described in the following  |
 |   publications:                                               |
 |                                                               |
 |  "Nonorthogonal generalized Wannier function pseudopotential  |
 |   plane-wave method".                                         |
 |   C.-K. Skylaris, A. A. Mostofi, P. D. Haynes, O. Dieguez,    |
 |   M. C. Payne.                                                |
 |   Phys. Rev. B 66 035119 (2002).                              |
 |                                                               |
 |  "Preconditioned iterative minimization for linear-scaling    |
 |   electronic structure calculations".                         |
 |   A. A. Mostofi, P. D. Haynes, C.-K. Skylaris, M. C. Payne.   |
 |   J. Chem. Phys. 119(17), pp.8842-8848 (2003).                |
 |                                                               |
 |  "Total-energy calculations on a real space grid with         |
 |   localized functions and a plane-wave basis".                |
 |   A. A. Mostofi, C.-K. Skylaris, P. D. Haynes, M. C. Payne.   |
 |   Comput. Phys. Commun. 147, pp.788-802 (2002).               |
 |                                                               |
 |  "Accurate kinetic energy evaluation in electronic structure  |
 |   calculations with localized functions on real space grids"  |
 |   C.-K. Skylaris, A. A. Mostofi, P. D. Haynes, C. J. Pickard, |
 |   M. C. Payne.                                                |
 |   Comput. Phys. Commun. 140, pp.315-322 (2001).               |
 |                                                               |
 |  "Accurate ionic forces and geometry optimization in linear-  |
 |   scaling density-functional theory with local orbitals"      |
 |   N. D. M. Hine, M. Robinson, P. D. Haynes, C.-K. Skylaris,   |
 |   M. C. Payne, and A. A. Mostofi.                             |
 |   Phys. Rev. B 83 195102 (2011).                              |
 |                                                               |
 +---------------------------------------------------------------+

Job started: 01-03-2020 19:11 (-0000)
 
Reading parameters from file "complex_7321.dat" ...... done

If your calculation crashes here, before "Checking processes and threads..."
is displayed, then your stack size is insufficient.
If so, use "ulimit -s unlimited" at runtime.
You can disable this check with "check_stack_size F".

Checking processes and threads...
   Determining the default number of threads...
      No default threads set at compilation time: defaulting to 1.
      OpenMP library call suggests 4 threads.
      Hybrid MPI-OpenMP compilation detected.
      Number of MPI processes > 1.
      OMP_NUM_THREADS environment variable present and
      its value matches the one obtained from the OpenMP library call.
      Using this value as default.
      Default threads: 4
      Default applies to threads_max and threads_num_fftboxes.
      Settings in the input file override this default.
   ... done

   Running with 60 MPI processes.
   There are 6 MPI processes running on the same node as the root process.
   Each MPI process is using: 
               1 threads for simulation cell FFTs.
               1 threads for parallel FFT box operations.
               4 threads for loops over batched FFT box operations.
               4 threads in other parallel regions.
... done

Basic input checks...... done

Reading geometry and species blocks from file "complex_7321.dat" ...
  <species_atomic_set> block not found: NGWF initialisation set to SOLVE
IS: Dielectric excluded regions:
    - NONE.
    
  Number of PPD points along a3 set to 1.  This is 
  the default value, it may have been provided also in the input file.
... done
 Writing xyz coordinates to file "complex_7321.xyz" ... done


--------------------------------------------------------------------------------
---------------------------------- INPUT FILE ----------------------------------
--------------------------------------------------------------------------------

cutoff_energy       : 800 eV                                                    
xc_functional VV10                                                              
task SINGLEPOINT                                                                
write_xyz true                                                                  
output_detail VERBOSE                                                           
ngwf_threshold_orig : 0.000002                                                  
kernel_cutoff       : 1000                                                      
k_zero              : 3.5                                                       
elec_cg_max 0                                                                   
occ_mix 1.0                                                                     
dispersion 0                                                                    
maxit_ngwf_cg 40                                                                
minit_lnv 10                                                                    
maxit_lnv 10                                                                    
write_denskern T                                                                
write_tightbox_ngwfs T                                                          
charge 9                                                                        
is_implicit_solvent T                                                           
is_auto_solvation T                                                             
is_include_apolar T                                                             
is_smeared_ion_rep T                                                            
is_solvent_surf_tension 4.7624E-5 Ha/bohr**2                                    
is_apolar_scaling_factor 0.281075                                               
is_solvation_beta 1.3                                                           
is_density_threshold 0.00035                                                    
is_bulk_permittivity 78.54                                                      
is_dielectric_model fix_initial                                                 
is_smeared_ion_width 0.8                                                        
mg_defco_fd_order 8                                                             
is_bc_coarseness 10                                                             
is_bc_surface_coarseness 1                                                      
fine_grid_scale 2.0                                                             
%block species                                                                  
N   N   7 4 8.0                                                                 
H   H   1 1 8.0                                                                 
C   C   6 4 8.0                                                                 
S   S  16 9 8.0                                                                 
O   O   8 4 8.0                                                                 
%endblock species                                                               
%block species_pot                                                              
N   N_00.recpot                                                                 
H   H_04.recpot                                                                 
C   C_01.recpot                                                                 
S   S_00.recpot                                                                 
O   O_02.recpot                                                                 
%endblock species_pot                                                           
%block lattice_cart                                                             
135.996   0.000   0.000                                                         
0.000 142.663   0.000                                                           
0.000   0.000   160.158                                                         
%endblock lattice_cart                                                          
%block positions_abs                                                            
     Hash =  -000004224821022278223249
%endblock positions_abs                                                         

--------------------------------------------------------------------------------
-------------------------------- END INPUT FILE --------------------------------
--------------------------------------------------------------------------------


 
 ESDF WARNING(1): "kernelcutoff" (esdf_physical) has no units. Assume "bohr".
 ESDF WARNING(2): "kzero" (esdf_physical) has no units. Assume "1/bohr".
 ESDF WARNING(3
 ): "issmearedionwidth" (esdf_physical) has no units. Assume "bohr".
<<<<<<<<<<<<<<<<<<<<<<<<<<<<<<<<< Full system >>>>>>>>>>>>>>>>>>>>>>>>>>>>>>>>>>
<<<<<<<<<<<<<<<<<<<<<<<<< Pseudopotential information >>>>>>>>>>>>>>>>>>>>>>>>>>
File: N_00.recpot [ 2001 points up to Gmax=  52.9 (1/bohr)]
  Atomic number:  7;  ionic charge:  5.000000
    Shell 1: l = 0; rc = 1.48 bohr
File: H_04.recpot [ 2001 points up to Gmax=  52.9 (1/bohr)]
  Atomic number:  1;  ionic charge:  1.000000
    Local potential
File: C_01.recpot [ 2001 points up to Gmax=  52.9 (1/bohr)]
  Atomic number:  6;  ionic charge:  4.000000
    Shell 1: l = 0; rc = 1.48 bohr
File: S_00.recpot [ 2001 points up to Gmax=  52.9 (1/bohr)]
  Atomic number: 16;  ionic charge:  6.000000
    Shell 1: l = 0; rc = 1.90 bohr
    Shell 2: l = 2; rc = 1.84 bohr
File: O_02.recpot [ 2001 points up to Gmax=  52.9 (1/bohr)]
  Atomic number:  8;  ionic charge:  6.000000
    Shell 1: l = 0; rc = 1.31 bohr
<<<<<<<<<<<<<<<<<<<<<<<<<<<<<<<<<<<<<<<<>>>>>>>>>>>>>>>>>>>>>>>>>>>>>>>>>>>>>>>>

-------------------------- Atom counting information ---------------------------
Symbol    Natoms    Nngwfs    Nprojs
  N        236       944       236
  H       1317      1317         0
  C        816      3264       816
  S          6        54        36
  O        240       960       240
.......   ......    ......    ......
Totals:   2615      6539      1328
--------------------------------------------------------------------------------

=============================== PSINC grid sizes ===============================
                      Simulation cell:  270 x 286 x 315
                              FFT-box:   99 x 105 x  99
                                  PPD:    5 x  11 x   1
Grid space d1=  0.503688888889a0 (KE cutoff=  29.94189Eh = 814.76038eV)
Grid space d2=  0.498821678322a0 (KE cutoff=  30.52906Eh = 830.73786eV)
Grid space d3=  0.508438095238a0 (KE cutoff=  29.38514Eh = 799.61048eV)
================================================================================

********************* Fourier parallelisation information **********************
       Coarse grid (whole simulation cell) dimensions:    270   286   315
          Real-space ('12') slabs/node (min max mean):      5     6     5
         Recip-space ('23') slabs/node (min max mean):      2     3     2
********************************************************************************

********************* Fourier parallelisation information **********************
       Double grid (whole simulation cell) dimensions:    540   572   630
          Real-space ('12') slabs/node (min max mean):     10    11    10
         Recip-space ('23') slabs/node (min max mean):      4     5     4
********************************************************************************
ONETEP fine grid is 540 x 572 x 630 gridpoints, 135.9960 x 142.6630 x 160.1580 bohr.
FD multigrid is     537 x 569 x 625 gridpoints, 135.2405 x 141.9148 x 158.8869 bohr.


Calculating local pseudopotential in open BC on a radial grid ...
Discrepancy between calculated realspace psloc and -Z/x on [5a0,253.965a0]:
max |rel. diff| # avg |rel. diff| #  avg rel. diff #  f # pseudopotential file
 0.000259282084    0.000004141996   0.000000074978   54  'N_00.recpot'
 0.000405386992    0.000016970607  -0.000000075982   54  'H_04.recpot'
 0.000371694516    0.000017434762   0.000000149329   54  'C_01.recpot'
 0.000461642895    0.000020341726   0.000000491514   54  'S_00.recpot'
 0.000682525123    0.000027368244   0.000000159803   54  'O_02.recpot'
... done

Atom SCF Calculation for N  : Z (AE atom) =   7 : Z (PS atom) =   5
Config String:
Orbitals (num,occ):  2     2.00 3.00
Orbitals   (num,l):  2        0    1
Real-space Grid (nr,dr,rmax): 1203    0.0066555740    8.0000000000
Spherical Bessel Basis (nsws,lmax,cutoff):   47    1  176.3951722778
Confining potential (l,width,scale):  0    3.0000000000  100.0000000000
Confining potential (l,width,scale):  1    3.0000000000  100.0000000000
  1         -4.7366890484   -3.4501654188    7.0523828109   -1.9619316308
  2         -9.7225420322   -2.0763080851    8.3068355706   -2.2908832437
  3         -9.7134243553   -2.1270543915    8.2534567806   -2.2819809971
  4         -9.7235185949   -2.1427582218    8.2369947390   -2.2802814234
  5         -9.7258373845   -2.1477905863    8.2317116314   -2.2798536235
  6         -9.7268932325   -2.1503512400    8.2290229806   -2.2796830099
  7         -9.7273189469   -2.1516634231    8.2276451699   -2.2796169657
  8         -9.7274675212   -2.1523365544    8.2269384796   -2.2795940092
  9         -9.7275041773   -2.1526817003    8.2265762312   -2.2795881371
 10         -9.7275008637   -2.1528585007    8.2263907413   -2.2795884060
 11         -9.7274868305   -2.1529489544    8.2262958841   -2.2795903922
 12         -9.7274755655   -2.1529859230    8.2262571347   -2.2795920452
 13         -9.7274662327   -2.1530083995    8.2262335832   -2.2795934369
 14         -9.7274589439   -2.1530220534    8.2262192809   -2.2795945372
 15         -9.7274534633   -2.1530303399    8.2262106039   -2.2795953734
 16         -9.7274494492   -2.1530353634    8.2262053452   -2.2795959920
 17         -9.7274465654   -2.1530384053    8.2262021621   -2.2795964406
 18         -9.7274445237   -2.1530402447    8.2262002378   -2.2795967611
 19         -9.7274430947   -2.1530413553    8.2261990762   -2.2795969874
 20         -9.7274421038   -2.1530420249    8.2261983762   -2.2795971458
 21         -9.7274414219   -2.1530424277    8.2261979551   -2.2795972557
 22         -9.7274409555   -2.1530426696    8.2261977024   -2.2795973315
 23         -9.7274406382   -2.1530428144    8.2261975510   -2.2795973835
 24         -9.7274404232   -2.1530429010    8.2261974606   -2.2795974190
 25         -9.7274402783   -2.1530429525    8.2261974067   -2.2795974432
 26         -9.7274401808   -2.1530429831    8.2261973748   -2.2795974596
Atom SCF converged after  26 iterations to a total energy of     -9.72744018

Atom SCF Calculation for H  : Z (AE atom) =   1 : Z (PS atom) =   1
Config String:
Orbitals (num,occ):  1     1.00
Orbitals   (num,l):  1        0
Real-space Grid (nr,dr,rmax): 1203    0.0066555740    8.0000000000
Spherical Bessel Basis (nsws,lmax,cutoff):   47    0  176.3951722778
Confining potential (l,width,scale):  0    3.0000000000  100.0000000000
  1         -0.3178661827   -0.2469879004    0.2820953124   -0.2487802071
  2         -0.3961824611   -0.2455070831    0.2902209900   -0.2567664324
  3         -0.4406462424   -0.2424227551    0.2948173255   -0.2622129794
  4         -0.4569739054   -0.2416771342    0.2960118236   -0.2639986016
  5         -0.4627745219   -0.2416114401    0.2961916694   -0.2644992007
  6         -0.4648634749   -0.2416666130    0.2961598921   -0.2646237065
  7         -0.4656347011   -0.2417155160    0.2961132802   -0.2646490719
  8         -0.4659271144   -0.2417438448    0.2960836537   -0.2646515522
  9         -0.4660407254   -0.2417580788    0.2960682004   -0.2646501482
 10         -0.4660857867   -0.2417647566    0.2960608087   -0.2646488305
 11         -0.4661039568   -0.2417677717    0.2960574330   -0.2646480606
 12         -0.4661113773   -0.2417691018    0.2960559329   -0.2646476727
 13         -0.4661144368   -0.2417696800    0.2960552775   -0.2646474903
 14         -0.4661157072   -0.2417699291    0.2960549942   -0.2646474079
 15         -0.4661162374   -0.2417700356    0.2960548727   -0.2646473715
 16         -0.4661164596   -0.2417700810    0.2960548208   -0.2646473556
 17         -0.4661165529   -0.2417701003    0.2960547987   -0.2646473488
Atom SCF converged after  17 iterations to a total energy of     -0.46611655

Atom SCF Calculation for C  : Z (AE atom) =   6 : Z (PS atom) =   4
Config String:
Orbitals (num,occ):  2     2.00 2.00
Orbitals   (num,l):  2        0    1
Real-space Grid (nr,dr,rmax): 1203    0.0066555740    8.0000000000
Spherical Bessel Basis (nsws,lmax,cutoff):   47    1  176.3951722778
Confining potential (l,width,scale):  0    3.0000000000  100.0000000000
Confining potential (l,width,scale):  1    3.0000000000  100.0000000000
  1         -5.2812238291   -1.3293161250    4.5135249990   -1.4716766231
  2         -5.3996591362   -1.3542148509    4.4876064308   -1.4645117417
  3         -5.4111847148   -1.3757224423    4.4645718036   -1.4593107263
  4         -5.4199203659   -1.3833334895    4.4563636676   -1.4579885221
  5         -5.4226876204   -1.3865104950    4.4529090432   -1.4575385943
  6         -5.4235070726   -1.3878131251    4.4514866831   -1.4573882877
  7         -5.4237271252   -1.3883401868    4.4509094528   -1.4573411661
  8         -5.4237693051   -1.3885521813    4.4506766230   -1.4573281030
  9         -5.4237656430   -1.3886371046    4.4505830704   -1.4573255254
 10         -5.4237547927   -1.3886709976    4.4505456041   -1.4573257244
 11         -5.4237478594   -1.3886817763    4.4505336403   -1.4573262476
 12         -5.4237429748   -1.3886873440    4.4505274417   -1.4573266921
 13         -5.4237397042   -1.3886902144    4.4505242350   -1.4573270222
 14         -5.4237375865   -1.3886916908    4.4505225792   -1.4573272507
 15         -5.4237362473   -1.3886924482    4.4505217259   -1.4573274021
 16         -5.4237354152   -1.3886928356    4.4505212873   -1.4573274996
 17         -5.4237349050   -1.3886930331    4.4505210623   -1.4573275610
 18         -5.4237345954   -1.3886931333    4.4505209473   -1.4573275991
 19         -5.4237344092   -1.3886931840    4.4505208887   -1.4573276224
 20         -5.4237342980   -1.3886932094    4.4505208590   -1.4573276366
 21         -5.4237342320   -1.3886932221    4.4505208440   -1.4573276451
Atom SCF converged after  21 iterations to a total energy of     -5.42373423

Atom SCF Calculation for S  : Z (AE atom) =  16 : Z (PS atom) =   6
Config String:
Orbitals (num,occ):  3     2.00 4.00 0.00
Orbitals   (num,l):  3        0    1    2
Real-space Grid (nr,dr,rmax): 1203    0.0066555740    8.0000000000
Spherical Bessel Basis (nsws,lmax,cutoff):   47    2  176.3951722778
Confining potential (l,width,scale):  0    3.0000000000  100.0000000000
Confining potential (l,width,scale):  1    3.0000000000  100.0000000000
Confining potential (l,width,scale):  2    3.0000000000  100.0000000000
  1        -12.4916237786   -1.0485914554   10.1554312477   -2.4822447765
  2         -9.9747083603   -2.4807597367    8.3138131863   -2.0618837268
  3        -10.1811370131   -2.3153496392    8.4906092179   -2.1137756843
  4        -10.1856385898   -2.2984912006    8.5093862195   -2.1218167101
  5        -10.1891317560   -2.2894783333    8.5195006030   -2.1261392389
  6        -10.1911142562   -2.2849160124    8.5246320974   -2.1283733378
  7        -10.1921506977   -2.2826473329    8.5271859473   -2.1295140514
  8        -10.1926851273   -2.2815219985    8.5284534218   -2.1300957983
  9        -10.1929632671   -2.2809620806    8.5290843811   -2.1303933136
 10        -10.1931100895   -2.2806822783    8.5293998452   -2.1305460626
 11        -10.1931885828   -2.2805418782    8.5295582201   -2.1306248009
 12        -10.1932309625   -2.2804711729    8.5296380158   -2.1306655459
 13        -10.1932540142   -2.2804354512    8.5296783476   -2.1306867097
 14        -10.1932666242   -2.2804173494    8.5296987927   -2.1306977435
 15        -10.1932735535   -2.2804081489    8.5297091868   -2.1307035175
 16        -10.1932773756   -2.2804034581    8.5297144867   -2.1307065505
 17        -10.1932794908   -2.2804010586    8.5297171976   -2.1307081499
 18        -10.1932806648   -2.2803998268    8.5297185890   -2.1307089965
 19        -10.1932813181   -2.2803991920    8.5297193057   -2.1307094466
 20        -10.1932816826   -2.2803988634    8.5297196763   -2.1307096867
 21        -10.1932818864   -2.2803986926    8.5297198688   -2.1307098154
 22        -10.1932820006   -2.2803986034    8.5297199692   -2.1307098847
 23        -10.1932820648   -2.2803985565    8.5297200219   -2.1307099221
Atom SCF converged after  23 iterations to a total energy of    -10.19328206

Atom SCF Calculation for O  : Z (AE atom) =   8 : Z (PS atom) =   6
Config String:
Orbitals (num,occ):  2     2.00 4.00
Orbitals   (num,l):  2        0    1
Real-space Grid (nr,dr,rmax): 1203    0.0066555740    8.0000000000
Spherical Bessel Basis (nsws,lmax,cutoff):   47    1  176.3951722778
Confining potential (l,width,scale):  0    3.0000000000  100.0000000000
Confining potential (l,width,scale):  1    3.0000000000  100.0000000000
  1         -1.9497477053   -7.5870966769   10.1554312477   -2.4822447765
  2        -15.9466298225   -3.1778351734   13.6353006614   -3.2931224232
  3        -16.0387051750   -3.0909030611   13.7305651010   -3.3194522996
  4        -15.9025031450   -3.1083023605   13.7128101414   -3.3180850501
  5        -15.8912953362   -3.1033022259   13.7185404266   -3.3206942093
  6        -15.8793912992   -3.1043100674   13.7175820250   -3.3209366960
  7        -15.8748748605   -3.1043975610   13.7175531476   -3.3211845618
  8        -15.8725354084   -3.1044655610   13.7175148333   -3.3213149154
  9        -15.8713193866   -3.1045129589   13.7174824743   -3.3213832909
 10        -15.8706863385   -3.1045436851   13.7174593895   -3.3214192053
 11        -15.8703562731   -3.1045627330   13.7174442347   -3.3214381098
 12        -15.8701839150   -3.1045741887   13.7174347673   -3.3214480859
 13        -15.8700937727   -3.1045809294   13.7174290448   -3.3214533647
 14        -15.8700465571   -3.1045848305   13.7174256662   -3.3214561658
 15        -15.8700217888   -3.1045870593   13.7174237063   -3.3214576563
 16        -15.8700087767   -3.1045883194   13.7174225849   -3.3214584516
 17        -15.8700019307   -3.1045890258   13.7174219502   -3.3214588771
 18        -15.8699983237   -3.1045894190   13.7174215942   -3.3214591053
 19        -15.8699964206   -3.1045896366   13.7174213960   -3.3214592281
 20        -15.8699954151   -3.1045897563   13.7174212864   -3.3214592942
 21        -15.8699948832   -3.1045898219   13.7174212260   -3.3214593299
 22        -15.8699946014   -3.1045898577   13.7174211930   -3.3214593493
 23        -15.8699944520   -3.1045898771   13.7174211750   -3.3214593597
 24        -15.8699943726   -3.1045898877   13.7174211652   -3.3214593654
Atom SCF converged after  24 iterations to a total energy of    -15.86999437

========================== Calculation in vacuum ==============================
= Adjusting the following parameters: 
= is_implicit_solvent: F
= is_include_apolar: F
= write_denskern: T
= write_tightbox_ngwfs: T
= restart read filename prefix: ""
= restart write filename prefix: "vacuum_"
===============================================================================

Determining parallel strategy ...
... using space-filling curve
... NGWF load balancing: max    109;  min    108;  average    109
... Projector load balancing: max     26;  min     21;  average     22
... done
Calculating direct Ion-Ion energy ...
Ion-Ion Energy        :    837704.10318712075241
Basis initialisation ...... NGWF spheres initialised
... Projector spheres initialised
... NGWF tight boxes initialised
... Tight-boxes gathered
... NGWF basis size (local,global):    1042831  62499985
... Nonlocal pseudopotential projector initialisation
... done

========================== Sparse matrix information ===========================
                        Overlap matrix filling:   6.83%
                        Density kernel filling: 100.00%
              NGWF-Proj overlap matrix filling:   1.79%
                    Hamiltonian matrix filling:   7.73%
                  NGWF diagonal matrix filling:   0.05%
                             KS matrix filling: 100.00% 
                           KSKS matrix filling: 100.00% 
================================================================================

Sparse matrix initialisation ... done

Generating smeared ion density ... done
Smeared ion self correction:     -14525.987107
Smeared ion non-self correction: -837655.840209
NGWF initialisation ...... done
============ Calculation of NGWF S^-1 using Hotelling algorithm ================ 
         Iteration  |  Frobenius norm and Maximum abs value    (of I-S*S_n^-1)   
               1       0.78602735E+02     0.98201380E+00
               2       0.76686574E+02     0.96446383E+00
               3       0.73601612E+02     0.93060899E+00
               4       0.69248497E+02     0.86748784E+00
               5       0.63862792E+02     0.76004349E+00
               6       0.57849997E+02     0.70028904E+00
               7       0.51853180E+02     0.66718779E+00
               8       0.46303043E+02     0.63905252E+00
               9       0.40120008E+02     0.59805497E+00
              10       0.31666972E+02     0.52661794E+00
              11       0.20992321E+02     0.41952176E+00
              12       0.10512721E+02     0.27646260E+00
              13       0.33636932E+01     0.12120707E+00
              14       0.51007147E+00     0.29128321E-01
              15       0.23825718E-01     0.21934776E-02
              16       0.12291778E-03     0.15427615E-04
              17       0.48894260E-08     0.80173068E-09
              18       0.88185900E-13     0.48849813E-14
================================================================================
Calculating local pseudopotential in open BC on the fine real space grid ...
... done

MG BCs: +ve charge blocks (gridpoints):     20201 (   15888844).
MG BCs: -ve charge blocks (gridpoints):      8080 (    1090161).
MG BCs:     Elided blocks (gridpoints):    173713 (  173991620).
MG BCs: Computational effort saved:  99.9852%.
MG BCs: Charge after coarse-graining:           -9.0002213.
MG DL_MG: Calling solver with defect correction order = 8
MG DL_MG: Solver finished
MG Hartree energy from (\int phi*rho dr):              1460.352290
MG Hartree energy from (\int eps (grad phi)^2 dr):     1459.730784
MG Discrepancy due to finite box and discretization:     -0.621506 (  -0.04256%)
MG Correction to account for finite box:                  0.466996
MG Remaining discrepancy, due to discretization:         -0.154509 (  -0.01058%)
Up spin density kernel initialisation ... 
======= Optimisation of K by Palser-Manolopoulos canonical purification ======== 
         Iteration  |  Band structure energy |    c_n   
               1       -2588.11751672867194    0.5274945
               2       -2764.96799080956407    0.5177082
               3       -2946.66317593945359    0.5161975
               4       -3098.78558269136647    0.5303501
               5       -3192.56115097598740    0.5674742
               6       -3231.85856104379673    0.6134288
               7       -3245.26885952938710    0.6255629
               8       -3251.15825724333808    0.6250212
               9       -3254.05163270162302    0.6405022
              10       -3255.27105244420363    0.6671262
              11       -3255.75553377701726    0.6859101
              12       -3255.97025721045111    0.6848033
              13       -3256.08333738766487    0.6700324
              14       -3256.14685522294258    0.6347755
              15       -3256.18407530001059    0.5779638
              16       -3256.20470054807538    0.5083016
              17       -3256.21351057545235    0.4556153
              18       -3256.21528974485045    0.4434761
              19       -3256.21614291258902    0.4638926
              20       -3256.21652863442159    0.4912752
              21       -3256.21662726341947    0.4995447
              22       -3256.21663297094983    0.4999994
              23       -3256.21663298873227    0.4999994
Termination criterion satisfied: band energy change below threshold.
Final occupancy bounds: [    0.00000000000000:    1.00000000000000]
Closest occupancy to 0.5:     0.99999999999999
================================================================================
... done

Writing density kernel to file "complex_7321.vacuum_dkn" ... done

>>> Optimising kernel for current NGWFs:
   Initial electron number for spin 1:    7228.00000000
     Final electron number for spin 1:    7228.00000000

=================== Penalty functional idempotency correction ==================
 RMS occupancy error at iteration   1:  0.000000 (step -0.5000 Ne1=   7228.0000)
            Final RMS occupancy error   :  0.000000 (Ne1=   7228.0000)
               Final occupancy bounds   : [  0.0000,  1.0000]
================================================================================

................................................................................
<<<<<<<<<<<<<< LNV (Original version) density kernel optimisation >>>>>>>>>>>>>>
~~~~~~~~~~~~~~~~~~~~~~~~~~~~~~~~~~~~~~~~~~~~~~~~~~~~~~~~~~~~~~~~~~~~~~~~~~~~~~~~
   iter  |      energy (Eh)       | rms gradient |  commutator  |   dE (Eh)
MG BCs: +ve charge blocks (gridpoints):     30876 (   17041538).
MG BCs: -ve charge blocks (gridpoints):      8363 (    1118267).
MG BCs:     Elided blocks (gridpoints):    163031 (  172810820).
MG BCs: Computational effort saved:  99.9795%.
MG BCs: Charge after coarse-graining:           -9.0009709.
MG DL_MG: Calling solver with defect correction order = 8
MG DL_MG: Solver finished
MG Hartree energy from (\int phi*rho dr):              1422.430428
MG Hartree energy from (\int eps (grad phi)^2 dr):     1421.763128
MG Discrepancy due to finite box and discretization:     -0.667300 (  -0.04691%)
MG Correction to account for finite box:                  0.470735
MG Remaining discrepancy, due to discretization:         -0.196565 (  -0.01382%)
      ideal mu1:      -0.729734525595
             Q0:  -11579.766180072329
             G0:    -145.962221735284
   RMS gradient:       0.001847604006
MG BCs: +ve charge blocks (gridpoints):     30918 (   17116836).
MG BCs: -ve charge blocks (gridpoints):      8283 (    1101583).
MG BCs:     Elided blocks (gridpoints):    162993 (  172752206).
MG BCs: Computational effort saved:  99.9795%.
MG BCs: Charge after coarse-graining:           -9.0009932.
MG DL_MG: Calling solver with defect correction order = 8
MG DL_MG: Solver finished
MG Hartree energy from (\int phi*rho dr):              1442.549119
MG Hartree energy from (\int eps (grad phi)^2 dr):     1441.898593
MG Discrepancy due to finite box and discretization:     -0.650526 (  -0.04510%)
MG Correction to account for finite box:                  0.470131
MG Remaining discrepancy, due to discretization:         -0.180394 (  -0.01251%)
     Trial step:       0.500000000000
             Q1:  -11590.967940331204
 Quadratic coef:      61.779350608767
 Linear coef   :     -72.981110867642
           Qmin:  -11601.319670401181
Quadratic minimum step length (  0.295329710285) accepted
    Initial Ne1:    7228.00000000
      Final Ne1:    7228.00000000

=================== Penalty functional idempotency correction ==================
 RMS occupancy error at iteration   1:  0.003456 (step -0.4882 Ne1=   7228.0000)
 RMS occupancy error at iteration   2:  0.000026 (step -0.5000 Ne1=   7228.0000)
            Final RMS occupancy error   :  0.000000 (Ne1=   7228.0000)
               Final occupancy bounds   : [  0.0000,  1.0000]
================================================================================

    1        -1.157976618007E+04     1.8476E-03     1.6715E-03
MG BCs: +ve charge blocks (gridpoints):     30886 (   17088049).
MG BCs: -ve charge blocks (gridpoints):      8334 (    1108806).
MG BCs:     Elided blocks (gridpoints):    163024 (  172773770).
MG BCs: Computational effort saved:  99.9795%.
MG BCs: Charge after coarse-graining:           -9.0009833.
MG DL_MG: Calling solver with defect correction order = 8
MG DL_MG: Solver finished
MG Hartree energy from (\int phi*rho dr):              1426.197202
MG Hartree energy from (\int eps (grad phi)^2 dr):     1425.540793
MG Discrepancy due to finite box and discretization:     -0.656409 (  -0.04603%)
MG Correction to account for finite box:                  0.470273
MG Remaining discrepancy, due to discretization:         -0.186136 (  -0.01305%)
      ideal mu1:      -0.767229170793
             Q0:  -11601.752864128095
             G0:     -11.765535607150
   RMS gradient:       0.000520810973
MG BCs: +ve charge blocks (gridpoints):     30894 (   17104046).
MG BCs: -ve charge blocks (gridpoints):      8315 (    1104170).
MG BCs:     Elided blocks (gridpoints):    163016 (  172762409).
MG BCs: Computational effort saved:  99.9795%.
MG BCs: Charge after coarse-graining:           -9.0009875.
MG DL_MG: Calling solver with defect correction order = 8
MG DL_MG: Solver finished
MG Hartree energy from (\int phi*rho dr):              1430.786949
MG Hartree energy from (\int eps (grad phi)^2 dr):     1430.134212
MG Discrepancy due to finite box and discretization:     -0.652737 (  -0.04562%)
MG Correction to account for finite box:                  0.469868
MG Remaining discrepancy, due to discretization:         -0.182870 (  -0.01278%)
     Trial step:       0.384271850573
             Q1:  -11604.544167332468
 Quadratic coef:       1.729860936368
 Linear coef   :      -4.521164140741
           Qmin:  -11604.706992514628
Quadratic minimum step length (  0.502166409617) accepted
    Initial Ne1:    7227.99991063
      Final Ne1:    7228.00000000

=================== Penalty functional idempotency correction ==================
 RMS occupancy error at iteration   1:  0.001835 (step -0.4930 Ne1=   7228.0000)
 RMS occupancy error at iteration   2:  0.000010 (step -0.5001 Ne1=   7228.0000)
            Final RMS occupancy error   :  0.000000 (Ne1=   7228.0000)
               Final occupancy bounds   : [  0.0000,  1.0000]
================================================================================

    2        -1.160175286413E+04     5.2081E-04     4.7117E-04    -2.1987E+01
MG BCs: +ve charge blocks (gridpoints):     30897 (   17109023).
MG BCs: -ve charge blocks (gridpoints):      8305 (    1102763).
MG BCs:     Elided blocks (gridpoints):    163013 (  172758839).
MG BCs: Computational effort saved:  99.9795%.
MG BCs: Charge after coarse-graining:           -9.0009888.
MG DL_MG: Calling solver with defect correction order = 8
MG DL_MG: Solver finished
MG Hartree energy from (\int phi*rho dr):              1432.236518
MG Hartree energy from (\int eps (grad phi)^2 dr):     1431.584824
MG Discrepancy due to finite box and discretization:     -0.651694 (  -0.04550%)
MG Correction to account for finite box:                  0.469756
MG Remaining discrepancy, due to discretization:         -0.181938 (  -0.01270%)
      ideal mu1:      -0.787689136564
             Q0:  -11604.742708575097
             G0:      -1.871982096072
   RMS gradient:       0.000208024081
MG BCs: +ve charge blocks (gridpoints):     30890 (   17108332).
MG BCs: -ve charge blocks (gridpoints):      8312 (    1103448).
MG BCs:     Elided blocks (gridpoints):    163020 (  172758845).
MG BCs: Computational effort saved:  99.9795%.
MG BCs: Charge after coarse-graining:           -9.0009888.
MG DL_MG: Calling solver with defect correction order = 8
MG DL_MG: Solver finished
MG Hartree energy from (\int phi*rho dr):              1430.656692
MG Hartree energy from (\int eps (grad phi)^2 dr):     1430.005302
MG Discrepancy due to finite box and discretization:     -0.651389 (  -0.04553%)
MG Correction to account for finite box:                  0.469579
MG Remaining discrepancy, due to discretization:         -0.181810 (  -0.01271%)
     Trial step:       0.439281704057
             Q1:  -11605.213957087719
 Quadratic coef:       0.351078972504
 Linear coef   :      -0.822327485127
           Qmin:  -11605.224240186042
Quadratic minimum step length (  0.514461769645) accepted
    Initial Ne1:    7227.99996156
      Final Ne1:    7228.00000000

=================== Penalty functional idempotency correction ==================
 RMS occupancy error at iteration   1:  0.000605 (step -0.4976 Ne1=   7228.0000)
 RMS occupancy error at iteration   2:  0.000001 (step -0.5000 Ne1=   7228.0000)
            Final RMS occupancy error   :  0.000000 (Ne1=   7228.0000)
               Final occupancy bounds   : [  0.0000,  1.0000]
================================================================================

    3        -1.160474270858E+04     2.0802E-04     1.8819E-04    -2.9898E+00
MG BCs: +ve charge blocks (gridpoints):     30892 (   17108214).
MG BCs: -ve charge blocks (gridpoints):      8315 (    1103568).
MG BCs:     Elided blocks (gridpoints):    163018 (  172758843).
MG BCs: Computational effort saved:  99.9795%.
MG BCs: Charge after coarse-graining:           -9.0009888.
MG DL_MG: Calling solver with defect correction order = 8
MG DL_MG: Solver finished
MG Hartree energy from (\int phi*rho dr):              1430.393274
MG Hartree energy from (\int eps (grad phi)^2 dr):     1429.741928
MG Discrepancy due to finite box and discretization:     -0.651347 (  -0.04554%)
MG Correction to account for finite box:                  0.469550
MG Remaining discrepancy, due to discretization:         -0.181797 (  -0.01271%)
      ideal mu1:      -0.788738587982
             Q0:  -11605.228876331355
             G0:      -0.462420685957
   RMS gradient:       0.000103432201
MG BCs: +ve charge blocks (gridpoints):     30895 (   17109221).
MG BCs: -ve charge blocks (gridpoints):      8304 (    1103337).
MG BCs:     Elided blocks (gridpoints):    163015 (  172758067).
MG BCs: Computational effort saved:  99.9795%.
MG BCs: Charge after coarse-graining:           -9.0009889.
MG DL_MG: Calling solver with defect correction order = 8
MG DL_MG: Solver finished
MG Hartree energy from (\int phi*rho dr):              1431.410025
MG Hartree energy from (\int eps (grad phi)^2 dr):     1430.758618
MG Discrepancy due to finite box and discretization:     -0.651407 (  -0.04551%)
MG Correction to account for finite box:                  0.469519
MG Remaining discrepancy, due to discretization:         -0.181887 (  -0.01271%)
     Trial step:       0.475387886722
             Q1:  -11605.331376543734
 Quadratic coef:       0.117328980295
 Linear coef   :      -0.219829192674
           Qmin:  -11605.331845081766
Quadratic minimum step length (  0.445346644460) accepted
    Initial Ne1:    7227.99999163
      Final Ne1:    7228.00000000

=================== Penalty functional idempotency correction ==================
 RMS occupancy error at iteration   1:  0.000197 (step -0.4992 Ne1=   7228.0000)
            Final RMS occupancy error   :  0.000000 (Ne1=   7228.0000)
               Final occupancy bounds   : [ -0.0000,  1.0000]
================================================================================

    4        -1.160522887633E+04     1.0343E-04     9.3573E-05    -4.8617E-01
MG BCs: +ve charge blocks (gridpoints):     30895 (   17109145).
MG BCs: -ve charge blocks (gridpoints):      8305 (    1103350).
MG BCs:     Elided blocks (gridpoints):    163015 (  172758130).
MG BCs: Computational effort saved:  99.9795%.
MG BCs: Charge after coarse-graining:           -9.0009889.
MG DL_MG: Calling solver with defect correction order = 8
MG DL_MG: Solver finished
MG Hartree energy from (\int phi*rho dr):              1431.345568
MG Hartree energy from (\int eps (grad phi)^2 dr):     1430.694166
MG Discrepancy due to finite box and discretization:     -0.651402 (  -0.04551%)
MG Correction to account for finite box:                  0.469521
MG Remaining discrepancy, due to discretization:         -0.181881 (  -0.01271%)
      ideal mu1:      -0.788864382093
             Q0:  -11605.332334910752
             G0:      -0.106398156491
   RMS gradient:       0.000049771831
MG BCs: +ve charge blocks (gridpoints):     30892 (   17109455).
MG BCs: -ve charge blocks (gridpoints):      8302 (    1103196).
MG BCs:     Elided blocks (gridpoints):    163018 (  172757974).
MG BCs: Computational effort saved:  99.9795%.
MG BCs: Charge after coarse-graining:           -9.0009887.
MG DL_MG: Calling solver with defect correction order = 8
MG DL_MG: Solver finished
MG Hartree energy from (\int phi*rho dr):              1431.722031
MG Hartree energy from (\int eps (grad phi)^2 dr):     1431.070481
MG Discrepancy due to finite box and discretization:     -0.651550 (  -0.04551%)
MG Correction to account for finite box:                  0.469524
MG Remaining discrepancy, due to discretization:         -0.182026 (  -0.01271%)
     Trial step:       0.460122157876
             Q1:  -11605.358715251088
 Quadratic coef:       0.022575809024
 Linear coef   :      -0.048956149359
           Qmin:  -11605.358875538350
Quadratic minimum step length (  0.498892621314) accepted
    Initial Ne1:    7228.00180985
      Final Ne1:    7228.00000000

=================== Penalty functional idempotency correction ==================
 RMS occupancy error at iteration   1:  0.000068 (step -0.4997 Ne1=   7228.0000)
            Final RMS occupancy error   :  0.000000 (Ne1=   7228.0000)
               Final occupancy bounds   : [ -0.0000,  1.0000]
================================================================================

    5        -1.160533233491E+04     4.9772E-05     4.5027E-05    -1.0346E-01
MG BCs: +ve charge blocks (gridpoints):     30892 (   17109507).
MG BCs: -ve charge blocks (gridpoints):      8302 (    1103172).
MG BCs:     Elided blocks (gridpoints):    163018 (  172757946).
MG BCs: Computational effort saved:  99.9795%.
MG BCs: Charge after coarse-graining:           -9.0009887.
MG DL_MG: Calling solver with defect correction order = 8
MG DL_MG: Solver finished
MG Hartree energy from (\int phi*rho dr):              1431.753764
MG Hartree energy from (\int eps (grad phi)^2 dr):     1431.102202
MG Discrepancy due to finite box and discretization:     -0.651562 (  -0.04551%)
MG Correction to account for finite box:                  0.469524
MG Remaining discrepancy, due to discretization:         -0.182038 (  -0.01271%)
      ideal mu1:      -0.788804635376
             Q0:  -11605.358930439223
             G0:      -0.030039126378
   RMS gradient:       0.000026469874
MG BCs: +ve charge blocks (gridpoints):     30892 (   17109047).
MG BCs: -ve charge blocks (gridpoints):      8304 (    1103421).
MG BCs:     Elided blocks (gridpoints):    163018 (  172758157).
MG BCs: Computational effort saved:  99.9795%.
MG BCs: Charge after coarse-graining:           -9.0009886.
MG DL_MG: Calling solver with defect correction order = 8
MG DL_MG: Solver finished
MG Hartree energy from (\int phi*rho dr):              1431.120001
MG Hartree energy from (\int eps (grad phi)^2 dr):     1430.468438
MG Discrepancy due to finite box and discretization:     -0.651563 (  -0.04553%)
MG Correction to account for finite box:                  0.469526
MG Remaining discrepancy, due to discretization:         -0.182037 (  -0.01272%)
     Trial step:       0.479115382207
             Q1:  -11605.368222196121
 Quadratic coef:       0.005100450619
 Linear coef   :      -0.014392207516
           Qmin:  -11605.369083249860
Quadratic minimum step length (  0.675972430716) accepted
    Initial Ne1:    7228.00100697
      Final Ne1:    7228.00000000

=================== Penalty functional idempotency correction ==================
 RMS occupancy error at iteration   1:  0.000036 (step -0.4998 Ne1=   7228.0000)
            Final RMS occupancy error   :  0.000000 (Ne1=   7228.0000)
               Final occupancy bounds   : [ -0.0000,  1.0000]
================================================================================

    6        -1.160535893044E+04     2.6470E-05     2.3947E-05    -2.6596E-02
MG BCs: +ve charge blocks (gridpoints):     30892 (   17108894).
MG BCs: -ve charge blocks (gridpoints):      8305 (    1103499).
MG BCs:     Elided blocks (gridpoints):    163018 (  172758232).
MG BCs: Computational effort saved:  99.9795%.
MG BCs: Charge after coarse-graining:           -9.0009886.
MG DL_MG: Calling solver with defect correction order = 8
MG DL_MG: Solver finished
MG Hartree energy from (\int phi*rho dr):              1430.859054
MG Hartree energy from (\int eps (grad phi)^2 dr):     1430.207491
MG Discrepancy due to finite box and discretization:     -0.651563 (  -0.04554%)
MG Correction to account for finite box:                  0.469527
MG Remaining discrepancy, due to discretization:         -0.182036 (  -0.01272%)
      ideal mu1:      -0.788539295773
             Q0:  -11605.369092412759
             G0:      -0.014770031466
   RMS gradient:       0.000018585719
MG BCs: +ve charge blocks (gridpoints):     30890 (   17109282).
MG BCs: -ve charge blocks (gridpoints):      8305 (    1103273).
MG BCs:     Elided blocks (gridpoints):    163020 (  172758070).
MG BCs: Computational effort saved:  99.9795%.
MG BCs: Charge after coarse-graining:           -9.0009888.
MG DL_MG: Calling solver with defect correction order = 8
MG DL_MG: Solver finished
MG Hartree energy from (\int phi*rho dr):              1431.451035
MG Hartree energy from (\int eps (grad phi)^2 dr):     1430.799505
MG Discrepancy due to finite box and discretization:     -0.651530 (  -0.04552%)
MG Correction to account for finite box:                  0.469517
MG Remaining discrepancy, due to discretization:         -0.182013 (  -0.01272%)
     Trial step:       0.569094710486
             Q1:  -11605.372797792545
 Quadratic coef:       0.004700166995
 Linear coef   :      -0.008405546781
           Qmin:  -11605.372850429056
Quadratic minimum step length (  0.508870452520) accepted
    Initial Ne1:    7228.00009525
      Final Ne1:    7228.00000000

=================== Penalty functional idempotency correction ==================
 RMS occupancy error at iteration   1:  0.000002 (step -0.5000 Ne1=   7228.0000)
            Final RMS occupancy error   :  0.000000 (Ne1=   7228.0000)
               Final occupancy bounds   : [  0.0000,  1.0000]
================================================================================

    7        -1.160536909241E+04     1.8586E-05     1.6814E-05    -1.0162E-02
MG BCs: +ve charge blocks (gridpoints):     30889 (   17109248).
MG BCs: -ve charge blocks (gridpoints):      8305 (    1103300).
MG BCs:     Elided blocks (gridpoints):    163021 (  172758077).
MG BCs: Computational effort saved:  99.9795%.
MG BCs: Charge after coarse-graining:           -9.0009888.
MG DL_MG: Calling solver with defect correction order = 8
MG DL_MG: Solver finished
MG Hartree energy from (\int phi*rho dr):              1431.388295
MG Hartree energy from (\int eps (grad phi)^2 dr):     1430.736762
MG Discrepancy due to finite box and discretization:     -0.651533 (  -0.04552%)
MG Correction to account for finite box:                  0.469518
MG Remaining discrepancy, due to discretization:         -0.182015 (  -0.01272%)
      ideal mu1:      -0.788878141226
             Q0:  -11605.372850548709
             G0:      -0.008335698179
   RMS gradient:       0.000013962922
MG BCs: +ve charge blocks (gridpoints):     30892 (   17109296).
MG BCs: -ve charge blocks (gridpoints):      8306 (    1103243).
MG BCs:     Elided blocks (gridpoints):    163018 (  172758086).
MG BCs: Computational effort saved:  99.9795%.
MG BCs: Charge after coarse-graining:           -9.0009888.
MG DL_MG: Calling solver with defect correction order = 8
MG DL_MG: Solver finished
MG Hartree energy from (\int phi*rho dr):              1431.448159
MG Hartree energy from (\int eps (grad phi)^2 dr):     1430.796658
MG Discrepancy due to finite box and discretization:     -0.651500 (  -0.04551%)
MG Correction to account for finite box:                  0.469511
MG Remaining discrepancy, due to discretization:         -0.181989 (  -0.01271%)
     Trial step:       0.538140764904
             Q1:  -11605.376184205757
 Quadratic coef:       0.001152121946
 Linear coef   :      -0.004485778994
           Qmin:  -11605.377216886243
Quadratic minimum step length (  1.047623712032) accepted
    Initial Ne1:    7228.00010995
      Final Ne1:    7228.00000000

=================== Penalty functional idempotency correction ==================
 RMS occupancy error at iteration   1:  0.000019 (step -0.4996 Ne1=   7228.0000)
            Final RMS occupancy error   :  0.000000 (Ne1=   7228.0000)
               Final occupancy bounds   : [ -0.0000,  1.0000]
================================================================================

    8        -1.160537285055E+04     1.3963E-05     1.2632E-05    -3.7581E-03
MG BCs: +ve charge blocks (gridpoints):     30892 (   17109328).
MG BCs: -ve charge blocks (gridpoints):      8307 (    1103197).
MG BCs:     Elided blocks (gridpoints):    163018 (  172758100).
MG BCs: Computational effort saved:  99.9795%.
MG BCs: Charge after coarse-graining:           -9.0009889.
MG DL_MG: Calling solver with defect correction order = 8
MG DL_MG: Solver finished
MG Hartree energy from (\int phi*rho dr):              1431.503328
MG Hartree energy from (\int eps (grad phi)^2 dr):     1430.851860
MG Discrepancy due to finite box and discretization:     -0.651468 (  -0.04551%)
MG Correction to account for finite box:                  0.469504
MG Remaining discrepancy, due to discretization:         -0.181964 (  -0.01271%)
      ideal mu1:      -0.788973284605
             Q0:  -11605.377208970138
             G0:      -0.011441908813
   RMS gradient:       0.000016387412
MG BCs: +ve charge blocks (gridpoints):     30892 (   17109204).
MG BCs: -ve charge blocks (gridpoints):      8307 (    1103361).
MG BCs:     Elided blocks (gridpoints):    163018 (  172758060).
MG BCs: Computational effort saved:  99.9795%.
MG BCs: Charge after coarse-graining:           -9.0009888.
MG DL_MG: Calling solver with defect correction order = 8
MG DL_MG: Solver finished
MG Hartree energy from (\int phi*rho dr):              1431.188403
MG Hartree energy from (\int eps (grad phi)^2 dr):     1430.536987
MG Discrepancy due to finite box and discretization:     -0.651416 (  -0.04552%)
MG Correction to account for finite box:                  0.469489
MG Remaining discrepancy, due to discretization:         -0.181927 (  -0.01271%)
     Trial step:       0.750845540524
             Q1:  -11605.382588522276
 Quadratic coef:       0.003211554069
 Linear coef   :      -0.008591106207
           Qmin:  -11605.382954405548
Quadratic minimum step length (  1.004279181584) accepted
    Initial Ne1:    7228.00027135
      Final Ne1:    7228.00000000

=================== Penalty functional idempotency correction ==================
 RMS occupancy error at iteration   1:  0.000098 (step -0.4975 Ne1=   7228.0000)
 RMS occupancy error at iteration   2:  0.000000 (step -0.5000 Ne1=   7228.0000)
            Final RMS occupancy error   :  0.000000 (Ne1=   7228.0000)
               Final occupancy bounds   : [  0.0000,  1.0000]
================================================================================

    9        -1.160537720897E+04     1.6387E-05     1.4825E-05    -4.3584E-03
MG BCs: +ve charge blocks (gridpoints):     30892 (   17109140).
MG BCs: -ve charge blocks (gridpoints):      8308 (    1103421).
MG BCs:     Elided blocks (gridpoints):    163018 (  172758064).
MG BCs: Computational effort saved:  99.9795%.
MG BCs: Charge after coarse-graining:           -9.0009888.
MG DL_MG: Calling solver with defect correction order = 8
MG DL_MG: Solver finished
MG Hartree energy from (\int phi*rho dr):              1431.079583
MG Hartree energy from (\int eps (grad phi)^2 dr):     1430.428186
MG Discrepancy due to finite box and discretization:     -0.651396 (  -0.04552%)
MG Correction to account for finite box:                  0.469483
MG Remaining discrepancy, due to discretization:         -0.181913 (  -0.01271%)
      ideal mu1:      -0.788670829957
   10        -1.160538292462E+04     1.8158E-05     1.6427E-05    -5.7157E-03
Finished density kernel iterations (  10)

Writing density kernel to file "complex_7321.vacuum_dkn" ... done


>>> Density kernel optimised for the current NGWF basis:
     ~~~~~~~~~~~~~~~~~~~~~~~~~~~~~~~~~~~~~~~~~~~~~~~~~~~~~~~~~~~
     Total energy                =  -1.16053829246237E+04  Eh
     Estimated bandgap           =  -2.2164E-01  Eh
     RMS occupancy error         =   2.7223E-12
     [H,K] commutator            =   1.6427E-05
     Occupancy bounds            = [  0.000:  1.000]
     ~~~~~~~~~~~~~~~~~~~~~~~~~~~~~~~~~~~~~~~~~~~~~~~~~~~~~~~~~~~




################################################################################
########################### NGWF CG iteration  001 #############################
################################################################################
****** Reciprocal space K.E. preconditioning with k_zero =  3.5000 a0^-1 *******

>>> Checking for convergence of NGWFs:   NOT CONVERGED
  ========================================================================
         NGWF RMS gradient =  1.5975E-03 >  2.0000E-06  | above tolerance
  ========================================================================

>>> Improving NGWFs using line search:
============ Calculation of NGWF S^-1 using Hotelling algorithm ================ 
         Iteration  |  Frobenius norm and Maximum abs value    (of I-S*S_n^-1)   
               1       0.19905338E+00     0.48679736E-02
               2       0.91187370E-03     0.36530009E-04
               3       0.32319286E-07     0.23061996E-08
               4       0.12688176E-12     0.58841820E-14
================================================================================
MG BCs: +ve charge blocks (gridpoints):     30418 (   17048748).
MG BCs: -ve charge blocks (gridpoints):      8326 (    1103182).
MG BCs:     Elided blocks (gridpoints):    163491 (  172818695).
MG BCs: Computational effort saved:  99.9797%.
MG BCs: Charge after coarse-graining:           -9.0009878.
MG DL_MG: Calling solver with defect correction order = 8
MG DL_MG: Solver finished
MG Hartree energy from (\int phi*rho dr):              1398.841025
MG Hartree energy from (\int eps (grad phi)^2 dr):     1398.190298
MG Discrepancy due to finite box and discretization:     -0.650727 (  -0.04652%)
MG Correction to account for finite box:                  0.469456
MG Remaining discrepancy, due to discretization:         -0.181271 (  -0.01296%)
============ Calculation of NGWF S^-1 using Hotelling algorithm ================ 
         Iteration  |  Frobenius norm and Maximum abs value    (of I-S*S_n^-1)   
               1       0.18786506E+01     0.39534630E-01
               2       0.73130313E-01     0.22951274E-02
               3       0.14818523E-03     0.91294487E-05
               4       0.11184542E-08     0.15264146E-09
               5       0.11043299E-12     0.57731597E-14
================================================================================
------------------------------- NGWF line search -------------------------------
RMS gradient                =       0.00159748203223
Trial step length           =               0.122474
Gradient along search dir.  =       -280.15353096592
Functional at step 0        =  -11605.38292462367099
Functional at step 1        =  -11637.07812783552799
Functional predicted        =  -11717.87188370492004
Selected quadratic step     =               0.803052
--------------------------- NGWF line search finished --------------------------
                                               
Writing NGWFs to file "complex_7321.vacuum_tightbox_ngwfs"....  done

>>> Optimising kernel for current NGWFs:
   Initial electron number for spin 1:    7263.50736487
     Final electron number for spin 1:    7228.00000000

=================== Penalty functional idempotency correction ==================
 RMS occupancy error at iteration   1:  0.004270 (step -0.4861 Ne1=   7228.0000)
 RMS occupancy error at iteration   2:  0.000070 (step -0.5003 Ne1=   7228.0000)
            Final RMS occupancy error   :  0.000000 (Ne1=   7228.0000)
               Final occupancy bounds   : [  0.0000,  1.0000]
================================================================================

................................................................................
<<<<<<<<<<<<<< LNV (Original version) density kernel optimisation >>>>>>>>>>>>>>
~~~~~~~~~~~~~~~~~~~~~~~~~~~~~~~~~~~~~~~~~~~~~~~~~~~~~~~~~~~~~~~~~~~~~~~~~~~~~~~~
   iter  |      energy (Eh)       | rms gradient |  commutator  |   dE (Eh)
MG BCs: +ve charge blocks (gridpoints):     24469 (   16748785).
MG BCs: -ve charge blocks (gridpoints):      8460 (    1085532).
MG BCs:     Elided blocks (gridpoints):    169445 (  173136308).
MG BCs: Computational effort saved:  99.9828%.
MG BCs: Charge after coarse-graining:           -9.0006700.
MG DL_MG: Calling solver with defect correction order = 8
MG DL_MG: Solver finished
MG Hartree energy from (\int phi*rho dr):              1242.705742
MG Hartree energy from (\int eps (grad phi)^2 dr):     1242.054319
MG Discrepancy due to finite box and discretization:     -0.651424 (  -0.05242%)
MG Correction to account for finite box:                  0.469337
MG Remaining discrepancy, due to discretization:         -0.182086 (  -0.01465%)
      ideal mu1:      -0.727162379465
             Q0:  -11716.903203902650
             G0:      -9.911250903692
   RMS gradient:       0.000481451892
MG BCs: +ve charge blocks (gridpoints):     24554 (   16777563).
MG BCs: -ve charge blocks (gridpoints):      8431 (    1077320).
MG BCs:     Elided blocks (gridpoints):    169360 (  173115742).
MG BCs: Computational effort saved:  99.9827%.
MG BCs: Charge after coarse-graining:           -9.0006629.
MG DL_MG: Calling solver with defect correction order = 8
MG DL_MG: Solver finished
MG Hartree energy from (\int phi*rho dr):              1268.296669
MG Hartree energy from (\int eps (grad phi)^2 dr):     1267.638496
MG Discrepancy due to finite box and discretization:     -0.658173 (  -0.05189%)
MG Correction to account for finite box:                  0.469103
MG Remaining discrepancy, due to discretization:         -0.189070 (  -0.01491%)
     Trial step:       0.868365444346
             Q1:  -11714.235179946758
 Quadratic coef:      11.274611750896
 Linear coef   :      -8.606587795005
           Qmin:  -11718.545685149669
Quadratic minimum step length (  0.331437729300) accepted
    Initial Ne1:    7227.99957513
      Final Ne1:    7228.00000000

=================== Penalty functional idempotency correction ==================
 RMS occupancy error at iteration   1:  0.000359 (step -0.4986 Ne1=   7228.0000)
 RMS occupancy error at iteration   2:  0.000000 (step -0.5000 Ne1=   7228.0000)
            Final RMS occupancy error   :  0.000000 (Ne1=   7228.0000)
               Final occupancy bounds   : [  0.0000,  1.0000]
================================================================================

    1        -1.171690320390E+04     4.8145E-04     4.3556E-04
MG BCs: +ve charge blocks (gridpoints):     24505 (   16759930).
MG BCs: -ve charge blocks (gridpoints):      8449 (    1082461).
MG BCs:     Elided blocks (gridpoints):    169409 (  173128234).
MG BCs: Computational effort saved:  99.9827%.
MG BCs: Charge after coarse-graining:           -9.0006672.
MG DL_MG: Calling solver with defect correction order = 8
MG DL_MG: Solver finished
MG Hartree energy from (\int phi*rho dr):              1251.147533
MG Hartree energy from (\int eps (grad phi)^2 dr):     1250.493660
MG Discrepancy due to finite box and discretization:     -0.653873 (  -0.05226%)
MG Correction to account for finite box:                  0.469228
MG Remaining discrepancy, due to discretization:         -0.184645 (  -0.01476%)
      ideal mu1:      -0.735313198370
             Q0:  -11718.508476022398
             G0:      -0.998963261702
   RMS gradient:       0.000154063170
MG BCs: +ve charge blocks (gridpoints):     24504 (   16761319).
MG BCs: -ve charge blocks (gridpoints):      8447 (    1082718).
MG BCs:     Elided blocks (gridpoints):    169410 (  173126588).
MG BCs: Computational effort saved:  99.9827%.
MG BCs: Charge after coarse-graining:           -9.0006667.
MG DL_MG: Calling solver with defect correction order = 8
MG DL_MG: Solver finished
MG Hartree energy from (\int phi*rho dr):              1253.049022
MG Hartree energy from (\int eps (grad phi)^2 dr):     1252.394840
MG Discrepancy due to finite box and discretization:     -0.654182 (  -0.05221%)
MG Correction to account for finite box:                  0.469231
MG Remaining discrepancy, due to discretization:         -0.184951 (  -0.01476%)
     Trial step:       0.536478397586
             Q1:  -11718.707350416342
 Quadratic coef:       0.337047815941
 Linear coef   :      -0.535922209885
           Qmin:  -11718.721511533580
Quadratic minimum step length (  0.426513204939) accepted
    Initial Ne1:    7227.99994400
      Final Ne1:    7228.00000000

=================== Penalty functional idempotency correction ==================
 RMS occupancy error at iteration   1:  0.000144 (step -0.4994 Ne1=   7228.0000)
            Final RMS occupancy error   :  0.000000 (Ne1=   7228.0000)
               Final occupancy bounds   : [ -0.0000,  1.0000]
================================================================================

    2        -1.171850847602E+04     1.5406E-04     1.3938E-04    -1.6053E+00
MG BCs: +ve charge blocks (gridpoints):     24502 (   16761022).
MG BCs: -ve charge blocks (gridpoints):      8447 (    1082639).
MG BCs:     Elided blocks (gridpoints):    169412 (  173126964).
MG BCs: Computational effort saved:  99.9827%.
MG BCs: Charge after coarse-graining:           -9.0006668.
MG DL_MG: Calling solver with defect correction order = 8
MG DL_MG: Solver finished
MG Hartree energy from (\int phi*rho dr):              1252.658497
MG Hartree energy from (\int eps (grad phi)^2 dr):     1252.004381
MG Discrepancy due to finite box and discretization:     -0.654116 (  -0.05222%)
MG Correction to account for finite box:                  0.469230
MG Remaining discrepancy, due to discretization:         -0.184886 (  -0.01476%)
      ideal mu1:      -0.736652110206
             Q0:  -11718.722013763036
             G0:      -0.157240268606
   RMS gradient:       0.000060573631
MG BCs: +ve charge blocks (gridpoints):     24502 (   16760138).
MG BCs: -ve charge blocks (gridpoints):      8448 (    1083137).
MG BCs:     Elided blocks (gridpoints):    169412 (  173127350).
MG BCs: Computational effort saved:  99.9827%.
MG BCs: Charge after coarse-graining:           -9.0006669.
MG DL_MG: Calling solver with defect correction order = 8
MG DL_MG: Solver finished
MG Hartree energy from (\int phi*rho dr):              1252.026102
MG Hartree energy from (\int eps (grad phi)^2 dr):     1251.372028
MG Discrepancy due to finite box and discretization:     -0.654074 (  -0.05224%)
MG Correction to account for finite box:                  0.469225
MG Remaining discrepancy, due to discretization:         -0.184849 (  -0.01476%)
     Trial step:       0.478346235205
             Q1:  -11718.770433377242
 Quadratic coef:       0.026795676304
 Linear coef   :      -0.075215290510
           Qmin:  -11718.774795971836
Quadratic minimum step length (  0.671357398069) accepted
    Initial Ne1:    7228.00065018
      Final Ne1:    7228.00000000

=================== Penalty functional idempotency correction ==================
 RMS occupancy error at iteration   1:  0.000068 (step -0.4997 Ne1=   7228.0000)
            Final RMS occupancy error   :  0.000000 (Ne1=   7228.0000)
               Final occupancy bounds   : [ -0.0000,  1.0000]
================================================================================

    3        -1.171872201376E+04     6.0574E-05     5.4800E-05    -2.1354E-01
MG BCs: +ve charge blocks (gridpoints):     24502 (   16759778).
MG BCs: -ve charge blocks (gridpoints):      8448 (    1083350).
MG BCs:     Elided blocks (gridpoints):    169412 (  173127497).
MG BCs: Computational effort saved:  99.9827%.
MG BCs: Charge after coarse-graining:           -9.0006669.
MG DL_MG: Calling solver with defect correction order = 8
MG DL_MG: Solver finished
MG Hartree energy from (\int phi*rho dr):              1251.770866
MG Hartree energy from (\int eps (grad phi)^2 dr):     1251.116808
MG Discrepancy due to finite box and discretization:     -0.654058 (  -0.05225%)
MG Correction to account for finite box:                  0.469223
MG Remaining discrepancy, due to discretization:         -0.184835 (  -0.01477%)
      ideal mu1:      -0.735578687932
             Q0:  -11718.774899665848
             G0:      -0.036084371004
   RMS gradient:       0.000029005207
MG BCs: +ve charge blocks (gridpoints):     24501 (   16759803).
MG BCs: -ve charge blocks (gridpoints):      8448 (    1083307).
MG BCs:     Elided blocks (gridpoints):    169413 (  173127515).
MG BCs: Computational effort saved:  99.9827%.
MG BCs: Charge after coarse-graining:           -9.0006669.
MG DL_MG: Calling solver with defect correction order = 8
MG DL_MG: Solver finished
MG Hartree energy from (\int phi*rho dr):              1251.887868
MG Hartree energy from (\int eps (grad phi)^2 dr):     1251.233929
MG Discrepancy due to finite box and discretization:     -0.653938 (  -0.05224%)
MG Correction to account for finite box:                  0.469213
MG Remaining discrepancy, due to discretization:         -0.184725 (  -0.01476%)
     Trial step:       0.566693289040
             Q1:  -11718.783815319417
 Quadratic coef:       0.011533117318
 Linear coef   :      -0.020448770887
           Qmin:  -11718.783963829059
Quadratic minimum step length (  0.502387208549) accepted
    Initial Ne1:    7228.00024589
      Final Ne1:    7228.00000000

=================== Penalty functional idempotency correction ==================
 RMS occupancy error at iteration   1:  0.000018 (step -0.4999 Ne1=   7228.0000)
            Final RMS occupancy error   :  0.000000 (Ne1=   7228.0000)
               Final occupancy bounds   : [ -0.0000,  1.0000]
================================================================================

    4        -1.171877489967E+04     2.9005E-05     2.6240E-05    -5.2886E-02
MG BCs: +ve charge blocks (gridpoints):     24502 (   16759781).
MG BCs: -ve charge blocks (gridpoints):      8447 (    1083318).
MG BCs:     Elided blocks (gridpoints):    169412 (  173127526).
MG BCs: Computational effort saved:  99.9827%.
MG BCs: Charge after coarse-graining:           -9.0006669.
MG DL_MG: Calling solver with defect correction order = 8
MG DL_MG: Solver finished
MG Hartree energy from (\int phi*rho dr):              1251.874395
MG Hartree energy from (\int eps (grad phi)^2 dr):     1251.220443
MG Discrepancy due to finite box and discretization:     -0.653952 (  -0.05224%)
MG Correction to account for finite box:                  0.469214
MG Remaining discrepancy, due to discretization:         -0.184738 (  -0.01476%)
      ideal mu1:      -0.735647997258
             Q0:  -11718.783968916745
             G0:      -0.011762620024
   RMS gradient:       0.000016582457
MG BCs: +ve charge blocks (gridpoints):     24501 (   16760349).
MG BCs: -ve charge blocks (gridpoints):      8448 (    1083141).
MG BCs:     Elided blocks (gridpoints):    169413 (  173127135).
MG BCs: Computational effort saved:  99.9827%.
MG BCs: Charge after coarse-graining:           -9.0006668.
MG DL_MG: Calling solver with defect correction order = 8
MG DL_MG: Solver finished
MG Hartree energy from (\int phi*rho dr):              1252.285185
MG Hartree energy from (\int eps (grad phi)^2 dr):     1251.631275
MG Discrepancy due to finite box and discretization:     -0.653909 (  -0.05222%)
MG Correction to account for finite box:                  0.469206
MG Remaining discrepancy, due to discretization:         -0.184704 (  -0.01475%)
     Trial step:       0.533572356466
             Q1:  -11718.787183074048
 Quadratic coef:       0.003062051581
 Linear coef   :      -0.006276208884
           Qmin:  -11718.787184962990
Quadratic minimum step length (  0.546824812663) accepted
    Initial Ne1:    7228.00009993
      Final Ne1:    7228.00000000

=================== Penalty functional idempotency correction ==================
 RMS occupancy error at iteration   1:  0.000009 (step -0.5000 Ne1=   7228.0000)
            Final RMS occupancy error   :  0.000000 (Ne1=   7228.0000)
               Final occupancy bounds   : [ -0.0000,  1.0000]
================================================================================

    5        -1.171878396892E+04     1.6582E-05     1.5002E-05    -9.0693E-03
MG BCs: +ve charge blocks (gridpoints):     24501 (   16760364).
MG BCs: -ve charge blocks (gridpoints):      8448 (    1083135).
MG BCs:     Elided blocks (gridpoints):    169413 (  173127126).
MG BCs: Computational effort saved:  99.9827%.
MG BCs: Charge after coarse-graining:           -9.0006668.
MG DL_MG: Calling solver with defect correction order = 8
MG DL_MG: Solver finished
MG Hartree energy from (\int phi*rho dr):              1252.295400
MG Hartree energy from (\int eps (grad phi)^2 dr):     1251.641492
MG Discrepancy due to finite box and discretization:     -0.653908 (  -0.05222%)
MG Correction to account for finite box:                  0.469206
MG Remaining discrepancy, due to discretization:         -0.184703 (  -0.01475%)
      ideal mu1:      -0.735996345884
             Q0:  -11718.787185940426
             G0:      -0.003466849083
   RMS gradient:       0.000009002676
MG BCs: +ve charge blocks (gridpoints):     24500 (   16760237).
MG BCs: -ve charge blocks (gridpoints):      8448 (    1083210).
MG BCs:     Elided blocks (gridpoints):    169414 (  173127178).
MG BCs: Computational effort saved:  99.9827%.
MG BCs: Charge after coarse-graining:           -9.0006668.
MG DL_MG: Calling solver with defect correction order = 8
MG DL_MG: Solver finished
MG Hartree energy from (\int phi*rho dr):              1252.220772
MG Hartree energy from (\int eps (grad phi)^2 dr):     1251.566873
MG Discrepancy due to finite box and discretization:     -0.653899 (  -0.05222%)
MG Correction to account for finite box:                  0.469199
MG Remaining discrepancy, due to discretization:         -0.184699 (  -0.01475%)
     Trial step:       0.540157943445
             Q1:  -11718.788343663327
 Quadratic coef:       0.000714923170
 Linear coef   :      -0.001872646071
           Qmin:  -11718.788412227199
Quadratic minimum step length (  0.707435913046) accepted
    Initial Ne1:    7228.00004379
      Final Ne1:    7228.00000000

=================== Penalty functional idempotency correction ==================
 RMS occupancy error at iteration   1:  0.000005 (step -0.5000 Ne1=   7228.0000)
            Final RMS occupancy error   :  0.000000 (Ne1=   7228.0000)
               Final occupancy bounds   : [ -0.0000,  1.0000]
================================================================================

    6        -1.171878718594E+04     9.0027E-06     8.1445E-06    -3.2170E-03
MG BCs: +ve charge blocks (gridpoints):     24500 (   16760167).
MG BCs: -ve charge blocks (gridpoints):      8448 (    1083254).
MG BCs:     Elided blocks (gridpoints):    169414 (  173127204).
MG BCs: Computational effort saved:  99.9827%.
MG BCs: Charge after coarse-graining:           -9.0006668.
MG DL_MG: Calling solver with defect correction order = 8
MG DL_MG: Solver finished
MG Hartree energy from (\int phi*rho dr):              1252.197643
MG Hartree energy from (\int eps (grad phi)^2 dr):     1251.543748
MG Discrepancy due to finite box and discretization:     -0.653895 (  -0.05222%)
MG Correction to account for finite box:                  0.469197
MG Remaining discrepancy, due to discretization:         -0.184698 (  -0.01475%)
      ideal mu1:      -0.735926296320
             Q0:  -11718.788412305061
             G0:      -0.001875673703
   RMS gradient:       0.000006623191
MG BCs: +ve charge blocks (gridpoints):     24501 (   16760083).
MG BCs: -ve charge blocks (gridpoints):      8448 (    1083266).
MG BCs:     Elided blocks (gridpoints):    169413 (  173127276).
MG BCs: Computational effort saved:  99.9827%.
MG BCs: Charge after coarse-graining:           -9.0006668.
MG DL_MG: Calling solver with defect correction order = 8
MG DL_MG: Solver finished
MG Hartree energy from (\int phi*rho dr):              1252.139096
MG Hartree energy from (\int eps (grad phi)^2 dr):     1251.485189
MG Discrepancy due to finite box and discretization:     -0.653907 (  -0.05222%)
MG Correction to account for finite box:                  0.469201
MG Remaining discrepancy, due to discretization:         -0.184706 (  -0.01475%)
     Trial step:       0.618164321124
             Q1:  -11718.788829946308
 Quadratic coef:       0.000741833313
 Linear coef   :      -0.001159474561
           Qmin:  -11718.788865365483
Quadratic minimum step length (  0.483090872233) accepted
    Initial Ne1:    7228.00000405
      Final Ne1:    7228.00000000

=================== Penalty functional idempotency correction ==================
 RMS occupancy error at iteration   1:  0.000000 (step -0.5000 Ne1=   7228.0000)
            Final RMS occupancy error   :  0.000000 (Ne1=   7228.0000)
               Final occupancy bounds   : [  0.0000,  1.0000]
================================================================================

    7        -1.171878841231E+04     6.6232E-06     5.9918E-06    -1.2264E-03
MG BCs: +ve charge blocks (gridpoints):     24500 (   16760104).
MG BCs: -ve charge blocks (gridpoints):      8448 (    1083257).
MG BCs:     Elided blocks (gridpoints):    169414 (  173127264).
MG BCs: Computational effort saved:  99.9827%.
MG BCs: Charge after coarse-graining:           -9.0006668.
MG DL_MG: Calling solver with defect correction order = 8
MG DL_MG: Solver finished
MG Hartree energy from (\int phi*rho dr):              1252.151851
MG Hartree energy from (\int eps (grad phi)^2 dr):     1251.497947
MG Discrepancy due to finite box and discretization:     -0.653904 (  -0.05222%)
MG Correction to account for finite box:                  0.469200
MG Remaining discrepancy, due to discretization:         -0.184704 (  -0.01475%)
      ideal mu1:      -0.735842364783
             Q0:  -11718.788865352748
             G0:      -0.001194319388
   RMS gradient:       0.000005284881
MG BCs: +ve charge blocks (gridpoints):     24500 (   16760106).
MG BCs: -ve charge blocks (gridpoints):      8448 (    1083264).
MG BCs:     Elided blocks (gridpoints):    169414 (  173127255).
MG BCs: Computational effort saved:  99.9827%.
MG BCs: Charge after coarse-graining:           -9.0006668.
MG DL_MG: Calling solver with defect correction order = 8
MG DL_MG: Solver finished
MG Hartree energy from (\int phi*rho dr):              1252.119842
MG Hartree energy from (\int eps (grad phi)^2 dr):     1251.465934
MG Discrepancy due to finite box and discretization:     -0.653908 (  -0.05222%)
MG Correction to account for finite box:                  0.469199
MG Remaining discrepancy, due to discretization:         -0.184710 (  -0.01475%)
     Trial step:       0.546470073357
             Q1:  -11718.789389414829
 Quadratic coef:       0.000128597723
 Linear coef   :      -0.000652659804
           Qmin:  -11718.789693448318
Quadratic minimum step length (  1.386723815146) accepted
    Initial Ne1:    7228.00000735
      Final Ne1:    7228.00000000

=================== Penalty functional idempotency correction ==================
 RMS occupancy error at iteration   1:  0.000009 (step -0.4996 Ne1=   7228.0000)
            Final RMS occupancy error   :  0.000000 (Ne1=   7228.0000)
               Final occupancy bounds   : [ -0.0000,  1.0000]
================================================================================

    8        -1.171878886535E+04     5.2849E-06     4.7811E-06    -4.5305E-04
MG BCs: +ve charge blocks (gridpoints):     24500 (   16760081).
MG BCs: -ve charge blocks (gridpoints):      8448 (    1083259).
MG BCs:     Elided blocks (gridpoints):    169414 (  173127285).
MG BCs: Computational effort saved:  99.9827%.
[...]
MG Hartree energy from (\int phi*rho dr):              1208.771758
MG Hartree energy from (\int eps (grad phi)^2 dr):     1208.581697
MG Discrepancy due to finite box and discretization:     -0.190061 (  -0.01572%)
MG Correction to account for finite box:                  0.006405
MG Remaining discrepancy, due to discretization:         -0.183656 (  -0.01519%)
             Q2:  -11752.286438188050
  Cubic LS coeff:       0.894713943332
Predicted energy:  -11752.286438188075
Cubic minimum step length accepted
    Initial Ne1:    7228.00000000
      Final Ne1:    7228.00000000

=================== Penalty functional idempotency correction ==================
 RMS occupancy error at iteration   1:  0.000000 (step -0.5000 Ne1=   7228.0000)
            Final RMS occupancy error   :  0.000000 (Ne1=   7228.0000)
               Final occupancy bounds   : [  0.0000,  1.0000]
================================================================================

    7        -1.175228643819E+04     7.5196E-09     6.8028E-09    -1.2806E-09

Reusing previously generated solute cavity.
MG BCs: +ve charge blocks (gridpoints):     28750 (   18889709).
MG BCs: -ve charge blocks (gridpoints):      8457 (    1052669).
MG BCs:     Elided blocks (gridpoints):    165164 (  171028247).
MG BCs: Computational effort saved:  99.9805%.
MG BCs: Charge after coarse-graining:           -9.0009555.
MG DL_MG: Calling solver with defect correction order = 8
MG DL_MG: Solver finished
MG Hartree energy from (\int phi*rho dr):              1208.771755
MG Hartree energy from (\int eps (grad phi)^2 dr):     1208.581695
MG Discrepancy due to finite box and discretization:     -0.190061 (  -0.01572%)
MG Correction to account for finite box:                  0.006405
MG Remaining discrepancy, due to discretization:         -0.183656 (  -0.01519%)
      ideal mu1:      -0.484762424783
             Q0:  -11752.286438188166
             G0:      -0.000000002446
   RMS gradient:       0.000000006736

Reusing previously generated solute cavity.
MG BCs: +ve charge blocks (gridpoints):     28750 (   18889709).
MG BCs: -ve charge blocks (gridpoints):      8457 (    1052669).
MG BCs:     Elided blocks (gridpoints):    165164 (  171028247).
MG BCs: Computational effort saved:  99.9805%.
MG BCs: Charge after coarse-graining:           -9.0009555.
MG DL_MG: Calling solver with defect correction order = 8
MG DL_MG: Solver finished
MG Hartree energy from (\int phi*rho dr):              1208.771733
MG Hartree energy from (\int eps (grad phi)^2 dr):     1208.581672
MG Discrepancy due to finite box and discretization:     -0.190061 (  -0.01572%)
MG Correction to account for finite box:                  0.006405
MG Remaining discrepancy, due to discretization:         -0.183656 (  -0.01519%)
     Trial step:       0.608050143642
             Q1:  -11752.286438188632
 Quadratic coef:       0.000000001022
 Linear coef   :      -0.000000001487
           Qmin:  -11752.286438188707
Quadratic minimum step length (  0.442251260340) accepted
    Initial Ne1:    7228.00000000
      Final Ne1:    7228.00000000

=================== Penalty functional idempotency correction ==================
 RMS occupancy error at iteration   1:  0.000000 (step -0.5000 Ne1=   7228.0000)
            Final RMS occupancy error   :  0.000000 (Ne1=   7228.0000)
               Final occupancy bounds   : [ -0.0000,  1.0000]
================================================================================

    8        -1.175228643819E+04     6.7356E-09     6.0936E-09    -2.3283E-09

Reusing previously generated solute cavity.
MG BCs: +ve charge blocks (gridpoints):     28750 (   18889709).
MG BCs: -ve charge blocks (gridpoints):      8457 (    1052669).
MG BCs:     Elided blocks (gridpoints):    165164 (  171028247).
MG BCs: Computational effort saved:  99.9805%.
MG BCs: Charge after coarse-graining:           -9.0009555.
MG DL_MG: Calling solver with defect correction order = 8
MG DL_MG: Solver finished
MG Hartree energy from (\int phi*rho dr):              1208.771739
MG Hartree energy from (\int eps (grad phi)^2 dr):     1208.581678
MG Discrepancy due to finite box and discretization:     -0.190061 (  -0.01572%)
MG Correction to account for finite box:                  0.006405
MG Remaining discrepancy, due to discretization:         -0.183656 (  -0.01519%)
      ideal mu1:      -0.484762402405
             Q0:  -11752.286438188516
             G0:      -0.000000001181
   RMS gradient:       0.000000004009

Reusing previously generated solute cavity.
MG BCs: +ve charge blocks (gridpoints):     28750 (   18889709).
MG BCs: -ve charge blocks (gridpoints):      8457 (    1052669).
MG BCs:     Elided blocks (gridpoints):    165164 (  171028247).
MG BCs: Computational effort saved:  99.9805%.
MG BCs: Charge after coarse-graining:           -9.0009555.
MG DL_MG: Calling solver with defect correction order = 8
MG DL_MG: Solver finished
MG Hartree energy from (\int phi*rho dr):              1208.771740
MG Hartree energy from (\int eps (grad phi)^2 dr):     1208.581679
MG Discrepancy due to finite box and discretization:     -0.190061 (  -0.01572%)
MG Correction to account for finite box:                  0.006405
MG Remaining discrepancy, due to discretization:         -0.183656 (  -0.01519%)
     Trial step:       0.518566237211
             Q1:  -11752.286438188516
 Quadratic coef:       0.000000000613
 Linear coef   :      -0.000000000612
           Qmin:  -11752.286438188668
Quadratic minimum step length (  0.258996912147) accepted
    Initial Ne1:    7228.00000000
      Final Ne1:    7228.00000000

=================== Penalty functional idempotency correction ==================
 RMS occupancy error at iteration   1:  0.000000 (step -0.5000 Ne1=   7228.0000)
            Final RMS occupancy error   :  0.000000 (Ne1=   7228.0000)
               Final occupancy bounds   : [  0.0000,  1.0000]
================================================================================

    9        -1.175228643819E+04     4.0088E-09     3.6267E-09    -3.4925E-10

Reusing previously generated solute cavity.
MG BCs: +ve charge blocks (gridpoints):     28750 (   18889709).
MG BCs: -ve charge blocks (gridpoints):      8457 (    1052669).
MG BCs:     Elided blocks (gridpoints):    165164 (  171028247).
MG BCs: Computational effort saved:  99.9805%.
MG BCs: Charge after coarse-graining:           -9.0009555.
MG DL_MG: Calling solver with defect correction order = 8
MG DL_MG: Solver finished
MG Hartree energy from (\int phi*rho dr):              1208.771739
MG Hartree energy from (\int eps (grad phi)^2 dr):     1208.581678
MG Discrepancy due to finite box and discretization:     -0.190061 (  -0.01572%)
MG Correction to account for finite box:                  0.006405
MG Remaining discrepancy, due to discretization:         -0.183656 (  -0.01519%)
      ideal mu1:      -0.484762400277
   10        -1.175228643819E+04     3.2872E-09     2.9739E-09    -1.1642E-10
Finished density kernel iterations (  10)

Writing density kernel to file "complex_7321.dkn" ... done


>>> Density kernel optimised for the current NGWF basis:
     ~~~~~~~~~~~~~~~~~~~~~~~~~~~~~~~~~~~~~~~~~~~~~~~~~~~~~~~~~~~
     Total energy                =  -1.17522864381886E+04  Eh
     Estimated bandgap           =   9.2813E-02  Eh
     RMS occupancy error         =   2.9658E-16
     [H,K] commutator            =   2.9739E-09
     Occupancy bounds            = [  0.000:  1.000]
     ~~~~~~~~~~~~~~~~~~~~~~~~~~~~~~~~~~~~~~~~~~~~~~~~~~~~~~~~~~~




################################################################################
########################### NGWF CG iteration  004 #############################
################################################################################
****** Reciprocal space K.E. preconditioning with k_zero =  3.5000 a0^-1 *******

>>> Checking for convergence of NGWFs: 
           ........................................................
           |         *** NGWF optimisation converged ***          |
           | RMS NGWF gradient =    0.00000186085947              |
           | Criteria satisfied:                                  |
           | -> RMS NGWF gradient lower than set threshold.       |
           ========================================================

Reusing previously generated solute cavity.
MG BCs: +ve charge blocks (gridpoints):     28750 (   18889709).
MG BCs: -ve charge blocks (gridpoints):      8457 (    1052669).
MG BCs:     Elided blocks (gridpoints):    165164 (  171028247).
MG BCs: Computational effort saved:  99.9805%.
MG BCs: Charge after coarse-graining:           -9.0009555.
MG DL_MG: Calling solver with defect correction order = 8
MG DL_MG: Solver finished
MG Hartree energy from (\int phi*rho dr):              1208.771739
MG Hartree energy from (\int eps (grad phi)^2 dr):     1208.581678
MG Discrepancy due to finite box and discretization:     -0.190061 (  -0.01572%)
MG Correction to account for finite box:                  0.006405
MG Remaining discrepancy, due to discretization:         -0.183656 (  -0.01519%)

================================================================================
           ---------------- ENERGY COMPONENTS (Eh) ----------------
           | Kinetic                    :     8600.15400437762582 |
           | Pseudo. (local,OBC,corr'd) :    -5096.07858290974764 |
           | Pseudopotential (non-local):     1410.83092328469343 |
           | Hartree (molecular)        :     1208.77173928930642 |
           | Exchange-correlation       :    -3398.86660220529711 |
           | Ion-ion (open BC)          :   837704.10318712075241 |
           | Smeared ion non-self corr. :  -837655.84020910121035 |
           | Smeared ion self corr.     :   -14525.98710726666468 |
           | Solvent cavitation energy  :        2.22790793185732 |
           | Solute-solvent dis-rep en. :       -1.60169870991053 |
           | Total                      :   -11752.28643818869750 |
           --------------------------------------------------------
           ------ LOCAL ENERGY COMPONENTS FROM MATRIX TRACES ------
           | Pseudopotential (local)    :    -5096.07858290975128 |
           | Hartree                    :    -2010.32832036671789 |
           --------------------------------------------------------
           Integrated density           :     7227.99999999897591
           Integrated density tr(KS)    :     7228.00000000000000
================================================================================


                        <<<<< CALCULATION SUMMARY >>>>>                         
|ITER|    RMS GRADIENT   |     TOTAL ENERGY    |   step   |     Epredicted              
   0     0.00003821211281 -11752.23012998898048   0.606508 -11752.27874079278445        
   1     0.00000995845577 -11752.28585760935675   0.089388 -11752.28634419374248        
   2     0.00000427869178 -11752.28642039641272   0.015527 -11752.28643599904717        
   3     0.00000186085947 -11752.28643818863202  <-- CG                                 

=================== Finished the calculation in solvent ========================
= Adjusting the following parameters: 
= read_denskern: F
= read_tightbox_ngwfs: F
= maxit_pen: 0 (restored to user-specified value)
= restart read filename prefix: ""
= restart write filename prefix: ""
================================================================================

================================================================================
IS: Calculation in solvent completed (NGWFs converged).      

Individual components of total energy in solvent:     hartree           kcal/mol
- Usual non-electrostatic DFT terms:    -12961.68438669988609    -8133579.576011
- Electrostatic fixed charge energy:      1208.77173928930642      758515.701928
- Apolar cavitation energy:                  2.22790793185732        1398.033304
- Apolar dispersion-repulsion energy:       -1.60169870991053       -1005.081093
 -------------------------------------------------------------------------------
- Total energy in solvent:              -11752.28643818863202    -7374670.921872

Components of total energy in solvent:                hartree           kcal/mol
- Usual non-electrostatic DFT terms:    -12961.68438669988609    -8133579.576011
- Electrostatic energy:                   1208.77173928930642      758515.701928
- Apolar energy terms:                       0.62620922194680         392.952211
 -------------------------------------------------------------------------------
- Total energy in solvent:              -11752.28643818863202    -7374670.921872

Calculation of free energy of solvation:              hartree           kcal/mol
- Total energy in solvent:         (+)  -11752.28643818863202    -7374670.921872
- Total energy in vacuum:          (-)  -11748.57636411697604    -7372342.815293
 -------------------------------------------------------------------------------
- Total free energy of solvation:           -3.71007407165598       -2328.106579

Components of polar term in f.e. of solvation:        hartree           kcal/mol
- Electrostatic:                            -4.48925009391746       -2817.046904
- Change in nonelectrostatic DFT terms:      0.15296680031315          95.988114
 -------------------------------------------------------------------------------
- Polar term in f.e. of solvation:          -4.33628329360431       -2721.058790

Components of free energy of solvation:               hartree           kcal/mol
- Polar term in f.e. of solvation: (+)      -4.33628329360431       -2721.058790
- Apolar (cavitation, dis., rep.): (+)       0.62620922194680         392.952211
 -------------------------------------------------------------------------------
- Total free energy of solvation:           -3.71007407165751       -2328.106579
================================================================================


------------------------------ TIMING INFORMATION ------------------------------
AVERAGE TIME:   32384.876s on     60 node(s)                                    
TOTAL TIME:     32384.876s on     60 node(s)                                    
================= AVERAGE TIMINGS FROM ALL NODES (CUMULATIVE) ==================
|| TAG                                    #calls    cpu time   %total  Gflops ||
|| work_imbalance                       :     1        0.00s   0.000%  ------ ||
|| sparse_set_to_garbage                :   164        0.03s   0.000%  ------ ||
|| parallel_prepare_fd_halos_request    :  1827        0.03s   0.000%  ------ ||
|| ngwfs_initialise_from_radial         :     1        0.11s   0.000%  ------ ||
|| parallel_prepare_fd_halos_alloc      :  1827        0.13s   0.000%  ------ ||
|| basis_extract_function_from_box      :  3378        0.15s   0.000%  ------ ||
|| parallel_prepare_fd_halos_satisfy    :  1827        0.61s   0.002%  ------ ||
|| pseudopotentials_nonlocal_mat        :    28        2.27s   0.007%  ------ ||
|| openbc_locps_radial                  :     1        2.98s   0.009%  ------ ||
|| density_init_guess_real              :     1        5.05s   0.016%  ------ ||
|| restart_kernel_read                  :     1        5.74s   0.018%  ------ ||
|| parallel_prepare_fd_halos_comms_imbal:  1827        8.63s   0.027%  ------ ||
|| restart_ngwfs_tightbox_input         :     1       11.12s   0.034%  ------ ||
|| parallel_prepare_fd_halos_clear      :  1827       17.69s   0.055%  ------ ||
|| sparse_init                          :     2       22.57s   0.070%  ------ ||
|| parallel_prepare_fd_halos_comms_wait :  1827       23.14s   0.071%  ------ ||
|| projectors_func_ovlp_box             :    28       24.98s   0.077%  ------ ||
|| function_ops_brappd_ketppd           :    28       29.36s   0.091%  ------ ||
|| palser_mano_kernel_optimise          :     1       32.25s   0.100%  ------ ||
|| projectors_init_fftbox_recip         :   133       32.92s   0.102%  ------ ||
|| basis_copy_function_to_box           : 54818       42.16s   0.130%  ------ ||
|| ngwf_gradient_coeffs                 :    15       47.12s   0.145%  ------ ||
|| parallel_prepare_fd_halos            :  1827       50.24s   0.155%  ------ ||
|| fourier_apply_box_pair               :  4809       50.74s   0.157% 584.419 ||
|| pseudo_make_structure_factor         :     2       51.83s   0.160%  ------ ||
|| sparse_embed_hotelling_invert_embed  :    28       75.35s   0.233%  ------ ||
|| finite_difference_derivative         :  1827      115.57s   0.357%  ------ ||
|| restart_kernel_write                 :    16      123.01s   0.380%  ------ ||
|| integrals_kinetic                    :    28      138.21s   0.427%  ------ ||
|| projectors_gradient_batch            :   105      170.22s   0.526%  ------ ||
|| sparse_trace                         :  4761      171.08s   0.528%  ------ ||
|| basis_dot_function_with_box          : 8.501M     171.46s   0.529%  ------ ||
|| openbc_locps_on_grid                 :     2      261.40s   0.807%  ------ ||
|| kernel_purify                        :   464      276.83s   0.855%  ------ ||
|| basis_add_function_to_box            : 17.68M     403.43s   1.246%  ------ ||
|| lnv_gradient_norm                    :   150      419.96s   1.297%  ------ ||
|| kernel_fix                           :   150      450.76s   1.392%  ------ ||
|| hamiltonian_energy_components        :     4      545.50s   1.684%  ------ ||
|| integrals_locpot_mat_els_batch       :  1113      677.91s   2.093%  ------ ||
|| ngwf_gradient_build_batch            :   105      743.59s   2.296%  ------ ||
|| ngwf_gradient_batch                  :   105     1020.86s   3.152%  ------ ||
|| density_batch_row_sums               :  2121     1040.82s   3.214%  ------ ||
|| restart_ngwfs_tightbox_output        :    13     1048.28s   3.237%  ------ ||
|| ngwf_gradient_lnv                    :    15     1145.19s   3.536%  ------ ||
|| cell_grid_deposit_box_real           : 34897     1336.25s   4.126%  ------ ||
|| fourier_apply_cell_forward           :  8513     1336.55s   4.127%  85.535 ||
|| fourier_apply_cell_backward          :  9123     1515.07s   4.678%  80.864 ||
|| cell_grid_extract_box_real           : 38277     1606.46s   4.961%  ------ ||
|| sparse_product                       :  6115     1728.28s   5.337%  ------ ||
|| density_fftbox_deposit_to_cell       : 33027     2039.60s   6.298%  ------ ||
|| density_fftbox_interpolate_multiply  : 33027     3642.98s  11.249%  ------ ||
|| potential_apply_to_ngwf_batch        :  1113     3694.37s  11.408%  ------ ||
|| xc_energy_potential                  :   304     3727.99s  11.512%  ------ ||
|| multigrid_prepare_bound_cond         :   304     4282.45s  13.224%  ------ ||
|| integrals_locpot_dbl_grid            :   159     4391.12s  13.559%  ------ ||
|| fourier_apply_box                    : 114.6k    4488.71s  13.861% 763.358 ||
|| nlxc_vdw_energy                      :   608     6041.46s  18.655%  ------ ||
|| dl_mg_solver_calls                   :   304     6276.57s  19.381%  ------ ||
|| density_batch_interp_deposit         :  2121     6618.96s  20.438%  ------ ||
|| density_on_dbl_grid                  :   303     7955.06s  24.564%  ------ ||
|| multigrid_calculate_hartree          :   304    10718.56s  33.097%  ------ ||
|| hamiltonian_lhxc_calculate           :   299    22261.13s  68.739%  ------ ||
|| lnv_denskernel_optimise_cg           :    15    27371.32s  84.519%  ------ ||
|| ngwf_cg_optimise                     :     2    31460.57s  97.146%  ------ ||
|| total_time                           :     1    32384.88s 100.000%  ------ ||
================================================================================
Overhead of generating timer report: 
- 0 ms averaging over threads,
- 15 ms ensuring consistency across MPI ranks,
- 0 ms printing in order.

Job completed: 02-03-2020 04:11 (-0000)

Application 39306657 resources: utime ~6469727s, stime ~222186s, Rss ~3896552, inblocks ~313398050, outblocks ~63555059
