 +---------------------------------------------------------------+
 |                                                               |
 |        ####### #     # ####### ####### ####### ######         |
 |        #     # ##    # #          #    #       #     #        |
 |        #     # # #   # #          #    #       #     #        |
 |        #     # #  #  # #####      #    #####   ######         |
 |        #     # #   # # #          #    #       #              |
 |        #     # #    ## #          #    #       #              |
 |        ####### #     # #######    #    ####### #              |
 |                                                               |
 |        Linear-Scaling Ab Initio Total Energy Program          |
 |                                                               |
 |          Release for academic collaborators of ODG            |
 |                                             Version 5.3.2.6.  |
 |                                                               |
 +---------------------------------------------------------------+
 |                                                               |
 |  Authors:                                                     |
 |  Jacek Dziedzic, Peter D. Haynes, Nicholas D. M. Hine,        |
 |  Arash. A. Mostofi, Mike C. Payne and Chris-Kriton Skylaris   |
 |                                                               |
 |  Contributors:                                                |
 |  J. Aarons, L. Andrinopoulos, P. W. Avraam, R. A. Bell,       |
 |  A. Bhandari, G. A. Bramley, R. J. Charlton, S. J. Clark,     |
 |  R. J. Clements, G. C. Constantinescu, F. Corsetti,           |
 |  N. Corsini, O. Dieguez, S. M. M. Dubois, K. K. B. Duff,      |
 |  J. M. Escartin, A. Greco, H. Helal, Q. O. Hill, L. P. Lee,   |
 |  J.-H. Li, E. B. Linscott, G. Moynihan, D. D. O`Regan,        |
 |  O. K. Okan, M. J. S. Phipps, C. J. Pickard,                  |
 |  J. C. A. Prentice, M. I. J. Probert, L. E. Ratcliff,         |
 |  M. Robinson, A. Ruiz Serrano, J. S. Spencer, E. W. Tait,     |
 |  G. Teobaldi, D. Turban, V. Vitale, K. A. Wilkinson,          |
 |  C. Weber, J. C. Womack, N. Yeung and T. J. Zuehlsdorff       |
 |                                                               |
 |                                   Copyright (c) 2004-2019     |
 |                                                               |
 |  Please cite:                                                 |
 |  "Introducing ONETEP: Linear-scaling density functional       |
 |   simulations on parallel computers".                         |
 |   C.-K. Skylaris, P. D. Haynes, A. A. Mostofi, M. C. Payne.   |
 |   J. Chem. Phys. 122 084119 (2005).                           |
 |                                                               |
 |          in all publications arising from your use of ONETEP. |
 |                                                               |
 +---------------------------------------------------------------+
 |                                                               |
 |   ONETEP is based on developments described in the following  |
 |   publications:                                               |
 |                                                               |
 |  "Nonorthogonal generalized Wannier function pseudopotential  |
 |   plane-wave method".                                         |
 |   C.-K. Skylaris, A. A. Mostofi, P. D. Haynes, O. Dieguez,    |
 |   M. C. Payne.                                                |
 |   Phys. Rev. B 66 035119 (2002).                              |
 |                                                               |
 |  "Preconditioned iterative minimization for linear-scaling    |
 |   electronic structure calculations".                         |
 |   A. A. Mostofi, P. D. Haynes, C.-K. Skylaris, M. C. Payne.   |
 |   J. Chem. Phys. 119(17), pp.8842-8848 (2003).                |
 |                                                               |
 |  "Total-energy calculations on a real space grid with         |
 |   localized functions and a plane-wave basis".                |
 |   A. A. Mostofi, C.-K. Skylaris, P. D. Haynes, M. C. Payne.   |
 |   Comput. Phys. Commun. 147, pp.788-802 (2002).               |
 |                                                               |
 |  "Accurate kinetic energy evaluation in electronic structure  |
 |   calculations with localized functions on real space grids"  |
 |   C.-K. Skylaris, A. A. Mostofi, P. D. Haynes, C. J. Pickard, |
 |   M. C. Payne.                                                |
 |   Comput. Phys. Commun. 140, pp.315-322 (2001).               |
 |                                                               |
 |  "Accurate ionic forces and geometry optimization in linear-  |
 |   scaling density-functional theory with local orbitals"      |
 |   N. D. M. Hine, M. Robinson, P. D. Haynes, C.-K. Skylaris,   |
 |   M. C. Payne, and A. A. Mostofi.                             |
 |   Phys. Rev. B 83 195102 (2011).                              |
 |                                                               |
 +---------------------------------------------------------------+

Job started: 22-02-2020 09:38 (-0000)
 
Reading parameters from file "complex_33921.dat" ...... done

If your calculation crashes here, before "Checking processes and threads..."
is displayed, then your stack size is insufficient.
If so, use "ulimit -s unlimited" at runtime.
You can disable this check with "check_stack_size F".

Checking processes and threads...
   Determining the default number of threads...
      No default threads set at compilation time: defaulting to 1.
      OpenMP library call suggests 4 threads.
      Hybrid MPI-OpenMP compilation detected.
      Number of MPI processes > 1.
      OMP_NUM_THREADS environment variable present and
      its value matches the one obtained from the OpenMP library call.
      Using this value as default.
      Default threads: 4
      Default applies to threads_max and threads_num_fftboxes.
      Settings in the input file override this default.
   ... done

   Running with 60 MPI processes.
   There are 6 MPI processes running on the same node as the root process.
   Each MPI process is using: 
               1 threads for simulation cell FFTs.
               1 threads for parallel FFT box operations.
               4 threads for loops over batched FFT box operations.
               4 threads in other parallel regions.
... done

Basic input checks...... done

Reading geometry and species blocks from file "complex_33921.dat" ...
  <species_atomic_set> block not found: NGWF initialisation set to SOLVE
IS: Dielectric excluded regions:
    - NONE.
    
  Number of PPD points along a3 set to 1.  This is 
  the default value, it may have been provided also in the input file.
... done
 Writing xyz coordinates to file "complex_33921.xyz" ... done


--------------------------------------------------------------------------------
---------------------------------- INPUT FILE ----------------------------------
--------------------------------------------------------------------------------

cutoff_energy       : 800 eV                                                    
xc_functional VV10                                                              
task SINGLEPOINT                                                                
write_xyz true                                                                  
output_detail VERBOSE                                                           
ngwf_threshold_orig : 0.000002                                                  
kernel_cutoff       : 1000                                                      
k_zero              : 3.5                                                       
elec_cg_max 0                                                                   
occ_mix 1.0                                                                     
dispersion 0                                                                    
maxit_ngwf_cg 40                                                                
minit_lnv 10                                                                    
maxit_lnv 10                                                                    
write_denskern T                                                                
write_tightbox_ngwfs T                                                          
charge 9                                                                        
is_implicit_solvent T                                                           
is_auto_solvation T                                                             
is_include_apolar T                                                             
is_smeared_ion_rep T                                                            
is_solvent_surf_tension 4.7624E-5 Ha/bohr**2                                    
is_apolar_scaling_factor 0.281075                                               
is_solvation_beta 1.3                                                           
is_density_threshold 0.00035                                                    
is_bulk_permittivity 78.54                                                      
is_dielectric_model fix_initial                                                 
is_smeared_ion_width 0.8                                                        
mg_defco_fd_order 8                                                             
is_bc_coarseness 10                                                             
is_bc_surface_coarseness 1                                                      
fine_grid_scale 2.0                                                             
%block species                                                                  
N   N   7 4 8.0                                                                 
H   H   1 1 8.0                                                                 
C   C   6 4 8.0                                                                 
S   S  16 9 8.0                                                                 
O   O   8 4 8.0                                                                 
%endblock species                                                               
%block species_pot                                                              
N   N_00.recpot                                                                 
H   H_04.recpot                                                                 
C   C_01.recpot                                                                 
S   S_00.recpot                                                                 
O   O_02.recpot                                                                 
%endblock species_pot                                                           
%block lattice_cart                                                             
135.996   0.000   0.000                                                         
0.000 142.663   0.000                                                           
0.000   0.000   160.158                                                         
%endblock lattice_cart                                                          
%block positions_abs                                                            
     Hash =   000005308370099120568784
%endblock positions_abs                                                         

--------------------------------------------------------------------------------
-------------------------------- END INPUT FILE --------------------------------
--------------------------------------------------------------------------------


 
 ESDF WARNING(1): "kernelcutoff" (esdf_physical) has no units. Assume "bohr".
 ESDF WARNING(2): "kzero" (esdf_physical) has no units. Assume "1/bohr".
 ESDF WARNING(3
 ): "issmearedionwidth" (esdf_physical) has no units. Assume "bohr".
<<<<<<<<<<<<<<<<<<<<<<<<<<<<<<<<< Full system >>>>>>>>>>>>>>>>>>>>>>>>>>>>>>>>>>
<<<<<<<<<<<<<<<<<<<<<<<<< Pseudopotential information >>>>>>>>>>>>>>>>>>>>>>>>>>
File: N_00.recpot [ 2001 points up to Gmax=  52.9 (1/bohr)]
  Atomic number:  7;  ionic charge:  5.000000
    Shell 1: l = 0; rc = 1.48 bohr
File: H_04.recpot [ 2001 points up to Gmax=  52.9 (1/bohr)]
  Atomic number:  1;  ionic charge:  1.000000
    Local potential
File: C_01.recpot [ 2001 points up to Gmax=  52.9 (1/bohr)]
  Atomic number:  6;  ionic charge:  4.000000
    Shell 1: l = 0; rc = 1.48 bohr
File: S_00.recpot [ 2001 points up to Gmax=  52.9 (1/bohr)]
  Atomic number: 16;  ionic charge:  6.000000
    Shell 1: l = 0; rc = 1.90 bohr
    Shell 2: l = 2; rc = 1.84 bohr
File: O_02.recpot [ 2001 points up to Gmax=  52.9 (1/bohr)]
  Atomic number:  8;  ionic charge:  6.000000
    Shell 1: l = 0; rc = 1.31 bohr
<<<<<<<<<<<<<<<<<<<<<<<<<<<<<<<<<<<<<<<<>>>>>>>>>>>>>>>>>>>>>>>>>>>>>>>>>>>>>>>>

-------------------------- Atom counting information ---------------------------
Symbol    Natoms    Nngwfs    Nprojs
  N        236       944       236
  H       1317      1317         0
  C        816      3264       816
  S          6        54        36
  O        240       960       240
.......   ......    ......    ......
Totals:   2615      6539      1328
--------------------------------------------------------------------------------

=============================== PSINC grid sizes ===============================
                      Simulation cell:  270 x 286 x 315
                              FFT-box:   99 x 105 x  99
                                  PPD:    5 x  11 x   1
Grid space d1=  0.503688888889a0 (KE cutoff=  29.94189Eh = 814.76038eV)
Grid space d2=  0.498821678322a0 (KE cutoff=  30.52906Eh = 830.73786eV)
Grid space d3=  0.508438095238a0 (KE cutoff=  29.38514Eh = 799.61048eV)
================================================================================

********************* Fourier parallelisation information **********************
       Coarse grid (whole simulation cell) dimensions:    270   286   315
          Real-space ('12') slabs/node (min max mean):      5     6     5
         Recip-space ('23') slabs/node (min max mean):      2     3     2
********************************************************************************

********************* Fourier parallelisation information **********************
       Double grid (whole simulation cell) dimensions:    540   572   630
          Real-space ('12') slabs/node (min max mean):     10    11    10
         Recip-space ('23') slabs/node (min max mean):      4     5     4
********************************************************************************
ONETEP fine grid is 540 x 572 x 630 gridpoints, 135.9960 x 142.6630 x 160.1580 bohr.
FD multigrid is     537 x 569 x 625 gridpoints, 135.2405 x 141.9148 x 158.8869 bohr.


Calculating local pseudopotential in open BC on a radial grid ...
Discrepancy between calculated realspace psloc and -Z/x on [5a0,253.965a0]:
max |rel. diff| # avg |rel. diff| #  avg rel. diff #  f # pseudopotential file
 0.000259282084    0.000004141996   0.000000074978   54  'N_00.recpot'
 0.000405386992    0.000016970607  -0.000000075982   54  'H_04.recpot'
 0.000371694516    0.000017434762   0.000000149329   54  'C_01.recpot'
 0.000461642895    0.000020341726   0.000000491514   54  'S_00.recpot'
 0.000682525123    0.000027368244   0.000000159803   54  'O_02.recpot'
... done

Atom SCF Calculation for N  : Z (AE atom) =   7 : Z (PS atom) =   5
Config String:
Orbitals (num,occ):  2     2.00 3.00
Orbitals   (num,l):  2        0    1
Real-space Grid (nr,dr,rmax): 1203    0.0066555740    8.0000000000
Spherical Bessel Basis (nsws,lmax,cutoff):   47    1  176.3951722778
Confining potential (l,width,scale):  0    3.0000000000  100.0000000000
Confining potential (l,width,scale):  1    3.0000000000  100.0000000000
  1         -4.7366890484   -3.4501654188    7.0523828109   -1.9619316308
  2         -9.7225420322   -2.0763080851    8.3068355706   -2.2908832437
  3         -9.7134243553   -2.1270543915    8.2534567806   -2.2819809971
  4         -9.7235185949   -2.1427582218    8.2369947390   -2.2802814234
  5         -9.7258373845   -2.1477905863    8.2317116314   -2.2798536235
  6         -9.7268932325   -2.1503512400    8.2290229806   -2.2796830099
  7         -9.7273189469   -2.1516634231    8.2276451699   -2.2796169657
  8         -9.7274675212   -2.1523365544    8.2269384796   -2.2795940092
  9         -9.7275041773   -2.1526817003    8.2265762312   -2.2795881371
 10         -9.7275008637   -2.1528585007    8.2263907413   -2.2795884060
 11         -9.7274868305   -2.1529489544    8.2262958841   -2.2795903922
 12         -9.7274755655   -2.1529859230    8.2262571347   -2.2795920452
 13         -9.7274662327   -2.1530083995    8.2262335832   -2.2795934369
 14         -9.7274589439   -2.1530220534    8.2262192809   -2.2795945372
 15         -9.7274534633   -2.1530303399    8.2262106039   -2.2795953734
 16         -9.7274494492   -2.1530353634    8.2262053452   -2.2795959920
 17         -9.7274465654   -2.1530384053    8.2262021621   -2.2795964406
 18         -9.7274445237   -2.1530402447    8.2262002378   -2.2795967611
 19         -9.7274430947   -2.1530413553    8.2261990762   -2.2795969874
 20         -9.7274421038   -2.1530420249    8.2261983762   -2.2795971458
 21         -9.7274414219   -2.1530424277    8.2261979551   -2.2795972557
 22         -9.7274409555   -2.1530426696    8.2261977024   -2.2795973315
 23         -9.7274406382   -2.1530428144    8.2261975510   -2.2795973835
 24         -9.7274404232   -2.1530429010    8.2261974606   -2.2795974190
 25         -9.7274402783   -2.1530429525    8.2261974067   -2.2795974432
 26         -9.7274401808   -2.1530429831    8.2261973748   -2.2795974596
Atom SCF converged after  26 iterations to a total energy of     -9.72744018

Atom SCF Calculation for H  : Z (AE atom) =   1 : Z (PS atom) =   1
Config String:
Orbitals (num,occ):  1     1.00
Orbitals   (num,l):  1        0
Real-space Grid (nr,dr,rmax): 1203    0.0066555740    8.0000000000
Spherical Bessel Basis (nsws,lmax,cutoff):   47    0  176.3951722778
Confining potential (l,width,scale):  0    3.0000000000  100.0000000000
  1         -0.3178661827   -0.2469879004    0.2820953124   -0.2487802071
  2         -0.3961824611   -0.2455070831    0.2902209900   -0.2567664324
  3         -0.4406462424   -0.2424227551    0.2948173255   -0.2622129794
  4         -0.4569739054   -0.2416771342    0.2960118236   -0.2639986016
  5         -0.4627745219   -0.2416114401    0.2961916694   -0.2644992007
  6         -0.4648634749   -0.2416666130    0.2961598921   -0.2646237065
  7         -0.4656347011   -0.2417155160    0.2961132802   -0.2646490719
  8         -0.4659271144   -0.2417438448    0.2960836537   -0.2646515522
  9         -0.4660407254   -0.2417580788    0.2960682004   -0.2646501482
 10         -0.4660857867   -0.2417647566    0.2960608087   -0.2646488305
 11         -0.4661039568   -0.2417677717    0.2960574330   -0.2646480606
 12         -0.4661113773   -0.2417691018    0.2960559329   -0.2646476727
 13         -0.4661144368   -0.2417696800    0.2960552775   -0.2646474903
 14         -0.4661157072   -0.2417699291    0.2960549942   -0.2646474079
 15         -0.4661162374   -0.2417700356    0.2960548727   -0.2646473715
 16         -0.4661164596   -0.2417700810    0.2960548208   -0.2646473556
 17         -0.4661165529   -0.2417701003    0.2960547987   -0.2646473488
Atom SCF converged after  17 iterations to a total energy of     -0.46611655

Atom SCF Calculation for C  : Z (AE atom) =   6 : Z (PS atom) =   4
Config String:
Orbitals (num,occ):  2     2.00 2.00
Orbitals   (num,l):  2        0    1
Real-space Grid (nr,dr,rmax): 1203    0.0066555740    8.0000000000
Spherical Bessel Basis (nsws,lmax,cutoff):   47    1  176.3951722778
Confining potential (l,width,scale):  0    3.0000000000  100.0000000000
Confining potential (l,width,scale):  1    3.0000000000  100.0000000000
  1         -5.2812238291   -1.3293161250    4.5135249990   -1.4716766231
  2         -5.3996591362   -1.3542148509    4.4876064308   -1.4645117417
  3         -5.4111847148   -1.3757224423    4.4645718036   -1.4593107263
  4         -5.4199203659   -1.3833334895    4.4563636676   -1.4579885221
  5         -5.4226876204   -1.3865104950    4.4529090432   -1.4575385943
  6         -5.4235070726   -1.3878131251    4.4514866831   -1.4573882877
  7         -5.4237271252   -1.3883401868    4.4509094528   -1.4573411661
  8         -5.4237693051   -1.3885521813    4.4506766230   -1.4573281030
  9         -5.4237656430   -1.3886371046    4.4505830704   -1.4573255254
 10         -5.4237547927   -1.3886709976    4.4505456041   -1.4573257244
 11         -5.4237478594   -1.3886817763    4.4505336403   -1.4573262476
 12         -5.4237429748   -1.3886873440    4.4505274417   -1.4573266921
 13         -5.4237397042   -1.3886902144    4.4505242350   -1.4573270222
 14         -5.4237375865   -1.3886916908    4.4505225792   -1.4573272507
 15         -5.4237362473   -1.3886924482    4.4505217259   -1.4573274021
 16         -5.4237354152   -1.3886928356    4.4505212873   -1.4573274996
 17         -5.4237349050   -1.3886930331    4.4505210623   -1.4573275610
 18         -5.4237345954   -1.3886931333    4.4505209473   -1.4573275991
 19         -5.4237344092   -1.3886931840    4.4505208887   -1.4573276224
 20         -5.4237342980   -1.3886932094    4.4505208590   -1.4573276366
 21         -5.4237342320   -1.3886932221    4.4505208440   -1.4573276451
Atom SCF converged after  21 iterations to a total energy of     -5.42373423

Atom SCF Calculation for S  : Z (AE atom) =  16 : Z (PS atom) =   6
Config String:
Orbitals (num,occ):  3     2.00 4.00 0.00
Orbitals   (num,l):  3        0    1    2
Real-space Grid (nr,dr,rmax): 1203    0.0066555740    8.0000000000
Spherical Bessel Basis (nsws,lmax,cutoff):   47    2  176.3951722778
Confining potential (l,width,scale):  0    3.0000000000  100.0000000000
Confining potential (l,width,scale):  1    3.0000000000  100.0000000000
Confining potential (l,width,scale):  2    3.0000000000  100.0000000000
  1        -12.4916237786   -1.0485914554   10.1554312477   -2.4822447765
  2         -9.9747083603   -2.4807597367    8.3138131863   -2.0618837268
  3        -10.1811370131   -2.3153496392    8.4906092179   -2.1137756843
  4        -10.1856385898   -2.2984912006    8.5093862195   -2.1218167101
  5        -10.1891317560   -2.2894783333    8.5195006030   -2.1261392389
  6        -10.1911142562   -2.2849160124    8.5246320974   -2.1283733378
  7        -10.1921506977   -2.2826473329    8.5271859473   -2.1295140514
  8        -10.1926851273   -2.2815219985    8.5284534218   -2.1300957983
  9        -10.1929632671   -2.2809620806    8.5290843811   -2.1303933136
 10        -10.1931100895   -2.2806822783    8.5293998452   -2.1305460626
 11        -10.1931885828   -2.2805418782    8.5295582201   -2.1306248009
 12        -10.1932309625   -2.2804711729    8.5296380158   -2.1306655459
 13        -10.1932540142   -2.2804354512    8.5296783476   -2.1306867097
 14        -10.1932666242   -2.2804173494    8.5296987927   -2.1306977435
 15        -10.1932735535   -2.2804081489    8.5297091868   -2.1307035175
 16        -10.1932773756   -2.2804034581    8.5297144867   -2.1307065505
 17        -10.1932794908   -2.2804010586    8.5297171976   -2.1307081499
 18        -10.1932806648   -2.2803998268    8.5297185890   -2.1307089965
 19        -10.1932813181   -2.2803991920    8.5297193057   -2.1307094466
 20        -10.1932816826   -2.2803988634    8.5297196763   -2.1307096867
 21        -10.1932818864   -2.2803986926    8.5297198688   -2.1307098154
 22        -10.1932820006   -2.2803986034    8.5297199692   -2.1307098847
 23        -10.1932820648   -2.2803985565    8.5297200219   -2.1307099221
Atom SCF converged after  23 iterations to a total energy of    -10.19328206

Atom SCF Calculation for O  : Z (AE atom) =   8 : Z (PS atom) =   6
Config String:
Orbitals (num,occ):  2     2.00 4.00
Orbitals   (num,l):  2        0    1
Real-space Grid (nr,dr,rmax): 1203    0.0066555740    8.0000000000
Spherical Bessel Basis (nsws,lmax,cutoff):   47    1  176.3951722778
Confining potential (l,width,scale):  0    3.0000000000  100.0000000000
Confining potential (l,width,scale):  1    3.0000000000  100.0000000000
  1         -1.9497477053   -7.5870966769   10.1554312477   -2.4822447765
  2        -15.9466298225   -3.1778351734   13.6353006614   -3.2931224232
  3        -16.0387051750   -3.0909030611   13.7305651010   -3.3194522996
  4        -15.9025031450   -3.1083023605   13.7128101414   -3.3180850501
  5        -15.8912953362   -3.1033022259   13.7185404266   -3.3206942093
  6        -15.8793912992   -3.1043100674   13.7175820250   -3.3209366960
  7        -15.8748748605   -3.1043975610   13.7175531476   -3.3211845618
  8        -15.8725354084   -3.1044655610   13.7175148333   -3.3213149154
  9        -15.8713193866   -3.1045129589   13.7174824743   -3.3213832909
 10        -15.8706863385   -3.1045436851   13.7174593895   -3.3214192053
 11        -15.8703562731   -3.1045627330   13.7174442347   -3.3214381098
 12        -15.8701839150   -3.1045741887   13.7174347673   -3.3214480859
 13        -15.8700937727   -3.1045809294   13.7174290448   -3.3214533647
 14        -15.8700465571   -3.1045848305   13.7174256662   -3.3214561658
 15        -15.8700217888   -3.1045870593   13.7174237063   -3.3214576563
 16        -15.8700087767   -3.1045883194   13.7174225849   -3.3214584516
 17        -15.8700019307   -3.1045890258   13.7174219502   -3.3214588771
 18        -15.8699983237   -3.1045894190   13.7174215942   -3.3214591053
 19        -15.8699964206   -3.1045896366   13.7174213960   -3.3214592281
 20        -15.8699954151   -3.1045897563   13.7174212864   -3.3214592942
 21        -15.8699948832   -3.1045898219   13.7174212260   -3.3214593299
 22        -15.8699946014   -3.1045898577   13.7174211930   -3.3214593493
 23        -15.8699944520   -3.1045898771   13.7174211750   -3.3214593597
 24        -15.8699943726   -3.1045898877   13.7174211652   -3.3214593654
Atom SCF converged after  24 iterations to a total energy of    -15.86999437

========================== Calculation in vacuum ==============================
= Adjusting the following parameters: 
= is_implicit_solvent: F
= is_include_apolar: F
= write_denskern: T
= write_tightbox_ngwfs: T
= restart read filename prefix: ""
= restart write filename prefix: "vacuum_"
===============================================================================

Determining parallel strategy ...
... using space-filling curve
... NGWF load balancing: max    109;  min    108;  average    109
... Projector load balancing: max     26;  min     21;  average     22
... done
Calculating direct Ion-Ion energy ...
Ion-Ion Energy        :    834180.51807424065191
Basis initialisation ...... NGWF spheres initialised
... Projector spheres initialised
... NGWF tight boxes initialised
... Tight-boxes gathered
... NGWF basis size (local,global):    1033103  62430105
... Nonlocal pseudopotential projector initialisation
... done

========================== Sparse matrix information ===========================
                        Overlap matrix filling:   6.76%
                        Density kernel filling: 100.00%
              NGWF-Proj overlap matrix filling:   1.77%
                    Hamiltonian matrix filling:   7.63%
                  NGWF diagonal matrix filling:   0.05%
                             KS matrix filling: 100.00% 
                           KSKS matrix filling: 100.00% 
================================================================================

Sparse matrix initialisation ... done

Generating smeared ion density ... done
Smeared ion self correction:     -14525.987107
Smeared ion non-self correction: -834132.225445
NGWF initialisation ...... done
============ Calculation of NGWF S^-1 using Hotelling algorithm ================ 
         Iteration  |  Frobenius norm and Maximum abs value    (of I-S*S_n^-1)   
               1       0.78805148E+02     0.98342461E+00
               2       0.77033119E+02     0.96725682E+00
               3       0.74129656E+02     0.93608114E+00
               4       0.69943763E+02     0.87825019E+00
               5       0.64673229E+02     0.77857913E+00
               6       0.58709032E+02     0.70762862E+00
               7       0.52660905E+02     0.67220185E+00
               8       0.47067066E+02     0.64737759E+00
               9       0.41079025E+02     0.60904176E+00
              10       0.32988026E+02     0.54536005E+00
              11       0.22534862E+02     0.44059033E+00
              12       0.11836006E+02     0.29488494E+00
              13       0.40950969E+01     0.14131719E+00
              14       0.70792966E+00     0.39654356E-01
              15       0.40184208E-01     0.41633883E-02
              16       0.30413410E-03     0.49612412E-04
              17       0.31783134E-07     0.73675860E-08
              18       0.10332299E-12     0.57731597E-14
================================================================================
Calculating local pseudopotential in open BC on the fine real space grid ...
... done

MG BCs: +ve charge blocks (gridpoints):     20601 (   16166100).
MG BCs: -ve charge blocks (gridpoints):      8108 (    1090460).
MG BCs:     Elided blocks (gridpoints):    173313 (  173714065).
MG BCs: Computational effort saved:  99.9850%.
MG BCs: Charge after coarse-graining:           -9.0002319.
MG DL_MG: Calling solver with defect correction order = 8
MG DL_MG: Solver finished
MG Hartree energy from (\int phi*rho dr):              1460.541869
MG Hartree energy from (\int eps (grad phi)^2 dr):     1459.919843
MG Discrepancy due to finite box and discretization:     -0.622027 (  -0.04259%)
MG Correction to account for finite box:                  0.467423
MG Remaining discrepancy, due to discretization:         -0.154603 (  -0.01059%)
Up spin density kernel initialisation ... 
======= Optimisation of K by Palser-Manolopoulos canonical purification ======== 
         Iteration  |  Band structure energy |    c_n   
               1       -2591.96299742434894    0.5265205
               2       -2768.81084176252944    0.5171691
               3       -2949.35849946720009    0.5163491
               4       -3099.03537988396056    0.5311182
               5       -3190.12276935897717    0.5687868
               6       -3227.83021013549660    0.6139876
               7       -3240.71005732630056    0.6246680
               8       -3246.41225593415311    0.6228017
               9       -3249.20878857582284    0.6344499
              10       -3250.39263100026938    0.6549172
              11       -3250.86380963716056    0.6673714
              12       -3251.06884922587051    0.6546911
              13       -3251.17413322150787    0.6088010
              14       -3251.23442658434715    0.5356026
              15       -3251.26524956017010    0.4615658
              16       -3251.27215528018314    0.4267102
              17       -3251.27325102670238    0.4433324
              18       -3251.27362909817339    0.4827379
              19       -3251.27385727074397    0.4985357
              20       -3251.27405479239906    0.4999894
              21       -3251.27422805735159    0.5000000
              22       -3251.27431674647050    0.5000000
              23       -3251.27433207098056    0.5000000
              24       -3251.27433243608630    0.5000139
              25       -3251.27433243628639    0.5000139
Termination criterion satisfied: band energy change below threshold.
Final occupancy bounds: [    0.00000000000000:    1.00000000000000]
Closest occupancy to 0.5:     1.00000000000000
================================================================================
... done

Writing density kernel to file "complex_33921.vacuum_dkn" ... done

>>> Optimising kernel for current NGWFs:
   Initial electron number for spin 1:    7228.00000000
     Final electron number for spin 1:    7228.00000000

=================== Penalty functional idempotency correction ==================
 RMS occupancy error at iteration   1:  0.000000 (step -0.5000 Ne1=   7228.0000)
            Final RMS occupancy error   :  0.000000 (Ne1=   7228.0000)
               Final occupancy bounds   : [  0.0000,  1.0000]
================================================================================

................................................................................
<<<<<<<<<<<<<< LNV (Original version) density kernel optimisation >>>>>>>>>>>>>>
~~~~~~~~~~~~~~~~~~~~~~~~~~~~~~~~~~~~~~~~~~~~~~~~~~~~~~~~~~~~~~~~~~~~~~~~~~~~~~~~
   iter  |      energy (Eh)       | rms gradient |  commutator  |   dE (Eh)
MG BCs: +ve charge blocks (gridpoints):     31121 (   17290793).
MG BCs: -ve charge blocks (gridpoints):      8428 (    1119503).
MG BCs:     Elided blocks (gridpoints):    162786 (  172560329).
MG BCs: Computational effort saved:  99.9793%.
MG BCs: Charge after coarse-graining:           -9.0009828.
MG DL_MG: Calling solver with defect correction order = 8
MG DL_MG: Solver finished
MG Hartree energy from (\int phi*rho dr):              1423.460206
MG Hartree energy from (\int eps (grad phi)^2 dr):     1422.788267
MG Discrepancy due to finite box and discretization:     -0.671939 (  -0.04720%)
MG Correction to account for finite box:                  0.474668
MG Remaining discrepancy, due to discretization:         -0.197271 (  -0.01386%)
      ideal mu1:      -0.717610723093
             Q0:  -11579.059602612746
             G0:    -146.909827735782
   RMS gradient:       0.001853591748
MG BCs: +ve charge blocks (gridpoints):     31133 (   17368801).
MG BCs: -ve charge blocks (gridpoints):      8334 (    1102233).
MG BCs:     Elided blocks (gridpoints):    162775 (  172499591).
MG BCs: Computational effort saved:  99.9793%.
MG BCs: Charge after coarse-graining:           -9.0010040.
MG DL_MG: Calling solver with defect correction order = 8
MG DL_MG: Solver finished
MG Hartree energy from (\int phi*rho dr):              1443.302378
MG Hartree energy from (\int eps (grad phi)^2 dr):     1442.647976
MG Discrepancy due to finite box and discretization:     -0.654401 (  -0.04534%)
MG Correction to account for finite box:                  0.473389
MG Remaining discrepancy, due to discretization:         -0.181012 (  -0.01254%)
     Trial step:       0.500000000000
             Q1:  -11590.406303397845
 Quadratic coef:      62.108213082791
 Linear coef   :     -73.454913867891
           Qmin:  -11600.778245379634
Quadratic minimum step length (  0.295673109167) accepted
    Initial Ne1:    7228.00000000
      Final Ne1:    7228.00000000

=================== Penalty functional idempotency correction ==================
 RMS occupancy error at iteration   1:  0.003492 (step -0.4880 Ne1=   7228.0000)
 RMS occupancy error at iteration   2:  0.000027 (step -0.5000 Ne1=   7228.0000)
            Final RMS occupancy error   :  0.000000 (Ne1=   7228.0000)
               Final occupancy bounds   : [  0.0000,  1.0000]
================================================================================

    1        -1.157905960261E+04     1.8536E-03     1.6769E-03
MG BCs: +ve charge blocks (gridpoints):     31122 (   17338177).
MG BCs: -ve charge blocks (gridpoints):      8374 (    1109896).
MG BCs:     Elided blocks (gridpoints):    162786 (  172522552).
MG BCs: Computational effort saved:  99.9793%.
MG BCs: Charge after coarse-graining:           -9.0009952.
MG DL_MG: Calling solver with defect correction order = 8
MG DL_MG: Solver finished
MG Hartree energy from (\int phi*rho dr):              1427.034693
MG Hartree energy from (\int eps (grad phi)^2 dr):     1426.374160
MG Discrepancy due to finite box and discretization:     -0.660532 (  -0.04629%)
MG Correction to account for finite box:                  0.473761
MG Remaining discrepancy, due to discretization:         -0.186771 (  -0.01309%)
      ideal mu1:      -0.757275432384
             Q0:  -11601.219743983122
             G0:     -11.936574041899
   RMS gradient:       0.000524546798
MG BCs: +ve charge blocks (gridpoints):     31121 (   17354247).
MG BCs: -ve charge blocks (gridpoints):      8350 (    1105090).
MG BCs:     Elided blocks (gridpoints):    162787 (  172511288).
MG BCs: Computational effort saved:  99.9793%.
MG BCs: Charge after coarse-graining:           -9.0009993.
MG DL_MG: Calling solver with defect correction order = 8
MG DL_MG: Solver finished
MG Hartree energy from (\int phi*rho dr):              1431.569074
MG Hartree energy from (\int eps (grad phi)^2 dr):     1430.912518
MG Discrepancy due to finite box and discretization:     -0.656555 (  -0.04586%)
MG Correction to account for finite box:                  0.473125
MG Remaining discrepancy, due to discretization:         -0.183431 (  -0.01281%)
     Trial step:       0.384495194487
             Q1:  -11604.047885905020
 Quadratic coef:       1.761413435846
 Linear coef   :      -4.589555357744
           Qmin:  -11604.209391097354
Quadratic minimum step length (  0.500922141268) accepted
    Initial Ne1:    7227.99990123
      Final Ne1:    7228.00000000

=================== Penalty functional idempotency correction ==================
 RMS occupancy error at iteration   1:  0.001856 (step -0.4929 Ne1=   7228.0000)
 RMS occupancy error at iteration   2:  0.000011 (step -0.5001 Ne1=   7228.0000)
            Final RMS occupancy error   :  0.000000 (Ne1=   7228.0000)
               Final occupancy bounds   : [  0.0000,  1.0000]
================================================================================

    2        -1.160121974398E+04     5.2455E-04     4.7455E-04    -2.2160E+01
MG BCs: +ve charge blocks (gridpoints):     31126 (   17359341).
MG BCs: -ve charge blocks (gridpoints):      8341 (    1103596).
MG BCs:     Elided blocks (gridpoints):    162782 (  172507688).
MG BCs: Computational effort saved:  99.9793%.
MG BCs: Charge after coarse-graining:           -9.0010004.
MG DL_MG: Calling solver with defect correction order = 8
MG DL_MG: Solver finished
MG Hartree energy from (\int phi*rho dr):              1432.984973
MG Hartree energy from (\int eps (grad phi)^2 dr):     1432.329532
MG Discrepancy due to finite box and discretization:     -0.655441 (  -0.04574%)
MG Correction to account for finite box:                  0.472950
MG Remaining discrepancy, due to discretization:         -0.182490 (  -0.01273%)
      ideal mu1:      -0.779259851855
             Q0:  -11604.246190824895
             G0:      -1.890009183097
   RMS gradient:       0.000208995636
MG BCs: +ve charge blocks (gridpoints):     31122 (   17358544).
MG BCs: -ve charge blocks (gridpoints):      8351 (    1104478).
MG BCs:     Elided blocks (gridpoints):    162786 (  172507603).
MG BCs: Computational effort saved:  99.9793%.
MG BCs: Charge after coarse-graining:           -9.0010001.
MG DL_MG: Calling solver with defect correction order = 8
MG DL_MG: Solver finished
MG Hartree energy from (\int phi*rho dr):              1431.397538
MG Hartree energy from (\int eps (grad phi)^2 dr):     1430.742478
MG Discrepancy due to finite box and discretization:     -0.655060 (  -0.04576%)
MG Correction to account for finite box:                  0.472713
MG Remaining discrepancy, due to discretization:         -0.182346 (  -0.01274%)
     Trial step:       0.438864621642
             Q1:  -11604.723870147020
 Quadratic coef:       0.351778842916
 Linear coef   :      -0.829458165041
           Qmin:  -11604.735134987830
Quadratic minimum step length (  0.517398716692) accepted
    Initial Ne1:    7227.99995660
      Final Ne1:    7228.00000000

=================== Penalty functional idempotency correction ==================
 RMS occupancy error at iteration   1:  0.000614 (step -0.4975 Ne1=   7228.0000)
 RMS occupancy error at iteration   2:  0.000001 (step -0.5000 Ne1=   7228.0000)
            Final RMS occupancy error   :  0.000000 (Ne1=   7228.0000)
               Final occupancy bounds   : [  0.0000,  1.0000]
================================================================================

    3        -1.160424619082E+04     2.0900E-04     1.8907E-04    -3.0264E+00
MG BCs: +ve charge blocks (gridpoints):     31125 (   17358447).
MG BCs: -ve charge blocks (gridpoints):      8353 (    1104570).
MG BCs:     Elided blocks (gridpoints):    162783 (  172507608).
MG BCs: Computational effort saved:  99.9793%.
MG BCs: Charge after coarse-graining:           -9.0010001.
MG DL_MG: Calling solver with defect correction order = 8
MG DL_MG: Solver finished
MG Hartree energy from (\int phi*rho dr):              1431.120207
MG Hartree energy from (\int eps (grad phi)^2 dr):     1430.465206
MG Discrepancy due to finite box and discretization:     -0.655001 (  -0.04577%)
MG Correction to account for finite box:                  0.472672
MG Remaining discrepancy, due to discretization:         -0.182330 (  -0.01274%)
      ideal mu1:      -0.779986016354
             Q0:  -11604.739922504174
             G0:      -0.465528778325
   RMS gradient:       0.000103765802
MG BCs: +ve charge blocks (gridpoints):     31123 (   17359195).
MG BCs: -ve charge blocks (gridpoints):      8348 (    1104491).
MG BCs:     Elided blocks (gridpoints):    162785 (  172506939).
MG BCs: Computational effort saved:  99.9793%.
MG BCs: Charge after coarse-graining:           -9.0010003.
MG DL_MG: Calling solver with defect correction order = 8
MG DL_MG: Solver finished
MG Hartree energy from (\int phi*rho dr):              1432.126200
MG Hartree energy from (\int eps (grad phi)^2 dr):     1431.471221
MG Discrepancy due to finite box and discretization:     -0.654979 (  -0.04573%)
MG Correction to account for finite box:                  0.472574
MG Remaining discrepancy, due to discretization:         -0.182405 (  -0.01274%)
     Trial step:       0.476516518118
             Q1:  -11604.843399035861
 Quadratic coef:       0.118355620843
 Linear coef   :      -0.221832152531
           Qmin:  -11604.843866667421
Quadratic minimum step length (  0.446563856357) accepted
    Initial Ne1:    7227.99999060
      Final Ne1:    7228.00000000

=================== Penalty functional idempotency correction ==================
 RMS occupancy error at iteration   1:  0.000200 (step -0.4992 Ne1=   7228.0000)
 RMS occupancy error at iteration   2:  0.000000 (step -0.5000 Ne1=   7228.0000)
            Final RMS occupancy error   :  0.000000 (Ne1=   7228.0000)
               Final occupancy bounds   : [  0.0000,  1.0000]
================================================================================

    4        -1.160473992250E+04     1.0377E-04     9.3874E-05    -4.9373E-01
MG BCs: +ve charge blocks (gridpoints):     31123 (   17359162).
MG BCs: -ve charge blocks (gridpoints):      8348 (    1104499).
MG BCs:     Elided blocks (gridpoints):    162785 (  172506964).
MG BCs: Computational effort saved:  99.9793%.
MG BCs: Charge after coarse-graining:           -9.0010002.
MG DL_MG: Calling solver with defect correction order = 8
MG DL_MG: Solver finished
MG Hartree energy from (\int phi*rho dr):              1432.062749
MG Hartree energy from (\int eps (grad phi)^2 dr):     1431.407770
MG Discrepancy due to finite box and discretization:     -0.654980 (  -0.04574%)
MG Correction to account for finite box:                  0.472580
MG Remaining discrepancy, due to discretization:         -0.182400 (  -0.01274%)
      ideal mu1:      -0.780203373411
             Q0:  -11604.844369302853
             G0:      -0.108129351141
   RMS gradient:       0.000050174150
MG BCs: +ve charge blocks (gridpoints):     31121 (   17359514).
MG BCs: -ve charge blocks (gridpoints):      8346 (    1104299).
MG BCs:     Elided blocks (gridpoints):    162787 (  172506812).
MG BCs: Computational effort saved:  99.9793%.
MG BCs: Charge after coarse-graining:           -9.0010001.
MG DL_MG: Calling solver with defect correction order = 8
MG DL_MG: Solver finished
MG Hartree energy from (\int phi*rho dr):              1432.444731
MG Hartree energy from (\int eps (grad phi)^2 dr):     1431.789609
MG Discrepancy due to finite box and discretization:     -0.655122 (  -0.04573%)
MG Correction to account for finite box:                  0.472576
MG Remaining discrepancy, due to discretization:         -0.182546 (  -0.01274%)
     Trial step:       0.461297142793
             Q1:  -11604.871129860170
 Quadratic coef:       0.023119203415
 Linear coef   :      -0.049879760733
           Qmin:  -11604.871273241606
Quadratic minimum step length (  0.497625084570) accepted
    Initial Ne1:    7227.99999755
      Final Ne1:    7228.00000000

=================== Penalty functional idempotency correction ==================
 RMS occupancy error at iteration   1:  0.000070 (step -0.4997 Ne1=   7228.0000)
            Final RMS occupancy error   :  0.000000 (Ne1=   7228.0000)
               Final occupancy bounds   : [ -0.0000,  1.0000]
================================================================================

    5        -1.160484436930E+04     5.0174E-05     4.5391E-05    -1.0445E-01
MG BCs: +ve charge blocks (gridpoints):     31121 (   17359552).
MG BCs: -ve charge blocks (gridpoints):      8346 (    1104275).
MG BCs:     Elided blocks (gridpoints):    162787 (  172506798).
MG BCs: Computational effort saved:  99.9793%.
MG BCs: Charge after coarse-graining:           -9.0010001.
MG DL_MG: Calling solver with defect correction order = 8
MG DL_MG: Solver finished
MG Hartree energy from (\int phi*rho dr):              1432.474819
MG Hartree energy from (\int eps (grad phi)^2 dr):     1431.819687
MG Discrepancy due to finite box and discretization:     -0.655133 (  -0.04573%)
MG Correction to account for finite box:                  0.472575
MG Remaining discrepancy, due to discretization:         -0.182558 (  -0.01274%)
      ideal mu1:      -0.780163065734
             Q0:  -11604.871330354479
             G0:      -0.031217596692
   RMS gradient:       0.000026983270
MG BCs: +ve charge blocks (gridpoints):     31119 (   17359066).
MG BCs: -ve charge blocks (gridpoints):      8347 (    1104469).
MG BCs:     Elided blocks (gridpoints):    162789 (  172507090).
MG BCs: Computational effort saved:  99.9793%.
MG BCs: Charge after coarse-graining:           -9.0010001.
MG DL_MG: Calling solver with defect correction order = 8
MG DL_MG: Solver finished
MG Hartree energy from (\int phi*rho dr):              1431.846523
MG Hartree energy from (\int eps (grad phi)^2 dr):     1431.191394
MG Discrepancy due to finite box and discretization:     -0.655129 (  -0.04575%)
MG Correction to account for finite box:                  0.472574
MG Remaining discrepancy, due to discretization:         -0.182555 (  -0.01275%)
     Trial step:       0.479116926954
             Q1:  -11604.880970488652
 Quadratic coef:       0.005316744822
 Linear coef   :      -0.014956878994
           Qmin:  -11604.881849395581
Quadratic minimum step length (  0.673917419405) accepted
    Initial Ne1:    7228.00033449
      Final Ne1:    7228.00000000

=================== Penalty functional idempotency correction ==================
 RMS occupancy error at iteration   1:  0.000038 (step -0.4998 Ne1=   7228.0000)
            Final RMS occupancy error   :  0.000000 (Ne1=   7228.0000)
               Final occupancy bounds   : [ -0.0000,  1.0000]
================================================================================

    6        -1.160487133035E+04     2.6983E-05     2.4411E-05    -2.6961E-02
MG BCs: +ve charge blocks (gridpoints):     31118 (   17358859).
MG BCs: -ve charge blocks (gridpoints):      8348 (    1104564).
MG BCs:     Elided blocks (gridpoints):    162790 (  172507202).
MG BCs: Computational effort saved:  99.9793%.
MG BCs: Charge after coarse-graining:           -9.0010001.
MG DL_MG: Calling solver with defect correction order = 8
MG DL_MG: Solver finished
MG Hartree energy from (\int phi*rho dr):              1431.590495
MG Hartree energy from (\int eps (grad phi)^2 dr):     1430.935368
MG Discrepancy due to finite box and discretization:     -0.655127 (  -0.04576%)
MG Correction to account for finite box:                  0.472574
MG Remaining discrepancy, due to discretization:         -0.182553 (  -0.01275%)
      ideal mu1:      -0.779943503825
             Q0:  -11604.881859466666
             G0:      -0.015789361149
   RMS gradient:       0.000019216352
MG BCs: +ve charge blocks (gridpoints):     31120 (   17359356).
MG BCs: -ve charge blocks (gridpoints):      8346 (    1104313).
MG BCs:     Elided blocks (gridpoints):    162788 (  172506956).
MG BCs: Computational effort saved:  99.9793%.
MG BCs: Charge after coarse-graining:           -9.0010002.
MG DL_MG: Calling solver with defect correction order = 8
MG DL_MG: Solver finished
MG Hartree energy from (\int phi*rho dr):              1432.157908
MG Hartree energy from (\int eps (grad phi)^2 dr):     1431.502821
MG Discrepancy due to finite box and discretization:     -0.655087 (  -0.04574%)
MG Correction to account for finite box:                  0.472557
MG Remaining discrepancy, due to discretization:         -0.182530 (  -0.01275%)
     Trial step:       0.568229920900
             Q1:  -11604.885740935802
 Quadratic coef:       0.005090518300
 Linear coef   :      -0.008971987437
           Qmin:  -11604.885812726130
Quadratic minimum step length (  0.500749767631) accepted
    Initial Ne1:    7228.00012007
      Final Ne1:    7228.00000000

=================== Penalty functional idempotency correction ==================
 RMS occupancy error at iteration   1:  0.000002 (step -0.5000 Ne1=   7228.0000)
            Final RMS occupancy error   :  0.000000 (Ne1=   7228.0000)
               Final occupancy bounds   : [  0.0000,  1.0000]
================================================================================

    7        -1.160488185947E+04     1.9216E-05     1.7385E-05    -1.0529E-02
MG BCs: +ve charge blocks (gridpoints):     31120 (   17359295).
MG BCs: -ve charge blocks (gridpoints):      8346 (    1104334).
MG BCs:     Elided blocks (gridpoints):    162788 (  172506996).
MG BCs: Computational effort saved:  99.9793%.
MG BCs: Charge after coarse-graining:           -9.0010002.
MG DL_MG: Calling solver with defect correction order = 8
MG DL_MG: Solver finished
MG Hartree energy from (\int phi*rho dr):              1432.090409
MG Hartree energy from (\int eps (grad phi)^2 dr):     1431.435317
MG Discrepancy due to finite box and discretization:     -0.655092 (  -0.04574%)
MG Correction to account for finite box:                  0.472559
MG Remaining discrepancy, due to discretization:         -0.182533 (  -0.01275%)
      ideal mu1:      -0.780248817594
             Q0:  -11604.885812910157
             G0:      -0.009057520010
   RMS gradient:       0.000014555061
MG BCs: +ve charge blocks (gridpoints):     31121 (   17359386).
MG BCs: -ve charge blocks (gridpoints):      8346 (    1104316).
MG BCs:     Elided blocks (gridpoints):    162787 (  172506923).
MG BCs: Computational effort saved:  99.9793%.
MG BCs: Charge after coarse-graining:           -9.0010002.
MG DL_MG: Calling solver with defect correction order = 8
MG DL_MG: Solver finished
MG Hartree energy from (\int phi*rho dr):              1432.171933
MG Hartree energy from (\int eps (grad phi)^2 dr):     1431.516878
MG Discrepancy due to finite box and discretization:     -0.655055 (  -0.04574%)
MG Correction to account for finite box:                  0.472549
MG Remaining discrepancy, due to discretization:         -0.182506 (  -0.01274%)
     Trial step:       0.533423847284
             Q1:  -11604.889419871848
 Quadratic coef:       0.001224535479
 Linear coef   :      -0.004831497171
           Qmin:  -11604.890578669359
Quadratic minimum step length (  1.052332028251) accepted
    Initial Ne1:    7228.00014379
      Final Ne1:    7228.00000000

=================== Penalty functional idempotency correction ==================
 RMS occupancy error at iteration   1:  0.000024 (step -0.4993 Ne1=   7228.0000)
            Final RMS occupancy error   :  0.000000 (Ne1=   7228.0000)
               Final occupancy bounds   : [ -0.0000,  1.0000]
================================================================================

    8        -1.160488581291E+04     1.4555E-05     1.3168E-05    -3.9534E-03
MG BCs: +ve charge blocks (gridpoints):     31121 (   17359475).
MG BCs: -ve charge blocks (gridpoints):      8346 (    1104278).
MG BCs:     Elided blocks (gridpoints):    162787 (  172506872).
MG BCs: Computational effort saved:  99.9793%.
MG BCs: Charge after coarse-graining:           -9.0010002.
MG DL_MG: Calling solver with defect correction order = 8
MG DL_MG: Solver finished
MG Hartree energy from (\int phi*rho dr):              1432.249517
MG Hartree energy from (\int eps (grad phi)^2 dr):     1431.594499
MG Discrepancy due to finite box and discretization:     -0.655018 (  -0.04573%)
MG Correction to account for finite box:                  0.472539
MG Remaining discrepancy, due to discretization:         -0.182479 (  -0.01274%)
      ideal mu1:      -0.780333341158
             Q0:  -11604.890567170340
             G0:      -0.013047050649
   RMS gradient:       0.000017508920
MG BCs: +ve charge blocks (gridpoints):     31120 (   17359275).
MG BCs: -ve charge blocks (gridpoints):      8347 (    1104426).
MG BCs:     Elided blocks (gridpoints):    162788 (  172506924).
MG BCs: Computational effort saved:  99.9793%.
MG BCs: Charge after coarse-graining:           -9.0010002.
MG DL_MG: Calling solver with defect correction order = 8
MG DL_MG: Solver finished
MG Hartree energy from (\int phi*rho dr):              1431.923608
MG Hartree energy from (\int eps (grad phi)^2 dr):     1431.268656
MG Discrepancy due to finite box and discretization:     -0.654952 (  -0.04574%)
MG Correction to account for finite box:                  0.472516
MG Remaining discrepancy, due to discretization:         -0.182436 (  -0.01274%)
     Trial step:       0.749225599623
             Q1:  -11604.896770290681
 Quadratic coef:       0.003572064004
 Linear coef   :      -0.009775184346
           Qmin:  -11604.897254776502
Quadratic minimum step length (  1.025152173092) accepted
    Initial Ne1:    7228.00043348
      Final Ne1:    7228.00000000

=================== Penalty functional idempotency correction ==================
 RMS occupancy error at iteration   1:  0.000134 (step -0.4958 Ne1=   7228.0000)
 RMS occupancy error at iteration   2:  0.000000 (step -0.5000 Ne1=   7228.0000)
            Final RMS occupancy error   :  0.000000 (Ne1=   7228.0000)
               Final occupancy bounds   : [  0.0000,  1.0000]
================================================================================

    9        -1.160489056717E+04     1.7509E-05     1.5840E-05    -4.7543E-03
MG BCs: +ve charge blocks (gridpoints):     31120 (   17359222).
MG BCs: -ve charge blocks (gridpoints):      8347 (    1104482).
MG BCs:     Elided blocks (gridpoints):    162788 (  172506921).
MG BCs: Computational effort saved:  99.9793%.
MG BCs: Charge after coarse-graining:           -9.0010002.
MG DL_MG: Calling solver with defect correction order = 8
MG DL_MG: Solver finished
MG Hartree energy from (\int phi*rho dr):              1431.800278
MG Hartree energy from (\int eps (grad phi)^2 dr):     1431.145353
MG Discrepancy due to finite box and discretization:     -0.654925 (  -0.04574%)
MG Correction to account for finite box:                  0.472505
MG Remaining discrepancy, due to discretization:         -0.182420 (  -0.01274%)
      ideal mu1:      -0.780016558121
   10        -1.160489719614E+04     2.0189E-05     1.8265E-05    -6.6290E-03
Finished density kernel iterations (  10)

Writing density kernel to file "complex_33921.vacuum_dkn" ... done


>>> Density kernel optimised for the current NGWF basis:
     ~~~~~~~~~~~~~~~~~~~~~~~~~~~~~~~~~~~~~~~~~~~~~~~~~~~~~~~~~~~
     Total energy                =  -1.16048971961437E+04  Eh
     Estimated bandgap           =  -2.8198E-01  Eh
     RMS occupancy error         =   1.2424E-11
     [H,K] commutator            =   1.8265E-05
     Occupancy bounds            = [  0.000:  1.000]
     ~~~~~~~~~~~~~~~~~~~~~~~~~~~~~~~~~~~~~~~~~~~~~~~~~~~~~~~~~~~




################################################################################
########################### NGWF CG iteration  001 #############################
################################################################################
****** Reciprocal space K.E. preconditioning with k_zero =  3.5000 a0^-1 *******

>>> Checking for convergence of NGWFs:   NOT CONVERGED
  ========================================================================
         NGWF RMS gradient =  1.5986E-03 >  2.0000E-06  | above tolerance
  ========================================================================

>>> Improving NGWFs using line search:
============ Calculation of NGWF S^-1 using Hotelling algorithm ================ 
         Iteration  |  Frobenius norm and Maximum abs value    (of I-S*S_n^-1)   
               1       0.19905177E+00     0.49145528E-02
               2       0.90688655E-03     0.39494214E-04
               3       0.31448868E-07     0.26406807E-08
               4       0.12426752E-12     0.76605389E-14
================================================================================
MG BCs: +ve charge blocks (gridpoints):     30646 (   17301310).
MG BCs: -ve charge blocks (gridpoints):      8368 (    1104091).
MG BCs:     Elided blocks (gridpoints):    163260 (  172565224).
MG BCs: Computational effort saved:  99.9796%.
MG BCs: Charge after coarse-graining:           -9.0010014.
MG DL_MG: Calling solver with defect correction order = 8
MG DL_MG: Solver finished
MG Hartree energy from (\int phi*rho dr):              1399.514374
MG Hartree energy from (\int eps (grad phi)^2 dr):     1398.860253
MG Discrepancy due to finite box and discretization:     -0.654121 (  -0.04674%)
MG Correction to account for finite box:                  0.472446
MG Remaining discrepancy, due to discretization:         -0.181675 (  -0.01298%)
============ Calculation of NGWF S^-1 using Hotelling algorithm ================ 
         Iteration  |  Frobenius norm and Maximum abs value    (of I-S*S_n^-1)   
               1       0.18774472E+01     0.40046025E-01
               2       0.72907499E-01     0.24101284E-02
               3       0.14597612E-03     0.99975204E-05
               4       0.10681831E-08     0.17823021E-09
               5       0.11129428E-12     0.53290705E-14
================================================================================
------------------------------- NGWF line search -------------------------------
RMS gradient                =       0.00159862845355
Trial step length           =               0.122474
Gradient along search dir.  =       -280.55577552130
Functional at step 0        =  -11604.89719614374917
Functional at step 1        =  -11636.63726823835168
Functional predicted        =  -11717.52019674941039
Selected quadratic step     =               0.802856
--------------------------- NGWF line search finished --------------------------
                                               
Writing NGWFs to file "complex_33921.vacuum_tightbox_ngwfs"....  done

>>> Optimising kernel for current NGWFs:
   Initial electron number for spin 1:    7263.71467406
     Final electron number for spin 1:    7228.00000000

=================== Penalty functional idempotency correction ==================
 RMS occupancy error at iteration   1:  0.004292 (step -0.4861 Ne1=   7228.0000)
 RMS occupancy error at iteration   2:  0.000070 (step -0.5003 Ne1=   7228.0000)
            Final RMS occupancy error   :  0.000000 (Ne1=   7228.0000)
               Final occupancy bounds   : [  0.0000,  1.0000]
================================================================================

................................................................................
<<<<<<<<<<<<<< LNV (Original version) density kernel optimisation >>>>>>>>>>>>>>
~~~~~~~~~~~~~~~~~~~~~~~~~~~~~~~~~~~~~~~~~~~~~~~~~~~~~~~~~~~~~~~~~~~~~~~~~~~~~~~~
   iter  |      energy (Eh)       | rms gradient |  commutator  |   dE (Eh)
MG BCs: +ve charge blocks (gridpoints):     24767 (   17046703).
MG BCs: -ve charge blocks (gridpoints):      8505 (    1085875).
MG BCs:     Elided blocks (gridpoints):    169147 (  172838047).
MG BCs: Computational effort saved:  99.9826%.
MG BCs: Charge after coarse-graining:           -9.0006763.
MG DL_MG: Calling solver with defect correction order = 8
MG DL_MG: Solver finished
MG Hartree energy from (\int phi*rho dr):              1243.205954
MG Hartree energy from (\int eps (grad phi)^2 dr):     1242.551811
MG Discrepancy due to finite box and discretization:     -0.654143 (  -0.05262%)
MG Correction to account for finite box:                  0.472160
MG Remaining discrepancy, due to discretization:         -0.181983 (  -0.01464%)
      ideal mu1:      -0.718491746821
             Q0:  -11716.552400475484
             G0:      -9.888028891954
   RMS gradient:       0.000480887542
MG BCs: +ve charge blocks (gridpoints):     24858 (   17077173).
MG BCs: -ve charge blocks (gridpoints):      8473 (    1077284).
MG BCs:     Elided blocks (gridpoints):    169056 (  172816168).
MG BCs: Computational effort saved:  99.9825%.
MG BCs: Charge after coarse-graining:           -9.0006691.
MG DL_MG: Calling solver with defect correction order = 8
MG DL_MG: Solver finished
MG Hartree energy from (\int phi*rho dr):              1269.064296
MG Hartree energy from (\int eps (grad phi)^2 dr):     1268.403331
MG Discrepancy due to finite box and discretization:     -0.660965 (  -0.05208%)
MG Correction to account for finite box:                  0.471984
MG Remaining discrepancy, due to discretization:         -0.188981 (  -0.01489%)
     Trial step:       0.876396172738
             Q1:  -11713.778821354033
 Quadratic coef:      11.439409798280
 Linear coef   :      -8.665830676830
           Qmin:  -11718.193582639680
Quadratic minimum step length (  0.331953351296) accepted
    Initial Ne1:    7227.99956973
      Final Ne1:    7228.00000000

=================== Penalty functional idempotency correction ==================
 RMS occupancy error at iteration   1:  0.000359 (step -0.4986 Ne1=   7228.0000)
 RMS occupancy error at iteration   2:  0.000000 (step -0.5000 Ne1=   7228.0000)
            Final RMS occupancy error   :  0.000000 (Ne1=   7228.0000)
               Final occupancy bounds   : [  0.0000,  1.0000]
================================================================================

    1        -1.171655240048E+04     4.8089E-04     4.3505E-04
MG BCs: +ve charge blocks (gridpoints):     24810 (   17058369).
MG BCs: -ve charge blocks (gridpoints):      8495 (    1082602).
MG BCs:     Elided blocks (gridpoints):    169104 (  172829654).
MG BCs: Computational effort saved:  99.9826%.
MG BCs: Charge after coarse-graining:           -9.0006736.
MG DL_MG: Calling solver with defect correction order = 8
MG DL_MG: Solver finished
MG Hartree energy from (\int phi*rho dr):              1251.664545
MG Hartree energy from (\int eps (grad phi)^2 dr):     1251.007952
MG Discrepancy due to finite box and discretization:     -0.656594 (  -0.05246%)
MG Correction to account for finite box:                  0.472068
MG Remaining discrepancy, due to discretization:         -0.184525 (  -0.01474%)
      ideal mu1:      -0.726604440502
             Q0:  -11718.155683842953
             G0:      -0.998304226293
   RMS gradient:       0.000154044091
MG BCs: +ve charge blocks (gridpoints):     24818 (   17059555).
MG BCs: -ve charge blocks (gridpoints):      8500 (    1082997).
MG BCs:     Elided blocks (gridpoints):    169096 (  172828073).
MG BCs: Computational effort saved:  99.9826%.
MG BCs: Charge after coarse-graining:           -9.0006733.
MG DL_MG: Calling solver with defect correction order = 8
MG DL_MG: Solver finished
MG Hartree energy from (\int phi*rho dr):              1253.606304
MG Hartree energy from (\int eps (grad phi)^2 dr):     1252.949396
MG Discrepancy due to finite box and discretization:     -0.656908 (  -0.05240%)
MG Correction to account for finite box:                  0.472078
MG Remaining discrepancy, due to discretization:         -0.184830 (  -0.01474%)
     Trial step:       0.539372456289
             Q1:  -11718.352406201768
 Quadratic coef:       0.341735443844
 Linear coef   :      -0.538457802659
           Qmin:  -11718.367790028065
Quadratic minimum step length (  0.424932960364) accepted
    Initial Ne1:    7227.99994347
      Final Ne1:    7228.00000000

=================== Penalty functional idempotency correction ==================
 RMS occupancy error at iteration   1:  0.000144 (step -0.4994 Ne1=   7228.0000)
            Final RMS occupancy error   :  0.000000 (Ne1=   7228.0000)
               Final occupancy bounds   : [ -0.0000,  1.0000]
================================================================================

    2        -1.171815568384E+04     1.5404E-04     1.3936E-04    -1.6033E+00
MG BCs: +ve charge blocks (gridpoints):     24818 (   17059374).
MG BCs: -ve charge blocks (gridpoints):      8500 (    1082892).
MG BCs:     Elided blocks (gridpoints):    169096 (  172828359).
MG BCs: Computational effort saved:  99.9826%.
MG BCs: Charge after coarse-graining:           -9.0006733.
MG DL_MG: Calling solver with defect correction order = 8
MG DL_MG: Solver finished
MG Hartree energy from (\int phi*rho dr):              1253.193421
MG Hartree energy from (\int eps (grad phi)^2 dr):     1252.536582
MG Discrepancy due to finite box and discretization:     -0.656838 (  -0.05241%)
MG Correction to account for finite box:                  0.472076
MG Remaining discrepancy, due to discretization:         -0.184762 (  -0.01474%)
      ideal mu1:      -0.727992692290
             Q0:  -11718.368292559753
             G0:      -0.155896992449
   RMS gradient:       0.000060314284
MG BCs: +ve charge blocks (gridpoints):     24816 (   17058255).
MG BCs: -ve charge blocks (gridpoints):      8503 (    1083407).
MG BCs:     Elided blocks (gridpoints):    169098 (  172828963).
MG BCs: Computational effort saved:  99.9826%.
MG BCs: Charge after coarse-graining:           -9.0006735.
MG DL_MG: Calling solver with defect correction order = 8
MG DL_MG: Solver finished
MG Hartree energy from (\int phi*rho dr):              1252.564378
MG Hartree energy from (\int eps (grad phi)^2 dr):     1251.907583
MG Discrepancy due to finite box and discretization:     -0.656795 (  -0.05244%)
MG Correction to account for finite box:                  0.472070
MG Remaining discrepancy, due to discretization:         -0.184725 (  -0.01475%)
     Trial step:       0.478745375528
             Q1:  -11718.416357476497
 Quadratic coef:       0.026570047450
 Linear coef   :      -0.074634964194
           Qmin:  -11718.420704753320
Quadratic minimum step length (  0.672395185358) accepted
    Initial Ne1:    7228.00064382
      Final Ne1:    7228.00000000

=================== Penalty functional idempotency correction ==================
 RMS occupancy error at iteration   1:  0.000067 (step -0.4998 Ne1=   7228.0000)
            Final RMS occupancy error   :  0.000000 (Ne1=   7228.0000)
               Final occupancy bounds   : [ -0.0000,  1.0000]
================================================================================

    3        -1.171836829256E+04     6.0314E-05     5.4565E-05    -2.1261E-01
MG BCs: +ve charge blocks (gridpoints):     24816 (   17057803).
MG BCs: -ve charge blocks (gridpoints):      8504 (    1083607).
MG BCs:     Elided blocks (gridpoints):    169098 (  172829215).
MG BCs: Computational effort saved:  99.9826%.
MG BCs: Charge after coarse-graining:           -9.0006735.
MG DL_MG: Calling solver with defect correction order = 8
MG DL_MG: Solver finished
MG Hartree energy from (\int phi*rho dr):              1252.309839
MG Hartree energy from (\int eps (grad phi)^2 dr):     1251.653062
MG Discrepancy due to finite box and discretization:     -0.656778 (  -0.05245%)
MG Correction to account for finite box:                  0.472067
MG Remaining discrepancy, due to discretization:         -0.184710 (  -0.01475%)
      ideal mu1:      -0.726862989580
             Q0:  -11718.420806880342
             G0:      -0.036147007925
   RMS gradient:       0.000029030716
MG BCs: +ve charge blocks (gridpoints):     24813 (   17057814).
MG BCs: -ve charge blocks (gridpoints):      8503 (    1083621).
MG BCs:     Elided blocks (gridpoints):    169101 (  172829190).
MG BCs: Computational effort saved:  99.9826%.
MG BCs: Charge after coarse-graining:           -9.0006735.
MG DL_MG: Calling solver with defect correction order = 8
MG DL_MG: Solver finished
MG Hartree energy from (\int phi*rho dr):              1252.423774
MG Hartree energy from (\int eps (grad phi)^2 dr):     1251.767106
MG Discrepancy due to finite box and discretization:     -0.656667 (  -0.05243%)
MG Correction to account for finite box:                  0.472065
MG Remaining discrepancy, due to discretization:         -0.184602 (  -0.01474%)
     Trial step:       0.567367681065
             Q1:  -11718.429808326066
 Quadratic coef:       0.011507198340
 Linear coef   :      -0.020508644064
           Qmin:  -11718.429944736250
Quadratic minimum step length (  0.505594041247) accepted
    Initial Ne1:    7228.00024534
      Final Ne1:    7228.00000000

=================== Penalty functional idempotency correction ==================
 RMS occupancy error at iteration   1:  0.000018 (step -0.4999 Ne1=   7228.0000)
            Final RMS occupancy error   :  0.000000 (Ne1=   7228.0000)
               Final occupancy bounds   : [ -0.0000,  1.0000]
================================================================================

    4        -1.171842080688E+04     2.9031E-05     2.6263E-05    -5.2514E-02
MG BCs: +ve charge blocks (gridpoints):     24814 (   17057827).
MG BCs: -ve charge blocks (gridpoints):      8503 (    1083615).
MG BCs:     Elided blocks (gridpoints):    169100 (  172829183).
MG BCs: Computational effort saved:  99.9826%.
MG BCs: Charge after coarse-graining:           -9.0006735.
MG DL_MG: Calling solver with defect correction order = 8
MG DL_MG: Solver finished
MG Hartree energy from (\int phi*rho dr):              1252.411183
MG Hartree energy from (\int eps (grad phi)^2 dr):     1251.754504
MG Discrepancy due to finite box and discretization:     -0.656679 (  -0.05243%)
MG Correction to account for finite box:                  0.472065
MG Remaining discrepancy, due to discretization:         -0.184614 (  -0.01474%)
      ideal mu1:      -0.726952962963
             Q0:  -11718.429949949495
             G0:      -0.012171330851
   RMS gradient:       0.000016868031
MG BCs: +ve charge blocks (gridpoints):     24814 (   17058390).
MG BCs: -ve charge blocks (gridpoints):      8502 (    1083388).
MG BCs:     Elided blocks (gridpoints):    169100 (  172828847).
MG BCs: Computational effort saved:  99.9826%.
MG BCs: Charge after coarse-graining:           -9.0006734.
MG DL_MG: Calling solver with defect correction order = 8
MG DL_MG: Solver finished
MG Hartree energy from (\int phi*rho dr):              1252.820601
MG Hartree energy from (\int eps (grad phi)^2 dr):     1252.163966
MG Discrepancy due to finite box and discretization:     -0.656635 (  -0.05241%)
MG Correction to account for finite box:                  0.472056
MG Remaining discrepancy, due to discretization:         -0.184579 (  -0.01473%)
     Trial step:       0.535590999497
             Q1:  -11718.433343838435
 Quadratic coef:       0.003124966317
 Linear coef   :      -0.006518855256
           Qmin:  -11718.433349624047
Quadratic minimum step length (  0.558636453603) accepted
    Initial Ne1:    7228.00010593
      Final Ne1:    7228.00000000

=================== Penalty functional idempotency correction ==================
 RMS occupancy error at iteration   1:  0.000010 (step -0.5000 Ne1=   7228.0000)
            Final RMS occupancy error   :  0.000000 (Ne1=   7228.0000)
               Final occupancy bounds   : [ -0.0000,  1.0000]
================================================================================

    5        -1.171842994995E+04     1.6868E-05     1.5260E-05    -9.1431E-03
MG BCs: +ve charge blocks (gridpoints):     24814 (   17058426).
MG BCs: -ve charge blocks (gridpoints):      8502 (    1083375).
MG BCs:     Elided blocks (gridpoints):    169100 (  172828824).
MG BCs: Computational effort saved:  99.9826%.
MG BCs: Charge after coarse-graining:           -9.0006734.
MG DL_MG: Calling solver with defect correction order = 8
MG DL_MG: Solver finished
MG Hartree energy from (\int phi*rho dr):              1252.838238
MG Hartree energy from (\int eps (grad phi)^2 dr):     1252.181605
MG Discrepancy due to finite box and discretization:     -0.656633 (  -0.05241%)
MG Correction to account for finite box:                  0.472056
MG Remaining discrepancy, due to discretization:         -0.184577 (  -0.01473%)
      ideal mu1:      -0.727293774739
             Q0:  -11718.433350773412
             G0:      -0.003984637899
   RMS gradient:       0.000009651543
MG BCs: +ve charge blocks (gridpoints):     24814 (   17058302).
MG BCs: -ve charge blocks (gridpoints):      8502 (    1083448).
MG BCs:     Elided blocks (gridpoints):    169100 (  172828875).
MG BCs: Computational effort saved:  99.9826%.
MG BCs: Charge after coarse-graining:           -9.0006734.
MG DL_MG: Calling solver with defect correction order = 8
MG DL_MG: Solver finished
MG Hartree energy from (\int phi*rho dr):              1252.765763
MG Hartree energy from (\int eps (grad phi)^2 dr):     1252.109140
MG Discrepancy due to finite box and discretization:     -0.656624 (  -0.05241%)
MG Correction to account for finite box:                  0.472050
MG Remaining discrepancy, due to discretization:         -0.184573 (  -0.01473%)
     Trial step:       0.546992373385
             Q1:  -11718.434734428651
 Quadratic coef:       0.000795911303
 Linear coef   :      -0.002179566541
           Qmin:  -11718.434842934124
Quadratic minimum step length (  0.748956743850) accepted
    Initial Ne1:    7228.00005674
      Final Ne1:    7228.00000000

=================== Penalty functional idempotency correction ==================
 RMS occupancy error at iteration   1:  0.000007 (step -0.4999 Ne1=   7228.0000)
            Final RMS occupancy error   :  0.000000 (Ne1=   7228.0000)
               Final occupancy bounds   : [ -0.0000,  1.0000]
================================================================================

    6        -1.171843335077E+04     9.6515E-06     8.7315E-06    -3.4008E-03
MG BCs: +ve charge blocks (gridpoints):     24814 (   17058264).
MG BCs: -ve charge blocks (gridpoints):      8502 (    1083472).
MG BCs:     Elided blocks (gridpoints):    169100 (  172828889).
MG BCs: Computational effort saved:  99.9826%.
MG BCs: Charge after coarse-graining:           -9.0006734.
MG DL_MG: Calling solver with defect correction order = 8
MG DL_MG: Solver finished
MG Hartree energy from (\int phi*rho dr):              1252.738956
MG Hartree energy from (\int eps (grad phi)^2 dr):     1252.082336
MG Discrepancy due to finite box and discretization:     -0.656620 (  -0.05241%)
MG Correction to account for finite box:                  0.472048
MG Remaining discrepancy, due to discretization:         -0.184572 (  -0.01473%)
      ideal mu1:      -0.727225725057
             Q0:  -11718.434842886520
             G0:      -0.002635029461
   RMS gradient:       0.000007850212
MG BCs: +ve charge blocks (gridpoints):     24814 (   17058163).
MG BCs: -ve charge blocks (gridpoints):      8503 (    1083483).
MG BCs:     Elided blocks (gridpoints):    169100 (  172828979).
MG BCs: Computational effort saved:  99.9826%.
MG BCs: Charge after coarse-graining:           -9.0006734.
MG DL_MG: Calling solver with defect correction order = 8
MG DL_MG: Solver finished
MG Hartree energy from (\int phi*rho dr):              1252.669085
MG Hartree energy from (\int eps (grad phi)^2 dr):     1252.012453
MG Discrepancy due to finite box and discretization:     -0.656633 (  -0.05242%)
MG Correction to account for finite box:                  0.472053
MG Remaining discrepancy, due to discretization:         -0.184580 (  -0.01473%)
     Trial step:       0.640057518416
             Q1:  -11718.435405549593
 Quadratic coef:       0.001123907345
 Linear coef   :      -0.001686570418
           Qmin:  -11718.435475616563
Quadratic minimum step length (  0.480245138268) accepted
    Initial Ne1:    7228.00001410
      Final Ne1:    7228.00000000

=================== Penalty functional idempotency correction ==================
 RMS occupancy error at iteration   1:  0.000001 (step -0.5000 Ne1=   7228.0000)
            Final RMS occupancy error   :  0.000000 (Ne1=   7228.0000)
               Final occupancy bounds   : [  0.0000,  1.0000]
================================================================================

    7        -1.171843484289E+04     7.8502E-06     7.1019E-06    -1.4921E-03
MG BCs: +ve charge blocks (gridpoints):     24814 (   17058195).
MG BCs: -ve charge blocks (gridpoints):      8503 (    1083473).
MG BCs:     Elided blocks (gridpoints):    169100 (  172828957).
MG BCs: Computational effort saved:  99.9826%.
MG BCs: Charge after coarse-graining:           -9.0006734.
MG DL_MG: Calling solver with defect correction order = 8
MG DL_MG: Solver finished
MG Hartree energy from (\int phi*rho dr):              1252.686467
MG Hartree energy from (\int eps (grad phi)^2 dr):     1252.029837
MG Discrepancy due to finite box and discretization:     -0.656629 (  -0.05242%)
MG Correction to account for finite box:                  0.472052
MG Remaining discrepancy, due to discretization:         -0.184578 (  -0.01473%)
      ideal mu1:      -0.727135663386
             Q0:  -11718.435475578997
             G0:      -0.001778324618
   RMS gradient:       0.000006448869
MG BCs: +ve charge blocks (gridpoints):     24814 (   17058146).
MG BCs: -ve charge blocks (gridpoints):      8503 (    1083498).
MG BCs:     Elided blocks (gridpoints):    169100 (  172828981).
MG BCs: Computational effort saved:  99.9826%.
MG BCs: Charge after coarse-graining:           -9.0006734.
MG DL_MG: Calling solver with defect correction order = 8
MG DL_MG: Solver finished
MG Hartree energy from (\int phi*rho dr):              1252.647194
MG Hartree energy from (\int eps (grad phi)^2 dr):     1251.990557
MG Discrepancy due to finite box and discretization:     -0.656636 (  -0.05242%)
MG Correction to account for finite box:                  0.472052
MG Remaining discrepancy, due to discretization:         -0.184585 (  -0.01474%)
     Trial step:       0.554422683006
             Q1:  -11718.436280686990
 Quadratic coef:       0.000180835514
 Linear coef   :      -0.000985943506
           Qmin:  -11718.436819458550
Quadratic minimum step length (  1.511399594022) accepted
    Initial Ne1:    7228.00002981
      Final Ne1:    7228.00000000

=================== Penalty functional idempotency correction ==================
 RMS occupancy error at iteration   1:  0.000020 (step -0.4991 Ne1=   7228.0000)
            Final RMS occupancy error   :  0.000000 (Ne1=   7228.0000)
               Final occupancy bounds   : [ -0.0000,  1.0000]
================================================================================

    8        -1.171843547558E+04     6.4489E-06     5.8341E-06    -6.3269E-04
MG BCs: +ve charge blocks (gridpoints):     24814 (   17058095).
[...]
MG Hartree energy from (\int phi*rho dr):              1209.075823
MG Hartree energy from (\int eps (grad phi)^2 dr):     1208.885703
MG Discrepancy due to finite box and discretization:     -0.190120 (  -0.01572%)
MG Correction to account for finite box:                  0.006486
MG Remaining discrepancy, due to discretization:         -0.183634 (  -0.01519%)
             Q2:  -11752.155443344847
  Cubic LS coeff:       1.083765076036
Predicted energy:  -11752.155443345058
Cubic minimum step length accepted
    Initial Ne1:    7228.00000000
      Final Ne1:    7228.00000000

=================== Penalty functional idempotency correction ==================
 RMS occupancy error at iteration   1:  0.000000 (step -0.5000 Ne1=   7228.0000)
            Final RMS occupancy error   :  0.000000 (Ne1=   7228.0000)
               Final occupancy bounds   : [  0.0000,  1.0000]
================================================================================

    7        -1.175215544334E+04     7.2970E-09     6.6014E-09    -1.1642E-09

Reusing previously generated solute cavity.
MG BCs: +ve charge blocks (gridpoints):     29002 (   19257329).
MG BCs: -ve charge blocks (gridpoints):      8478 (    1052584).
MG BCs:     Elided blocks (gridpoints):    164912 (  170660712).
MG BCs: Computational effort saved:  99.9804%.
MG BCs: Charge after coarse-graining:           -9.0009568.
MG DL_MG: Calling solver with defect correction order = 8
MG DL_MG: Solver finished
MG Hartree energy from (\int phi*rho dr):              1209.075818
MG Hartree energy from (\int eps (grad phi)^2 dr):     1208.885697
MG Discrepancy due to finite box and discretization:     -0.190120 (  -0.01572%)
MG Correction to account for finite box:                  0.006486
MG Remaining discrepancy, due to discretization:         -0.183634 (  -0.01519%)
      ideal mu1:      -0.484648134753
             Q0:  -11752.155443345080
             G0:      -0.000000002904
   RMS gradient:       0.000000007732

Reusing previously generated solute cavity.
MG BCs: +ve charge blocks (gridpoints):     29002 (   19257329).
MG BCs: -ve charge blocks (gridpoints):      8478 (    1052584).
MG BCs:     Elided blocks (gridpoints):    164912 (  170660712).
MG BCs: Computational effort saved:  99.9804%.
MG BCs: Charge after coarse-graining:           -9.0009568.
MG DL_MG: Calling solver with defect correction order = 8
MG DL_MG: Solver finished
MG Hartree energy from (\int phi*rho dr):              1209.075789
MG Hartree energy from (\int eps (grad phi)^2 dr):     1208.885669
MG Discrepancy due to finite box and discretization:     -0.190120 (  -0.01572%)
MG Correction to account for finite box:                  0.006486
MG Remaining discrepancy, due to discretization:         -0.183634 (  -0.01519%)
     Trial step:       0.672624144403
             Q1:  -11752.155443345429
 Quadratic coef:       0.000000001604
 Linear coef   :      -0.000000001953
           Qmin:  -11752.155443345675
Quadratic minimum step length (  0.409456261763) accepted
    Initial Ne1:    7228.00000000
      Final Ne1:    7228.00000000

=================== Penalty functional idempotency correction ==================
 RMS occupancy error at iteration   1:  0.000000 (step -0.5000 Ne1=   7228.0000)
            Final RMS occupancy error   :  0.000000 (Ne1=   7228.0000)
               Final occupancy bounds   : [  0.0000,  1.0000]
================================================================================

    8        -1.175215544335E+04     7.7322E-09     6.9952E-09    -2.4447E-09

Reusing previously generated solute cavity.
MG BCs: +ve charge blocks (gridpoints):     29002 (   19257329).
MG BCs: -ve charge blocks (gridpoints):      8478 (    1052584).
MG BCs:     Elided blocks (gridpoints):    164912 (  170660712).
MG BCs: Computational effort saved:  99.9804%.
MG BCs: Charge after coarse-graining:           -9.0009568.
MG DL_MG: Calling solver with defect correction order = 8
MG DL_MG: Solver finished
MG Hartree energy from (\int phi*rho dr):              1209.075800
MG Hartree energy from (\int eps (grad phi)^2 dr):     1208.885680
MG Discrepancy due to finite box and discretization:     -0.190120 (  -0.01572%)
MG Correction to account for finite box:                  0.006486
MG Remaining discrepancy, due to discretization:         -0.183634 (  -0.01519%)
      ideal mu1:      -0.484648111154
             Q0:  -11752.155443345546
             G0:      -0.000000001406
   RMS gradient:       0.000000004491

Reusing previously generated solute cavity.
MG BCs: +ve charge blocks (gridpoints):     29002 (   19257329).
MG BCs: -ve charge blocks (gridpoints):      8478 (    1052584).
MG BCs:     Elided blocks (gridpoints):    164912 (  170660712).
MG BCs: Computational effort saved:  99.9804%.
MG BCs: Charge after coarse-graining:           -9.0009568.
MG DL_MG: Calling solver with defect correction order = 8
MG DL_MG: Solver finished
MG Hartree energy from (\int phi*rho dr):              1209.075800
MG Hartree energy from (\int eps (grad phi)^2 dr):     1208.885680
MG Discrepancy due to finite box and discretization:     -0.190120 (  -0.01572%)
MG Correction to account for finite box:                  0.006486
MG Remaining discrepancy, due to discretization:         -0.183634 (  -0.01519%)
     Trial step:       0.524795357962
             Q1:  -11752.155443345313
 Quadratic coef:       0.000000000971
 Linear coef   :      -0.000000000738
           Qmin:  -11752.155443345686
Quadratic minimum step length (  0.199318636350) accepted
    Initial Ne1:    7228.00000000
      Final Ne1:    7228.00000000

=================== Penalty functional idempotency correction ==================
 RMS occupancy error at iteration   1:  0.000000 (step -0.5000 Ne1=   7228.0000)
            Final RMS occupancy error   :  0.000000 (Ne1=   7228.0000)
               Final occupancy bounds   : [ -0.0000,  1.0000]
================================================================================

    9        -1.175215544335E+04     4.4905E-09     4.0625E-09    -4.6566E-10

Reusing previously generated solute cavity.
MG BCs: +ve charge blocks (gridpoints):     29002 (   19257329).
MG BCs: -ve charge blocks (gridpoints):      8478 (    1052584).
MG BCs:     Elided blocks (gridpoints):    164912 (  170660712).
MG BCs: Computational effort saved:  99.9804%.
MG BCs: Charge after coarse-graining:           -9.0009568.
MG DL_MG: Calling solver with defect correction order = 8
MG DL_MG: Solver finished
MG Hartree energy from (\int phi*rho dr):              1209.075800
MG Hartree energy from (\int eps (grad phi)^2 dr):     1208.885680
MG Discrepancy due to finite box and discretization:     -0.190120 (  -0.01572%)
MG Correction to account for finite box:                  0.006486
MG Remaining discrepancy, due to discretization:         -0.183634 (  -0.01519%)
      ideal mu1:      -0.484648107304
   10        -1.175215544335E+04     3.4811E-09     3.1492E-09     0.0000E+00
Finished density kernel iterations (  10)

Writing density kernel to file "complex_33921.dkn" ... done


>>> Density kernel optimised for the current NGWF basis:
     ~~~~~~~~~~~~~~~~~~~~~~~~~~~~~~~~~~~~~~~~~~~~~~~~~~~~~~~~~~~
     Total energy                =  -1.17521554433455E+04  Eh
     Estimated bandgap           =   7.8480E-02  Eh
     RMS occupancy error         =   4.1238E-16
     [H,K] commutator            =   3.1492E-09
     Occupancy bounds            = [ -0.000:  1.000]
     ~~~~~~~~~~~~~~~~~~~~~~~~~~~~~~~~~~~~~~~~~~~~~~~~~~~~~~~~~~~




################################################################################
########################### NGWF CG iteration  004 #############################
################################################################################
****** Reciprocal space K.E. preconditioning with k_zero =  3.5000 a0^-1 *******

>>> Checking for convergence of NGWFs: 
           ........................................................
           |         *** NGWF optimisation converged ***          |
           | RMS NGWF gradient =    0.00000183754505              |
           | Criteria satisfied:                                  |
           | -> RMS NGWF gradient lower than set threshold.       |
           ========================================================

Reusing previously generated solute cavity.
MG BCs: +ve charge blocks (gridpoints):     29002 (   19257329).
MG BCs: -ve charge blocks (gridpoints):      8478 (    1052584).
MG BCs:     Elided blocks (gridpoints):    164912 (  170660712).
MG BCs: Computational effort saved:  99.9804%.
MG BCs: Charge after coarse-graining:           -9.0009568.
MG DL_MG: Calling solver with defect correction order = 8
MG DL_MG: Solver finished
MG Hartree energy from (\int phi*rho dr):              1209.075800
MG Hartree energy from (\int eps (grad phi)^2 dr):     1208.885680
MG Discrepancy due to finite box and discretization:     -0.190120 (  -0.01572%)
MG Correction to account for finite box:                  0.006486
MG Remaining discrepancy, due to discretization:         -0.183634 (  -0.01519%)

================================================================================
           ---------------- ENERGY COMPONENTS (Eh) ----------------
           | Kinetic                    :     8599.37186298963934 |
           | Pseudo. (local,OBC,corr'd) :    -5095.76096115600376 |
           | Pseudopotential (non-local):     1410.83279996763576 |
           | Hartree (molecular)        :     1209.07580022865818 |
           | Exchange-correlation       :    -3398.62465722808020 |
           | Ion-ion (open BC)          :   834180.51807424065191 |
           | Smeared ion non-self corr. :  -834132.22544542921241 |
           | Smeared ion self corr.     :   -14525.98710726666468 |
           | Solvent cavitation energy  :        2.29188048683643 |
           | Solute-solvent dis-rep en. :       -1.64769017899888 |
           | Total                      :   -11752.15544334564765 |
           --------------------------------------------------------
           ------ LOCAL ENERGY COMPONENTS FROM MATRIX TRACES ------
           | Pseudopotential (local)    :    -5095.76096115599557 |
           | Hartree                    :    -2009.84800082216520 |
           --------------------------------------------------------
           Integrated density           :     7227.99999999889042
           Integrated density tr(KS)    :     7228.00000000000000
================================================================================


                        <<<<< CALCULATION SUMMARY >>>>>                         
|ITER|    RMS GRADIENT   |     TOTAL ENERGY    |   step   |     Epredicted              
   0     0.00004060657989 -11752.08954209694639   0.630942 -11752.14664735674160        
   1     0.00000928092654 -11752.15501161955763   0.076244 -11752.15537210027469        
   2     0.00000411259777 -11752.15542841772549   0.014157 -11752.15544156040050        
   3     0.00000183754505 -11752.15544334554579  <-- CG                                 

=================== Finished the calculation in solvent ========================
= Adjusting the following parameters: 
= read_denskern: F
= read_tightbox_ngwfs: F
= maxit_pen: 0 (restored to user-specified value)
= restart read filename prefix: ""
= restart write filename prefix: ""
================================================================================

================================================================================
IS: Calculation in solvent completed (NGWFs converged).      

Individual components of total energy in solvent:     hartree           kcal/mol
- Usual non-electrostatic DFT terms:    -12961.87543388204176    -8133699.459925
- Electrostatic fixed charge energy:      1209.07580022865818      758706.503044
- Apolar cavitation energy:                  2.29188048683643        1438.176688
- Apolar dispersion-repulsion energy:       -1.64769017899888       -1033.941175
 -------------------------------------------------------------------------------
- Total energy in solvent:              -11752.15544334554579    -7374588.721369

Components of total energy in solvent:                hartree           kcal/mol
- Usual non-electrostatic DFT terms:    -12961.87543388204176    -8133699.459925
- Electrostatic energy:                   1209.07580022865818      758706.503044
- Apolar energy terms:                       0.64419030783755         404.235512
 -------------------------------------------------------------------------------
- Total energy in solvent:              -11752.15544334554579    -7374588.721369

Calculation of free energy of solvation:              hartree           kcal/mol
- Total energy in solvent:         (+)  -11752.15544334554579    -7374588.721369
- Total energy in vacuum:          (-)  -11748.28824451100081    -7372162.017515
 -------------------------------------------------------------------------------
- Total free energy of solvation:           -3.86719883454498       -2426.703854

Components of polar term in f.e. of solvation:        hartree           kcal/mol
- Electrostatic:                            -4.57477241984725       -2870.712973
- Change in nonelectrostatic DFT terms:      0.06338327746380          39.773606
 -------------------------------------------------------------------------------
- Polar term in f.e. of solvation:          -4.51138914238345       -2830.939367

Components of free energy of solvation:               hartree           kcal/mol
- Polar term in f.e. of solvation: (+)      -4.51138914238345       -2830.939367
- Apolar (cavitation, dis., rep.): (+)       0.64419030783755         404.235512
 -------------------------------------------------------------------------------
- Total free energy of solvation:           -3.86719883454590       -2426.703854
================================================================================


------------------------------ TIMING INFORMATION ------------------------------
AVERAGE TIME:   35066.217s on     60 node(s)                                    
TOTAL TIME:     35066.217s on     60 node(s)                                    
================= AVERAGE TIMINGS FROM ALL NODES (CUMULATIVE) ==================
|| TAG                                    #calls    cpu time   %total  Gflops ||
|| work_imbalance                       :     1        0.00s   0.000%  ------ ||
|| sparse_set_to_garbage                :   164        0.03s   0.000%  ------ ||
|| parallel_prepare_fd_halos_request    :  1827        0.03s   0.000%  ------ ||
|| ngwfs_initialise_from_radial         :     1        0.11s   0.000%  ------ ||
|| parallel_prepare_fd_halos_alloc      :  1827        0.14s   0.000%  ------ ||
|| basis_extract_function_from_box      :  3378        0.15s   0.000%  ------ ||
|| parallel_prepare_fd_halos_satisfy    :  1827        0.61s   0.002%  ------ ||
|| pseudopotentials_nonlocal_mat        :    28        2.38s   0.007%  ------ ||
|| openbc_locps_radial                  :     1        3.79s   0.011%  ------ ||
|| density_init_guess_real              :     1        5.07s   0.014%  ------ ||
|| restart_kernel_read                  :     1        5.77s   0.016%  ------ ||
|| restart_ngwfs_tightbox_input         :     1        9.29s   0.026%  ------ ||
|| parallel_prepare_fd_halos_comms_imbal:  1827        9.39s   0.027%  ------ ||
|| parallel_prepare_fd_halos_clear      :  1827       17.63s   0.050%  ------ ||
|| parallel_prepare_fd_halos_comms_wait :  1827       21.88s   0.062%  ------ ||
|| sparse_init                          :     2       22.63s   0.065%  ------ ||
|| projectors_func_ovlp_box             :    28       26.10s   0.074%  ------ ||
|| function_ops_brappd_ketppd           :    28       29.38s   0.084%  ------ ||
|| projectors_init_fftbox_recip         :   133       32.72s   0.093%  ------ ||
|| palser_mano_kernel_optimise          :     1       35.17s   0.100%  ------ ||
|| basis_copy_function_to_box           : 54818       42.21s   0.120%  ------ ||
|| ngwf_gradient_coeffs                 :    15       46.82s   0.134%  ------ ||
|| parallel_prepare_fd_halos            :  1827       49.70s   0.142%  ------ ||
|| fourier_apply_box_pair               :  4809       50.66s   0.144% 585.366 ||
|| pseudo_make_structure_factor         :     2       51.09s   0.146%  ------ ||
|| sparse_embed_hotelling_invert_embed  :    28       74.46s   0.212%  ------ ||
|| restart_kernel_write                 :    16       98.99s   0.282%  ------ ||
|| finite_difference_derivative         :  1827      128.23s   0.366%  ------ ||
|| integrals_kinetic                    :    28      148.54s   0.424%  ------ ||
|| projectors_gradient_batch            :   105      168.23s   0.480%  ------ ||
|| basis_dot_function_with_box          : 8.402M     168.77s   0.481%  ------ ||
|| sparse_trace                         :  4925      186.37s   0.531%  ------ ||
|| openbc_locps_on_grid                 :     2      262.03s   0.747%  ------ ||
|| kernel_purify                        :   464      281.45s   0.803%  ------ ||
|| basis_add_function_to_box            : 17.48M     396.32s   1.130%  ------ ||
|| lnv_gradient_norm                    :   150      412.30s   1.176%  ------ ||
|| kernel_fix                           :   150      476.22s   1.358%  ------ ||
|| hamiltonian_energy_components        :     4      566.56s   1.616%  ------ ||
|| ngwf_gradient_build_batch            :   105      741.51s   2.115%  ------ ||
|| integrals_locpot_mat_els_batch       :  1113      765.96s   2.184%  ------ ||
|| ngwf_gradient_batch                  :   105     1017.43s   2.901%  ------ ||
|| ngwf_gradient_lnv                    :    15     1142.40s   3.258%  ------ ||
|| density_batch_row_sums               :  2121     1161.93s   3.314%  ------ ||
|| cell_grid_deposit_box_real           : 34897     1366.34s   3.896%  ------ ||
|| fourier_apply_cell_forward           :  8513     1410.80s   4.023%  81.033 ||
|| fourier_apply_cell_backward          :  9123     1565.77s   4.465%  78.245 ||
|| cell_grid_extract_box_real           : 38277     1614.43s   4.604%  ------ ||
|| sparse_product                       :  6203     1724.07s   4.917%  ------ ||
|| restart_ngwfs_tightbox_output        :    13     1871.68s   5.338%  ------ ||
|| density_fftbox_deposit_to_cell       : 33027     2015.22s   5.747%  ------ ||
|| density_fftbox_interpolate_multiply  : 33027     3654.43s  10.422%  ------ ||
|| potential_apply_to_ngwf_batch        :  1113     3688.12s  10.518%  ------ ||
|| xc_energy_potential                  :   304     3850.65s  10.981%  ------ ||
|| multigrid_prepare_bound_cond         :   304     4365.65s  12.450%  ------ ||
|| integrals_locpot_dbl_grid            :   159     4472.96s  12.756%  ------ ||
|| fourier_apply_box                    : 114.6k    4495.29s  12.819% 762.241 ||
|| nlxc_vdw_energy                      :   608     6231.27s  17.770%  ------ ||
|| density_batch_interp_deposit         :  2121     6594.37s  18.805%  ------ ||
|| dl_mg_solver_calls                   :   304     7671.44s  21.877%  ------ ||
|| density_on_dbl_grid                  :   303     8058.73s  22.981%  ------ ||
|| multigrid_calculate_hartree          :   304    12208.93s  34.817%  ------ ||
|| hamiltonian_lhxc_calculate           :   299    23954.29s  68.312%  ------ ||
|| lnv_denskernel_optimise_cg           :    15    29082.40s  82.936%  ------ ||
|| ngwf_cg_optimise                     :     2    34087.74s  97.210%  ------ ||
|| total_time                           :     1    35066.22s 100.000%  ------ ||
================================================================================
Overhead of generating timer report: 
- 0 ms averaging over threads,
- 16 ms ensuring consistency across MPI ranks,
- 1 ms printing in order.

Job completed: 22-02-2020 19:23 (-0000)

Application 39155931 resources: utime ~6863489s, stime ~234482s, Rss ~3885148, inblocks ~311139577, outblocks ~63533859
