 +---------------------------------------------------------------+
 |                                                               |
 |        ####### #     # ####### ####### ####### ######         |
 |        #     # ##    # #          #    #       #     #        |
 |        #     # # #   # #          #    #       #     #        |
 |        #     # #  #  # #####      #    #####   ######         |
 |        #     # #   # # #          #    #       #              |
 |        #     # #    ## #          #    #       #              |
 |        ####### #     # #######    #    ####### #              |
 |                                                               |
 |        Linear-Scaling Ab Initio Total Energy Program          |
 |                                                               |
 |          Release for academic collaborators of ODG            |
 |                                             Version 5.3.2.6.  |
 |                                                               |
 +---------------------------------------------------------------+
 |                                                               |
 |  Authors:                                                     |
 |  Jacek Dziedzic, Peter D. Haynes, Nicholas D. M. Hine,        |
 |  Arash. A. Mostofi, Mike C. Payne and Chris-Kriton Skylaris   |
 |                                                               |
 |  Contributors:                                                |
 |  J. Aarons, L. Andrinopoulos, P. W. Avraam, R. A. Bell,       |
 |  A. Bhandari, G. A. Bramley, R. J. Charlton, S. J. Clark,     |
 |  R. J. Clements, G. C. Constantinescu, F. Corsetti,           |
 |  N. Corsini, O. Dieguez, S. M. M. Dubois, K. K. B. Duff,      |
 |  J. M. Escartin, A. Greco, H. Helal, Q. O. Hill, L. P. Lee,   |
 |  J.-H. Li, E. B. Linscott, G. Moynihan, D. D. O`Regan,        |
 |  O. K. Okan, M. J. S. Phipps, C. J. Pickard,                  |
 |  J. C. A. Prentice, M. I. J. Probert, L. E. Ratcliff,         |
 |  M. Robinson, A. Ruiz Serrano, J. S. Spencer, E. W. Tait,     |
 |  G. Teobaldi, D. Turban, V. Vitale, K. A. Wilkinson,          |
 |  C. Weber, J. C. Womack, N. Yeung and T. J. Zuehlsdorff       |
 |                                                               |
 |                                   Copyright (c) 2004-2019     |
 |                                                               |
 |  Please cite:                                                 |
 |  "Introducing ONETEP: Linear-scaling density functional       |
 |   simulations on parallel computers".                         |
 |   C.-K. Skylaris, P. D. Haynes, A. A. Mostofi, M. C. Payne.   |
 |   J. Chem. Phys. 122 084119 (2005).                           |
 |                                                               |
 |          in all publications arising from your use of ONETEP. |
 |                                                               |
 +---------------------------------------------------------------+
 |                                                               |
 |   ONETEP is based on developments described in the following  |
 |   publications:                                               |
 |                                                               |
 |  "Nonorthogonal generalized Wannier function pseudopotential  |
 |   plane-wave method".                                         |
 |   C.-K. Skylaris, A. A. Mostofi, P. D. Haynes, O. Dieguez,    |
 |   M. C. Payne.                                                |
 |   Phys. Rev. B 66 035119 (2002).                              |
 |                                                               |
 |  "Preconditioned iterative minimization for linear-scaling    |
 |   electronic structure calculations".                         |
 |   A. A. Mostofi, P. D. Haynes, C.-K. Skylaris, M. C. Payne.   |
 |   J. Chem. Phys. 119(17), pp.8842-8848 (2003).                |
 |                                                               |
 |  "Total-energy calculations on a real space grid with         |
 |   localized functions and a plane-wave basis".                |
 |   A. A. Mostofi, C.-K. Skylaris, P. D. Haynes, M. C. Payne.   |
 |   Comput. Phys. Commun. 147, pp.788-802 (2002).               |
 |                                                               |
 |  "Accurate kinetic energy evaluation in electronic structure  |
 |   calculations with localized functions on real space grids"  |
 |   C.-K. Skylaris, A. A. Mostofi, P. D. Haynes, C. J. Pickard, |
 |   M. C. Payne.                                                |
 |   Comput. Phys. Commun. 140, pp.315-322 (2001).               |
 |                                                               |
 |  "Accurate ionic forces and geometry optimization in linear-  |
 |   scaling density-functional theory with local orbitals"      |
 |   N. D. M. Hine, M. Robinson, P. D. Haynes, C.-K. Skylaris,   |
 |   M. C. Payne, and A. A. Mostofi.                             |
 |   Phys. Rev. B 83 195102 (2011).                              |
 |                                                               |
 +---------------------------------------------------------------+

Job started: 22-02-2020 09:38 (-0000)
 
Reading parameters from file "complex_30881.dat" ...... done

If your calculation crashes here, before "Checking processes and threads..."
is displayed, then your stack size is insufficient.
If so, use "ulimit -s unlimited" at runtime.
You can disable this check with "check_stack_size F".

Checking processes and threads...
   Determining the default number of threads...
      No default threads set at compilation time: defaulting to 1.
      OpenMP library call suggests 4 threads.
      Hybrid MPI-OpenMP compilation detected.
      Number of MPI processes > 1.
      OMP_NUM_THREADS environment variable present and
      its value matches the one obtained from the OpenMP library call.
      Using this value as default.
      Default threads: 4
      Default applies to threads_max and threads_num_fftboxes.
      Settings in the input file override this default.
   ... done

   Running with 60 MPI processes.
   There are 6 MPI processes running on the same node as the root process.
   Each MPI process is using: 
               1 threads for simulation cell FFTs.
               1 threads for parallel FFT box operations.
               4 threads for loops over batched FFT box operations.
               4 threads in other parallel regions.
... done

Basic input checks...... done

Reading geometry and species blocks from file "complex_30881.dat" ...
  <species_atomic_set> block not found: NGWF initialisation set to SOLVE
IS: Dielectric excluded regions:
    - NONE.
    
  Number of PPD points along a3 set to 1.  This is 
  the default value, it may have been provided also in the input file.
... done
 Writing xyz coordinates to file "complex_30881.xyz" ... done


--------------------------------------------------------------------------------
---------------------------------- INPUT FILE ----------------------------------
--------------------------------------------------------------------------------

cutoff_energy       : 800 eV                                                    
xc_functional VV10                                                              
task SINGLEPOINT                                                                
write_xyz true                                                                  
output_detail VERBOSE                                                           
ngwf_threshold_orig : 0.000002                                                  
kernel_cutoff       : 1000                                                      
k_zero              : 3.5                                                       
elec_cg_max 0                                                                   
occ_mix 1.0                                                                     
dispersion 0                                                                    
maxit_ngwf_cg 40                                                                
minit_lnv 10                                                                    
maxit_lnv 10                                                                    
write_denskern T                                                                
write_tightbox_ngwfs T                                                          
charge 9                                                                        
is_implicit_solvent T                                                           
is_auto_solvation T                                                             
is_include_apolar T                                                             
is_smeared_ion_rep T                                                            
is_solvent_surf_tension 4.7624E-5 Ha/bohr**2                                    
is_apolar_scaling_factor 0.281075                                               
is_solvation_beta 1.3                                                           
is_density_threshold 0.00035                                                    
is_bulk_permittivity 78.54                                                      
is_dielectric_model fix_initial                                                 
is_smeared_ion_width 0.8                                                        
mg_defco_fd_order 8                                                             
is_bc_coarseness 10                                                             
is_bc_surface_coarseness 1                                                      
fine_grid_scale 2.0                                                             
%block species                                                                  
N   N   7 4 8.0                                                                 
H   H   1 1 8.0                                                                 
C   C   6 4 8.0                                                                 
S   S  16 9 8.0                                                                 
O   O   8 4 8.0                                                                 
%endblock species                                                               
%block species_pot                                                              
N   N_00.recpot                                                                 
H   H_04.recpot                                                                 
C   C_01.recpot                                                                 
S   S_00.recpot                                                                 
O   O_02.recpot                                                                 
%endblock species_pot                                                           
%block lattice_cart                                                             
135.996   0.000   0.000                                                         
0.000 142.663   0.000                                                           
0.000   0.000   160.158                                                         
%endblock lattice_cart                                                          
%block positions_abs                                                            
     Hash =   000004686677655610228237
%endblock positions_abs                                                         

--------------------------------------------------------------------------------
-------------------------------- END INPUT FILE --------------------------------
--------------------------------------------------------------------------------


 
 ESDF WARNING(1): "kernelcutoff" (esdf_physical) has no units. Assume "bohr".
 ESDF WARNING(2): "kzero" (esdf_physical) has no units. Assume "1/bohr".
 ESDF WARNING(3
 ): "issmearedionwidth" (esdf_physical) has no units. Assume "bohr".
<<<<<<<<<<<<<<<<<<<<<<<<<<<<<<<<< Full system >>>>>>>>>>>>>>>>>>>>>>>>>>>>>>>>>>
<<<<<<<<<<<<<<<<<<<<<<<<< Pseudopotential information >>>>>>>>>>>>>>>>>>>>>>>>>>
File: N_00.recpot [ 2001 points up to Gmax=  52.9 (1/bohr)]
  Atomic number:  7;  ionic charge:  5.000000
    Shell 1: l = 0; rc = 1.48 bohr
File: H_04.recpot [ 2001 points up to Gmax=  52.9 (1/bohr)]
  Atomic number:  1;  ionic charge:  1.000000
    Local potential
File: C_01.recpot [ 2001 points up to Gmax=  52.9 (1/bohr)]
  Atomic number:  6;  ionic charge:  4.000000
    Shell 1: l = 0; rc = 1.48 bohr
File: S_00.recpot [ 2001 points up to Gmax=  52.9 (1/bohr)]
  Atomic number: 16;  ionic charge:  6.000000
    Shell 1: l = 0; rc = 1.90 bohr
    Shell 2: l = 2; rc = 1.84 bohr
File: O_02.recpot [ 2001 points up to Gmax=  52.9 (1/bohr)]
  Atomic number:  8;  ionic charge:  6.000000
    Shell 1: l = 0; rc = 1.31 bohr
<<<<<<<<<<<<<<<<<<<<<<<<<<<<<<<<<<<<<<<<>>>>>>>>>>>>>>>>>>>>>>>>>>>>>>>>>>>>>>>>

-------------------------- Atom counting information ---------------------------
Symbol    Natoms    Nngwfs    Nprojs
  N        236       944       236
  H       1317      1317         0
  C        816      3264       816
  S          6        54        36
  O        240       960       240
.......   ......    ......    ......
Totals:   2615      6539      1328
--------------------------------------------------------------------------------

=============================== PSINC grid sizes ===============================
                      Simulation cell:  270 x 286 x 315
                              FFT-box:   99 x 105 x  99
                                  PPD:    5 x  11 x   1
Grid space d1=  0.503688888889a0 (KE cutoff=  29.94189Eh = 814.76038eV)
Grid space d2=  0.498821678322a0 (KE cutoff=  30.52906Eh = 830.73786eV)
Grid space d3=  0.508438095238a0 (KE cutoff=  29.38514Eh = 799.61048eV)
================================================================================

********************* Fourier parallelisation information **********************
       Coarse grid (whole simulation cell) dimensions:    270   286   315
          Real-space ('12') slabs/node (min max mean):      5     6     5
         Recip-space ('23') slabs/node (min max mean):      2     3     2
********************************************************************************

********************* Fourier parallelisation information **********************
       Double grid (whole simulation cell) dimensions:    540   572   630
          Real-space ('12') slabs/node (min max mean):     10    11    10
         Recip-space ('23') slabs/node (min max mean):      4     5     4
********************************************************************************
ONETEP fine grid is 540 x 572 x 630 gridpoints, 135.9960 x 142.6630 x 160.1580 bohr.
FD multigrid is     537 x 569 x 625 gridpoints, 135.2405 x 141.9148 x 158.8869 bohr.


Calculating local pseudopotential in open BC on a radial grid ...
Discrepancy between calculated realspace psloc and -Z/x on [5a0,253.965a0]:
max |rel. diff| # avg |rel. diff| #  avg rel. diff #  f # pseudopotential file
 0.000259282084    0.000004141996   0.000000074978   54  'N_00.recpot'
 0.000405386992    0.000016970607  -0.000000075982   54  'H_04.recpot'
 0.000371694516    0.000017434762   0.000000149329   54  'C_01.recpot'
 0.000461642895    0.000020341726   0.000000491514   54  'S_00.recpot'
 0.000682525123    0.000027368244   0.000000159803   54  'O_02.recpot'
... done

Atom SCF Calculation for N  : Z (AE atom) =   7 : Z (PS atom) =   5
Config String:
Orbitals (num,occ):  2     2.00 3.00
Orbitals   (num,l):  2        0    1
Real-space Grid (nr,dr,rmax): 1203    0.0066555740    8.0000000000
Spherical Bessel Basis (nsws,lmax,cutoff):   47    1  176.3951722778
Confining potential (l,width,scale):  0    3.0000000000  100.0000000000
Confining potential (l,width,scale):  1    3.0000000000  100.0000000000
  1         -4.7366890484   -3.4501654188    7.0523828109   -1.9619316308
  2         -9.7225420322   -2.0763080851    8.3068355706   -2.2908832437
  3         -9.7134243553   -2.1270543915    8.2534567806   -2.2819809971
  4         -9.7235185949   -2.1427582218    8.2369947390   -2.2802814234
  5         -9.7258373845   -2.1477905863    8.2317116314   -2.2798536235
  6         -9.7268932325   -2.1503512400    8.2290229806   -2.2796830099
  7         -9.7273189469   -2.1516634231    8.2276451699   -2.2796169657
  8         -9.7274675212   -2.1523365544    8.2269384796   -2.2795940092
  9         -9.7275041773   -2.1526817003    8.2265762312   -2.2795881371
 10         -9.7275008637   -2.1528585007    8.2263907413   -2.2795884060
 11         -9.7274868305   -2.1529489544    8.2262958841   -2.2795903922
 12         -9.7274755655   -2.1529859230    8.2262571347   -2.2795920452
 13         -9.7274662327   -2.1530083995    8.2262335832   -2.2795934369
 14         -9.7274589439   -2.1530220534    8.2262192809   -2.2795945372
 15         -9.7274534633   -2.1530303399    8.2262106039   -2.2795953734
 16         -9.7274494492   -2.1530353634    8.2262053452   -2.2795959920
 17         -9.7274465654   -2.1530384053    8.2262021621   -2.2795964406
 18         -9.7274445237   -2.1530402447    8.2262002378   -2.2795967611
 19         -9.7274430947   -2.1530413553    8.2261990762   -2.2795969874
 20         -9.7274421038   -2.1530420249    8.2261983762   -2.2795971458
 21         -9.7274414219   -2.1530424277    8.2261979551   -2.2795972557
 22         -9.7274409555   -2.1530426696    8.2261977024   -2.2795973315
 23         -9.7274406382   -2.1530428144    8.2261975510   -2.2795973835
 24         -9.7274404232   -2.1530429010    8.2261974606   -2.2795974190
 25         -9.7274402783   -2.1530429525    8.2261974067   -2.2795974432
 26         -9.7274401808   -2.1530429831    8.2261973748   -2.2795974596
Atom SCF converged after  26 iterations to a total energy of     -9.72744018

Atom SCF Calculation for H  : Z (AE atom) =   1 : Z (PS atom) =   1
Config String:
Orbitals (num,occ):  1     1.00
Orbitals   (num,l):  1        0
Real-space Grid (nr,dr,rmax): 1203    0.0066555740    8.0000000000
Spherical Bessel Basis (nsws,lmax,cutoff):   47    0  176.3951722778
Confining potential (l,width,scale):  0    3.0000000000  100.0000000000
  1         -0.3178661827   -0.2469879004    0.2820953124   -0.2487802071
  2         -0.3961824611   -0.2455070831    0.2902209900   -0.2567664324
  3         -0.4406462424   -0.2424227551    0.2948173255   -0.2622129794
  4         -0.4569739054   -0.2416771342    0.2960118236   -0.2639986016
  5         -0.4627745219   -0.2416114401    0.2961916694   -0.2644992007
  6         -0.4648634749   -0.2416666130    0.2961598921   -0.2646237065
  7         -0.4656347011   -0.2417155160    0.2961132802   -0.2646490719
  8         -0.4659271144   -0.2417438448    0.2960836537   -0.2646515522
  9         -0.4660407254   -0.2417580788    0.2960682004   -0.2646501482
 10         -0.4660857867   -0.2417647566    0.2960608087   -0.2646488305
 11         -0.4661039568   -0.2417677717    0.2960574330   -0.2646480606
 12         -0.4661113773   -0.2417691018    0.2960559329   -0.2646476727
 13         -0.4661144368   -0.2417696800    0.2960552775   -0.2646474903
 14         -0.4661157072   -0.2417699291    0.2960549942   -0.2646474079
 15         -0.4661162374   -0.2417700356    0.2960548727   -0.2646473715
 16         -0.4661164596   -0.2417700810    0.2960548208   -0.2646473556
 17         -0.4661165529   -0.2417701003    0.2960547987   -0.2646473488
Atom SCF converged after  17 iterations to a total energy of     -0.46611655

Atom SCF Calculation for C  : Z (AE atom) =   6 : Z (PS atom) =   4
Config String:
Orbitals (num,occ):  2     2.00 2.00
Orbitals   (num,l):  2        0    1
Real-space Grid (nr,dr,rmax): 1203    0.0066555740    8.0000000000
Spherical Bessel Basis (nsws,lmax,cutoff):   47    1  176.3951722778
Confining potential (l,width,scale):  0    3.0000000000  100.0000000000
Confining potential (l,width,scale):  1    3.0000000000  100.0000000000
  1         -5.2812238291   -1.3293161250    4.5135249990   -1.4716766231
  2         -5.3996591362   -1.3542148509    4.4876064308   -1.4645117417
  3         -5.4111847148   -1.3757224423    4.4645718036   -1.4593107263
  4         -5.4199203659   -1.3833334895    4.4563636676   -1.4579885221
  5         -5.4226876204   -1.3865104950    4.4529090432   -1.4575385943
  6         -5.4235070726   -1.3878131251    4.4514866831   -1.4573882877
  7         -5.4237271252   -1.3883401868    4.4509094528   -1.4573411661
  8         -5.4237693051   -1.3885521813    4.4506766230   -1.4573281030
  9         -5.4237656430   -1.3886371046    4.4505830704   -1.4573255254
 10         -5.4237547927   -1.3886709976    4.4505456041   -1.4573257244
 11         -5.4237478594   -1.3886817763    4.4505336403   -1.4573262476
 12         -5.4237429748   -1.3886873440    4.4505274417   -1.4573266921
 13         -5.4237397042   -1.3886902144    4.4505242350   -1.4573270222
 14         -5.4237375865   -1.3886916908    4.4505225792   -1.4573272507
 15         -5.4237362473   -1.3886924482    4.4505217259   -1.4573274021
 16         -5.4237354152   -1.3886928356    4.4505212873   -1.4573274996
 17         -5.4237349050   -1.3886930331    4.4505210623   -1.4573275610
 18         -5.4237345954   -1.3886931333    4.4505209473   -1.4573275991
 19         -5.4237344092   -1.3886931840    4.4505208887   -1.4573276224
 20         -5.4237342980   -1.3886932094    4.4505208590   -1.4573276366
 21         -5.4237342320   -1.3886932221    4.4505208440   -1.4573276451
Atom SCF converged after  21 iterations to a total energy of     -5.42373423

Atom SCF Calculation for S  : Z (AE atom) =  16 : Z (PS atom) =   6
Config String:
Orbitals (num,occ):  3     2.00 4.00 0.00
Orbitals   (num,l):  3        0    1    2
Real-space Grid (nr,dr,rmax): 1203    0.0066555740    8.0000000000
Spherical Bessel Basis (nsws,lmax,cutoff):   47    2  176.3951722778
Confining potential (l,width,scale):  0    3.0000000000  100.0000000000
Confining potential (l,width,scale):  1    3.0000000000  100.0000000000
Confining potential (l,width,scale):  2    3.0000000000  100.0000000000
  1        -12.4916237786   -1.0485914554   10.1554312477   -2.4822447765
  2         -9.9747083603   -2.4807597367    8.3138131863   -2.0618837268
  3        -10.1811370131   -2.3153496392    8.4906092179   -2.1137756843
  4        -10.1856385898   -2.2984912006    8.5093862195   -2.1218167101
  5        -10.1891317560   -2.2894783333    8.5195006030   -2.1261392389
  6        -10.1911142562   -2.2849160124    8.5246320974   -2.1283733378
  7        -10.1921506977   -2.2826473329    8.5271859473   -2.1295140514
  8        -10.1926851273   -2.2815219985    8.5284534218   -2.1300957983
  9        -10.1929632671   -2.2809620806    8.5290843811   -2.1303933136
 10        -10.1931100895   -2.2806822783    8.5293998452   -2.1305460626
 11        -10.1931885828   -2.2805418782    8.5295582201   -2.1306248009
 12        -10.1932309625   -2.2804711729    8.5296380158   -2.1306655459
 13        -10.1932540142   -2.2804354512    8.5296783476   -2.1306867097
 14        -10.1932666242   -2.2804173494    8.5296987927   -2.1306977435
 15        -10.1932735535   -2.2804081489    8.5297091868   -2.1307035175
 16        -10.1932773756   -2.2804034581    8.5297144867   -2.1307065505
 17        -10.1932794908   -2.2804010586    8.5297171976   -2.1307081499
 18        -10.1932806648   -2.2803998268    8.5297185890   -2.1307089965
 19        -10.1932813181   -2.2803991920    8.5297193057   -2.1307094466
 20        -10.1932816826   -2.2803988634    8.5297196763   -2.1307096867
 21        -10.1932818864   -2.2803986926    8.5297198688   -2.1307098154
 22        -10.1932820006   -2.2803986034    8.5297199692   -2.1307098847
 23        -10.1932820648   -2.2803985565    8.5297200219   -2.1307099221
Atom SCF converged after  23 iterations to a total energy of    -10.19328206

Atom SCF Calculation for O  : Z (AE atom) =   8 : Z (PS atom) =   6
Config String:
Orbitals (num,occ):  2     2.00 4.00
Orbitals   (num,l):  2        0    1
Real-space Grid (nr,dr,rmax): 1203    0.0066555740    8.0000000000
Spherical Bessel Basis (nsws,lmax,cutoff):   47    1  176.3951722778
Confining potential (l,width,scale):  0    3.0000000000  100.0000000000
Confining potential (l,width,scale):  1    3.0000000000  100.0000000000
  1         -1.9497477053   -7.5870966769   10.1554312477   -2.4822447765
  2        -15.9466298225   -3.1778351734   13.6353006614   -3.2931224232
  3        -16.0387051750   -3.0909030611   13.7305651010   -3.3194522996
  4        -15.9025031450   -3.1083023605   13.7128101414   -3.3180850501
  5        -15.8912953362   -3.1033022259   13.7185404266   -3.3206942093
  6        -15.8793912992   -3.1043100674   13.7175820250   -3.3209366960
  7        -15.8748748605   -3.1043975610   13.7175531476   -3.3211845618
  8        -15.8725354084   -3.1044655610   13.7175148333   -3.3213149154
  9        -15.8713193866   -3.1045129589   13.7174824743   -3.3213832909
 10        -15.8706863385   -3.1045436851   13.7174593895   -3.3214192053
 11        -15.8703562731   -3.1045627330   13.7174442347   -3.3214381098
 12        -15.8701839150   -3.1045741887   13.7174347673   -3.3214480859
 13        -15.8700937727   -3.1045809294   13.7174290448   -3.3214533647
 14        -15.8700465571   -3.1045848305   13.7174256662   -3.3214561658
 15        -15.8700217888   -3.1045870593   13.7174237063   -3.3214576563
 16        -15.8700087767   -3.1045883194   13.7174225849   -3.3214584516
 17        -15.8700019307   -3.1045890258   13.7174219502   -3.3214588771
 18        -15.8699983237   -3.1045894190   13.7174215942   -3.3214591053
 19        -15.8699964206   -3.1045896366   13.7174213960   -3.3214592281
 20        -15.8699954151   -3.1045897563   13.7174212864   -3.3214592942
 21        -15.8699948832   -3.1045898219   13.7174212260   -3.3214593299
 22        -15.8699946014   -3.1045898577   13.7174211930   -3.3214593493
 23        -15.8699944520   -3.1045898771   13.7174211750   -3.3214593597
 24        -15.8699943726   -3.1045898877   13.7174211652   -3.3214593654
Atom SCF converged after  24 iterations to a total energy of    -15.86999437

========================== Calculation in vacuum ==============================
= Adjusting the following parameters: 
= is_implicit_solvent: F
= is_include_apolar: F
= write_denskern: T
= write_tightbox_ngwfs: T
= restart read filename prefix: ""
= restart write filename prefix: "vacuum_"
===============================================================================

Determining parallel strategy ...
... using space-filling curve
... NGWF load balancing: max    109;  min    108;  average    109
... Projector load balancing: max     26;  min     21;  average     22
... done
Calculating direct Ion-Ion energy ...
Ion-Ion Energy        :    839971.98018748394679
Basis initialisation ...... NGWF spheres initialised
... Projector spheres initialised
... NGWF tight boxes initialised
... Tight-boxes gathered
... NGWF basis size (local,global):    1036479  62480641
... Nonlocal pseudopotential projector initialisation
... done

========================== Sparse matrix information ===========================
                        Overlap matrix filling:   6.88%
                        Density kernel filling: 100.00%
              NGWF-Proj overlap matrix filling:   1.80%
                    Hamiltonian matrix filling:   7.80%
                  NGWF diagonal matrix filling:   0.05%
                             KS matrix filling: 100.00% 
                           KSKS matrix filling: 100.00% 
================================================================================

Sparse matrix initialisation ... done

Generating smeared ion density ... done
Smeared ion self correction:     -14525.987107
Smeared ion non-self correction: -839923.629781
NGWF initialisation ...... done
============ Calculation of NGWF S^-1 using Hotelling algorithm ================ 
         Iteration  |  Frobenius norm and Maximum abs value    (of I-S*S_n^-1)   
               1       0.78679016E+02     0.98259870E+00
               2       0.76816822E+02     0.96562942E+00
               3       0.73799280E+02     0.93291332E+00
               4       0.69507603E+02     0.87199818E+00
               5       0.64163795E+02     0.76733337E+00
               6       0.58168596E+02     0.70117359E+00
               7       0.52152384E+02     0.66931174E+00
               8       0.46586835E+02     0.64303656E+00
               9       0.40480247E+02     0.60447417E+00
              10       0.32166534E+02     0.53724168E+00
              11       0.21576182E+02     0.42765410E+00
              12       0.11008753E+02     0.27730879E+00
              13       0.36294043E+01     0.12308221E+00
              14       0.57585495E+00     0.30224015E-01
              15       0.28004698E-01     0.23440278E-02
              16       0.15717937E-03     0.14811315E-04
              17       0.87072293E-08     0.97100794E-09
              18       0.94959562E-13     0.62172489E-14
================================================================================
Calculating local pseudopotential in open BC on the fine real space grid ...
... done

MG BCs: +ve charge blocks (gridpoints):     20142 (   15821548).
MG BCs: -ve charge blocks (gridpoints):      8077 (    1089540).
MG BCs:     Elided blocks (gridpoints):    173772 (  174059537).
MG BCs: Computational effort saved:  99.9852%.
MG BCs: Charge after coarse-graining:           -9.0002223.
MG DL_MG: Calling solver with defect correction order = 8
MG DL_MG: Solver finished
MG Hartree energy from (\int phi*rho dr):              1460.498550
MG Hartree energy from (\int eps (grad phi)^2 dr):     1459.876857
MG Discrepancy due to finite box and discretization:     -0.621693 (  -0.04257%)
MG Correction to account for finite box:                  0.467255
MG Remaining discrepancy, due to discretization:         -0.154438 (  -0.01057%)
Up spin density kernel initialisation ... 
======= Optimisation of K by Palser-Manolopoulos canonical purification ======== 
         Iteration  |  Band structure energy |    c_n   
               1       -2587.81424596248416    0.5278533
               2       -2764.54023328347284    0.5180286
               3       -2946.49063121243398    0.5162921
               4       -3099.29221279582089    0.5298719
               5       -3194.04666310350513    0.5656827
               6       -3234.13852720898831    0.6107153
               7       -3247.86465828195560    0.6234090
               8       -3253.81244813499961    0.6230932
               9       -3256.69844088502396    0.6370293
              10       -3257.90749739153534    0.6544585
              11       -3258.40084870902228    0.6609589
              12       -3258.62367851146246    0.6503691
              13       -3258.73358875572012    0.5916616
              14       -3258.79822424185204    0.4849164
              15       -3258.82950977814608    0.3515645
              16       -3258.83140969821443    0.2981350
              17       -3258.83200562123238    0.2899914
              18       -3258.83223239222934    0.3106691
              19       -3258.83242012502433    0.3356038
              20       -3258.83259539756364    0.3637648
              21       -3258.83276470827695    0.3972439
              22       -3258.83293130740049    0.4364278
              23       -3258.83308560535897    0.4740851
              24       -3258.83320097707383    0.4956026
              25       -3258.83325372373747    0.4998779
              26       -3258.83326250150139    0.4999999
              27       -3258.83326271190845    0.4999999
Termination criterion satisfied: band energy change below threshold.
Final occupancy bounds: [    0.00000000000001:    0.99999999999997]
Closest occupancy to 0.5:     0.99999999998095
================================================================================
... done

Writing density kernel to file "complex_30881.vacuum_dkn" ... done

>>> Optimising kernel for current NGWFs:
   Initial electron number for spin 1:    7228.00000000
     Final electron number for spin 1:    7228.00000000

=================== Penalty functional idempotency correction ==================
 RMS occupancy error at iteration   1:  0.000000 (step -0.5000 Ne1=   7228.0000)
            Final RMS occupancy error   :  0.000000 (Ne1=   7228.0000)
               Final occupancy bounds   : [  0.0000,  1.0000]
================================================================================

................................................................................
<<<<<<<<<<<<<< LNV (Original version) density kernel optimisation >>>>>>>>>>>>>>
~~~~~~~~~~~~~~~~~~~~~~~~~~~~~~~~~~~~~~~~~~~~~~~~~~~~~~~~~~~~~~~~~~~~~~~~~~~~~~~~
   iter  |      energy (Eh)       | rms gradient |  commutator  |   dE (Eh)
MG BCs: +ve charge blocks (gridpoints):     30668 (   16977362).
MG BCs: -ve charge blocks (gridpoints):      8339 (    1117882).
MG BCs:     Elided blocks (gridpoints):    163238 (  172875381).
MG BCs: Computational effort saved:  99.9796%.
MG BCs: Charge after coarse-graining:           -9.0009678.
MG DL_MG: Calling solver with defect correction order = 8
MG DL_MG: Solver finished
MG Hartree energy from (\int phi*rho dr):              1424.390472
MG Hartree energy from (\int eps (grad phi)^2 dr):     1423.714083
MG Discrepancy due to finite box and discretization:     -0.676389 (  -0.04749%)
MG Correction to account for finite box:                  0.479781
MG Remaining discrepancy, due to discretization:         -0.196608 (  -0.01380%)
      ideal mu1:      -0.712819910065
             Q0:  -11577.872824219521
             G0:    -149.370295047287
   RMS gradient:       0.001869049408
MG BCs: +ve charge blocks (gridpoints):     30676 (   17051912).
MG BCs: -ve charge blocks (gridpoints):      8260 (    1100877).
MG BCs:     Elided blocks (gridpoints):    163230 (  172817836).
MG BCs: Computational effort saved:  99.9796%.
MG BCs: Charge after coarse-graining:           -9.0009891.
MG DL_MG: Calling solver with defect correction order = 8
MG DL_MG: Solver finished
MG Hartree energy from (\int phi*rho dr):              1444.267062
MG Hartree energy from (\int eps (grad phi)^2 dr):     1443.608998
MG Discrepancy due to finite box and discretization:     -0.658065 (  -0.04556%)
MG Correction to account for finite box:                  0.477781
MG Remaining discrepancy, due to discretization:         -0.180284 (  -0.01248%)
     Trial step:       0.500000000000
             Q1:  -11589.683958079084
 Quadratic coef:      62.874013664081
 Linear coef   :     -74.685147523644
           Qmin:  -11600.051586698522
Quadratic minimum step length (  0.296963495613) accepted
    Initial Ne1:    7228.00000000
      Final Ne1:    7228.00000000

=================== Penalty functional idempotency correction ==================
 RMS occupancy error at iteration   1:  0.003556 (step -0.4878 Ne1=   7228.0000)
 RMS occupancy error at iteration   2:  0.000029 (step -0.5001 Ne1=   7228.0000)
            Final RMS occupancy error   :  0.000000 (Ne1=   7228.0000)
               Final occupancy bounds   : [  0.0000,  1.0000]
================================================================================

    1        -1.157787282422E+04     1.8690E-03     1.6909E-03
MG BCs: +ve charge blocks (gridpoints):     30674 (   17022533).
MG BCs: -ve charge blocks (gridpoints):      8280 (    1108402).
MG BCs:     Elided blocks (gridpoints):    163232 (  172839690).
MG BCs: Computational effort saved:  99.9796%.
MG BCs: Charge after coarse-graining:           -9.0009805.
MG DL_MG: Calling solver with defect correction order = 8
MG DL_MG: Solver finished
MG Hartree energy from (\int phi*rho dr):              1427.973762
MG Hartree energy from (\int eps (grad phi)^2 dr):     1427.309256
MG Discrepancy due to finite box and discretization:     -0.664506 (  -0.04653%)
MG Correction to account for finite box:                  0.478478
MG Remaining discrepancy, due to discretization:         -0.186028 (  -0.01303%)
      ideal mu1:      -0.758499885978
             Q0:  -11600.499481322127
             G0:     -12.384082046794
   RMS gradient:       0.000534272595
MG BCs: +ve charge blocks (gridpoints):     30683 (   17038819).
MG BCs: -ve charge blocks (gridpoints):      8274 (    1103804).
MG BCs:     Elided blocks (gridpoints):    163222 (  172828002).
MG BCs: Computational effort saved:  99.9796%.
MG BCs: Charge after coarse-graining:           -9.0009843.
MG DL_MG: Calling solver with defect correction order = 8
MG DL_MG: Solver finished
MG Hartree energy from (\int phi*rho dr):              1432.210453
MG Hartree energy from (\int eps (grad phi)^2 dr):     1431.550328
MG Discrepancy due to finite box and discretization:     -0.660125 (  -0.04609%)
MG Correction to account for finite box:                  0.477358
MG Remaining discrepancy, due to discretization:         -0.182767 (  -0.01276%)
     Trial step:       0.385333294443
             Q1:  -11603.426249207463
 Quadratic coef:       1.845231248411
 Linear coef   :      -4.771999133748
           Qmin:  -11603.584728191876
Quadratic minimum step length (  0.498260082272) accepted
    Initial Ne1:    7227.99987920
      Final Ne1:    7228.00000000

=================== Penalty functional idempotency correction ==================
 RMS occupancy error at iteration   1:  0.001912 (step -0.4925 Ne1=   7228.0000)
 RMS occupancy error at iteration   2:  0.000013 (step -0.5002 Ne1=   7228.0000)
            Final RMS occupancy error   :  0.000000 (Ne1=   7228.0000)
               Final occupancy bounds   : [  0.0000,  1.0000]
================================================================================

    2        -1.160049948132E+04     5.3427E-04     4.8334E-04    -2.2627E+01
MG BCs: +ve charge blocks (gridpoints):     30678 (   17043752).
MG BCs: -ve charge blocks (gridpoints):      8264 (    1102425).
MG BCs:     Elided blocks (gridpoints):    163227 (  172824448).
MG BCs: Computational effort saved:  99.9796%.
MG BCs: Charge after coarse-graining:           -9.0009853.
MG DL_MG: Calling solver with defect correction order = 8
MG DL_MG: Solver finished
MG Hartree energy from (\int phi*rho dr):              1433.502265
MG Hartree energy from (\int eps (grad phi)^2 dr):     1432.843338
MG Discrepancy due to finite box and discretization:     -0.658926 (  -0.04597%)
MG Correction to account for finite box:                  0.477046
MG Remaining discrepancy, due to discretization:         -0.181880 (  -0.01269%)
      ideal mu1:      -0.783484536709
             Q0:  -11603.624140723026
             G0:      -1.996312890010
   RMS gradient:       0.000214714037
MG BCs: +ve charge blocks (gridpoints):     30680 (   17043523).
MG BCs: -ve charge blocks (gridpoints):      8272 (    1103240).
MG BCs:     Elided blocks (gridpoints):    163225 (  172823862).
MG BCs: Computational effort saved:  99.9796%.
MG BCs: Charge after coarse-graining:           -9.0009849.
MG DL_MG: Calling solver with defect correction order = 8
MG DL_MG: Solver finished
MG Hartree energy from (\int phi*rho dr):              1431.760695
MG Hartree energy from (\int eps (grad phi)^2 dr):     1431.102285
MG Discrepancy due to finite box and discretization:     -0.658410 (  -0.04599%)
MG Correction to account for finite box:                  0.476684
MG Remaining discrepancy, due to discretization:         -0.181727 (  -0.01269%)
     Trial step:       0.438173708695
             Q1:  -11604.135977326310
 Quadratic coef:       0.362895219447
 Linear coef   :      -0.874731822731
           Qmin:  -11604.151259654811
Quadratic minimum step length (  0.528092499350) accepted
    Initial Ne1:    7227.99990939
      Final Ne1:    7228.00000000

=================== Penalty functional idempotency correction ==================
 RMS occupancy error at iteration   1:  0.000677 (step -0.4967 Ne1=   7228.0000)
 RMS occupancy error at iteration   2:  0.000004 (step -0.5000 Ne1=   7228.0000)
            Final RMS occupancy error   :  0.000000 (Ne1=   7228.0000)
               Final occupancy bounds   : [  0.0000,  1.0000]
================================================================================

    3        -1.160362414072E+04     2.1471E-04     1.9425E-04    -3.1247E+00
MG BCs: +ve charge blocks (gridpoints):     30684 (   17043493).
MG BCs: -ve charge blocks (gridpoints):      8275 (    1103403).
MG BCs:     Elided blocks (gridpoints):    163220 (  172823729).
MG BCs: Computational effort saved:  99.9796%.
MG BCs: Charge after coarse-graining:           -9.0009848.
MG DL_MG: Calling solver with defect correction order = 8
MG DL_MG: Solver finished
MG Hartree energy from (\int phi*rho dr):              1431.411350
MG Hartree energy from (\int eps (grad phi)^2 dr):     1430.753034
MG Discrepancy due to finite box and discretization:     -0.658316 (  -0.04599%)
MG Correction to account for finite box:                  0.476610
MG Remaining discrepancy, due to discretization:         -0.181706 (  -0.01269%)
      ideal mu1:      -0.783573551151
             Q0:  -11604.156649334473
             G0:      -0.541771074216
   RMS gradient:       0.000111919682
MG BCs: +ve charge blocks (gridpoints):     30681 (   17044249).
MG BCs: -ve charge blocks (gridpoints):      8277 (    1103276).
MG BCs:     Elided blocks (gridpoints):    163223 (  172823100).
MG BCs: Computational effort saved:  99.9796%.
MG BCs: Charge after coarse-graining:           -9.0009849.
MG DL_MG: Calling solver with defect correction order = 8
MG DL_MG: Solver finished
MG Hartree energy from (\int phi*rho dr):              1432.557250
MG Hartree energy from (\int eps (grad phi)^2 dr):     1431.899014
MG Discrepancy due to finite box and discretization:     -0.658236 (  -0.04595%)
MG Correction to account for finite box:                  0.476449
MG Remaining discrepancy, due to discretization:         -0.181787 (  -0.01269%)
     Trial step:       0.481036639950
             Q1:  -11604.288303139503
 Quadratic coef:       0.128957932133
 Linear coef   :      -0.260611737162
           Qmin:  -11604.288317228846
Quadratic minimum step length (  0.486064689091) accepted
    Initial Ne1:    7227.99997739
      Final Ne1:    7228.00000000

=================== Penalty functional idempotency correction ==================
 RMS occupancy error at iteration   1:  0.000302 (step -0.4953 Ne1=   7228.0000)
 RMS occupancy error at iteration   2:  0.000003 (step -0.5000 Ne1=   7228.0000)
            Final RMS occupancy error   :  0.000000 (Ne1=   7228.0000)
               Final occupancy bounds   : [  0.0000,  1.0000]
================================================================================

    4        -1.160415664933E+04     1.1192E-04     1.0125E-04    -5.3251E-01
MG BCs: +ve charge blocks (gridpoints):     30681 (   17044258).
MG BCs: -ve charge blocks (gridpoints):      8277 (    1103276).
MG BCs:     Elided blocks (gridpoints):    163223 (  172823091).
MG BCs: Computational effort saved:  99.9796%.
MG BCs: Charge after coarse-graining:           -9.0009849.
MG DL_MG: Calling solver with defect correction order = 8
MG DL_MG: Solver finished
MG Hartree energy from (\int phi*rho dr):              1432.569773
MG Hartree energy from (\int eps (grad phi)^2 dr):     1431.911537
MG Discrepancy due to finite box and discretization:     -0.658235 (  -0.04595%)
MG Correction to account for finite box:                  0.476448
MG Remaining discrepancy, due to discretization:         -0.181788 (  -0.01269%)
      ideal mu1:      -0.783870898487
             Q0:  -11604.289043074357
             G0:      -0.193977940030
   RMS gradient:       0.000067182197
MG BCs: +ve charge blocks (gridpoints):     30683 (   17044459).
MG BCs: -ve charge blocks (gridpoints):      8280 (    1103149).
MG BCs:     Elided blocks (gridpoints):    163221 (  172823017).
MG BCs: Computational effort saved:  99.9796%.
MG BCs: Charge after coarse-graining:           -9.0009849.
MG DL_MG: Calling solver with defect correction order = 8
MG DL_MG: Solver finished
MG Hartree energy from (\int phi*rho dr):              1432.986811
MG Hartree energy from (\int eps (grad phi)^2 dr):     1432.328450
MG Discrepancy due to finite box and discretization:     -0.658362 (  -0.04594%)
MG Correction to account for finite box:                  0.476412
MG Remaining discrepancy, due to discretization:         -0.181949 (  -0.01270%)
     Trial step:       0.483544129153
             Q1:  -11604.352197225322
 Quadratic coef:       0.030642743122
 Linear coef   :      -0.093796894087
           Qmin:  -11604.360820732327
Quadratic minimum step length (  0.740060008455) accepted
    Initial Ne1:    7227.99998741
      Final Ne1:    7228.00000000

=================== Penalty functional idempotency correction ==================
 RMS occupancy error at iteration   1:  0.000534 (step -0.4672 Ne1=   7228.0000)
 RMS occupancy error at iteration   2:  0.000015 (step -0.5000 Ne1=   7228.0000)
            Final RMS occupancy error   :  0.000000 (Ne1=   7228.0000)
               Final occupancy bounds   : [  0.0000,  1.0000]
================================================================================

    5        -1.160428904307E+04     6.7182E-05     6.0778E-05    -1.3239E-01
MG BCs: +ve charge blocks (gridpoints):     30682 (   17044664).
MG BCs: -ve charge blocks (gridpoints):      8277 (    1103054).
MG BCs:     Elided blocks (gridpoints):    163222 (  172822907).
MG BCs: Computational effort saved:  99.9796%.
MG BCs: Charge after coarse-graining:           -9.0009849.
MG DL_MG: Calling solver with defect correction order = 8
MG DL_MG: Solver finished
MG Hartree energy from (\int phi*rho dr):              1433.205073
MG Hartree energy from (\int eps (grad phi)^2 dr):     1432.546647
MG Discrepancy due to finite box and discretization:     -0.658426 (  -0.04594%)
MG Correction to account for finite box:                  0.476390
MG Remaining discrepancy, due to discretization:         -0.182035 (  -0.01270%)
      ideal mu1:      -0.783720266012
             Q0:  -11604.359766446287
             G0:      -0.201026498459
   RMS gradient:       0.000069233740
MG BCs: +ve charge blocks (gridpoints):     30678 (   17043981).
MG BCs: -ve charge blocks (gridpoints):      8278 (    1103400).
MG BCs:     Elided blocks (gridpoints):    163226 (  172823244).
MG BCs: Computational effort saved:  99.9796%.
MG BCs: Charge after coarse-graining:           -9.0009847.
MG DL_MG: Calling solver with defect correction order = 8
MG DL_MG: Solver finished
MG Hartree energy from (\int phi*rho dr):              1431.842382
MG Hartree energy from (\int eps (grad phi)^2 dr):     1431.184082
MG Discrepancy due to finite box and discretization:     -0.658299 (  -0.04598%)
MG Correction to account for finite box:                  0.476258
MG Remaining discrepancy, due to discretization:         -0.182042 (  -0.01271%)
     Trial step:       0.598207048027
             Q1:  -11604.451604037895
 Quadratic coef:       0.028417876611
 Linear coef   :      -0.120255468219
           Qmin:  -11604.486987225611
Quadratic minimum step length (  1.265711538518) accepted
    Initial Ne1:    7227.99995121
      Final Ne1:    7228.00000000

=================== Penalty functional idempotency correction ==================
 RMS occupancy error at iteration   1:  0.005413 (step -0.2748 Ne1=   7228.0000)
 RMS occupancy error at iteration   2:  0.000435 (step -0.4824 Ne1=   7228.0000)
 RMS occupancy error at iteration   3:  0.000011 (step -0.5002 Ne1=   7228.0000)
            Final RMS occupancy error   :  0.000000 (Ne1=   7228.0000)
               Final occupancy bounds   : [  0.0000,  1.0000]
================================================================================

    6        -1.160435976645E+04     6.9234E-05     6.2634E-05    -7.0723E-02
MG BCs: +ve charge blocks (gridpoints):     30680 (   17043244).
MG BCs: -ve charge blocks (gridpoints):      8280 (    1103954).
MG BCs:     Elided blocks (gridpoints):    163225 (  172823427).
MG BCs: Computational effort saved:  99.9796%.
MG BCs: Charge after coarse-graining:           -9.0009843.
MG DL_MG: Calling solver with defect correction order = 8
MG DL_MG: Solver finished
MG Hartree energy from (\int phi*rho dr):              1430.355357
MG Hartree energy from (\int eps (grad phi)^2 dr):     1429.697175
MG Discrepancy due to finite box and discretization:     -0.658181 (  -0.04602%)
MG Correction to account for finite box:                  0.476130
MG Remaining discrepancy, due to discretization:         -0.182052 (  -0.01273%)
      ideal mu1:      -0.782912798027
             Q0:  -11604.449131318834
             G0:      -0.445978850932
   RMS gradient:       0.000102128228
MG BCs: +ve charge blocks (gridpoints):     30672 (   17045625).
MG BCs: -ve charge blocks (gridpoints):      8277 (    1102429).
MG BCs:     Elided blocks (gridpoints):    163232 (  172822571).
MG BCs: Computational effort saved:  99.9796%.
MG BCs: Charge after coarse-graining:           -9.0009855.
MG DL_MG: Calling solver with defect correction order = 8
MG DL_MG: Solver finished
MG Hartree energy from (\int phi*rho dr):              1434.039228
MG Hartree energy from (\int eps (grad phi)^2 dr):     1433.381590
MG Discrepancy due to finite box and discretization:     -0.657638 (  -0.04586%)
MG Correction to account for finite box:                  0.475893
MG Remaining discrepancy, due to discretization:         -0.181745 (  -0.01267%)
     Trial step:       0.870148012186
             Q1:  -11604.563921009423
 Quadratic coef:       0.273277920027
 Linear coef   :      -0.388067610616
           Qmin:  -11604.586899923039
Quadratic minimum step length (  0.617825728361) accepted
    Initial Ne1:    7227.99992034
      Final Ne1:    7228.00000000

=================== Penalty functional idempotency correction ==================
 RMS occupancy error at iteration   1:  0.000246 (step -0.4827 Ne1=   7228.0000)
 RMS occupancy error at iteration   2:  0.000002 (step -0.5000 Ne1=   7228.0000)
            Final RMS occupancy error   :  0.000000 (Ne1=   7228.0000)
               Final occupancy bounds   : [  0.0000,  1.0000]
================================================================================

    7        -1.160444913132E+04     1.0213E-04     9.2393E-05    -8.9365E-02
MG BCs: +ve charge blocks (gridpoints):     30679 (   17044904).
MG BCs: -ve charge blocks (gridpoints):      8277 (    1102887).
MG BCs:     Elided blocks (gridpoints):    163225 (  172822834).
MG BCs: Computational effort saved:  99.9796%.
MG BCs: Charge after coarse-graining:           -9.0009852.
MG DL_MG: Calling solver with defect correction order = 8
MG DL_MG: Solver finished
MG Hartree energy from (\int phi*rho dr):              1432.964046
MG Hartree energy from (\int eps (grad phi)^2 dr):     1432.306252
MG Discrepancy due to finite box and discretization:     -0.657794 (  -0.04590%)
MG Correction to account for finite box:                  0.475962
MG Remaining discrepancy, due to discretization:         -0.181831 (  -0.01269%)
      ideal mu1:      -0.784192865293
             Q0:  -11604.587509444449
             G0:      -0.298877048883
   RMS gradient:       0.000083482962
MG BCs: +ve charge blocks (gridpoints):     30675 (   17044972).
MG BCs: -ve charge blocks (gridpoints):      8277 (    1102770).
MG BCs:     Elided blocks (gridpoints):    163229 (  172822883).
MG BCs: Computational effort saved:  99.9796%.
MG BCs: Charge after coarse-graining:           -9.0009852.
MG DL_MG: Calling solver with defect correction order = 8
MG DL_MG: Solver finished
MG Hartree energy from (\int phi*rho dr):              1432.946686
MG Hartree energy from (\int eps (grad phi)^2 dr):     1432.289222
MG Discrepancy due to finite box and discretization:     -0.657464 (  -0.04588%)
MG Correction to account for finite box:                  0.475825
MG Remaining discrepancy, due to discretization:         -0.181639 (  -0.01268%)
     Trial step:       0.733211994863
             Q1:  -11604.697892913478
 Quadratic coef:       0.108756768201
 Linear coef   :      -0.219140237230
           Qmin:  -11604.697898996217
Quadratic minimum step length (  0.738695407893) accepted
    Initial Ne1:    7227.99993558
      Final Ne1:    7228.00000000

=================== Penalty functional idempotency correction ==================
 RMS occupancy error at iteration   1:  0.001318 (step -0.4200 Ne1=   7228.0000)
 RMS occupancy error at iteration   2:  0.000050 (step -0.4975 Ne1=   7228.0000)
 RMS occupancy error at iteration   3:  0.000000 (step -0.5000 Ne1=   7228.0000)
            Final RMS occupancy error   :  0.000000 (Ne1=   7228.0000)
               Final occupancy bounds   : [  0.0000,  1.0000]
================================================================================

    8        -1.160458750944E+04     8.3483E-05     7.5525E-05    -1.3838E-01
MG BCs: +ve charge blocks (gridpoints):     30675 (   17044974).
MG BCs: -ve charge blocks (gridpoints):      8277 (    1102763).
MG BCs:     Elided blocks (gridpoints):    163229 (  172822888).
MG BCs: Computational effort saved:  99.9796%.
MG BCs: Charge after coarse-graining:           -9.0009852.
MG DL_MG: Calling solver with defect correction order = 8
MG DL_MG: Solver finished
MG Hartree energy from (\int phi*rho dr):              1432.947699
MG Hartree energy from (\int eps (grad phi)^2 dr):     1432.290237
MG Discrepancy due to finite box and discretization:     -0.657462 (  -0.04588%)
MG Correction to account for finite box:                  0.475823
MG Remaining discrepancy, due to discretization:         -0.181638 (  -0.01268%)
      ideal mu1:      -0.783519202494
             Q0:  -11604.698960454669
             G0:      -0.217297010309
   RMS gradient:       0.000070649817
MG BCs: +ve charge blocks (gridpoints):     30673 (   17044106).
MG BCs: -ve charge blocks (gridpoints):      8278 (    1103367).
MG BCs:     Elided blocks (gridpoints):    163231 (  172823152).
MG BCs: Computational effort saved:  99.9796%.
MG BCs: Charge after coarse-graining:           -9.0009849.
MG DL_MG: Calling solver with defect correction order = 8
MG DL_MG: Solver finished
MG Hartree energy from (\int phi*rho dr):              1431.550124
MG Hartree energy from (\int eps (grad phi)^2 dr):     1430.892924
MG Discrepancy due to finite box and discretization:     -0.657200 (  -0.04591%)
MG Correction to account for finite box:                  0.475626
MG Remaining discrepancy, due to discretization:         -0.181574 (  -0.01268%)
     Trial step:       0.735948594412
             Q1:  -11604.771817808738
 Quadratic coef:       0.087062075238
 Linear coef   :      -0.159919429307
           Qmin:  -11604.772397205976
Quadratic minimum step length (  0.675911290287) accepted
    Initial Ne1:    7227.99995778
      Final Ne1:    7228.00000000

=================== Penalty functional idempotency correction ==================
 RMS occupancy error at iteration   1:  0.002225 (step -0.3854 Ne1=   7228.0000)
 RMS occupancy error at iteration   2:  0.000115 (step -0.4949 Ne1=   7228.0000)
 RMS occupancy error at iteration   3:  0.000001 (step -0.5000 Ne1=   7228.0000)
            Final RMS occupancy error   :  0.000000 (Ne1=   7228.0000)
               Final occupancy bounds   : [  0.0000,  1.0000]
================================================================================

    9        -1.160469896045E+04     7.0650E-05     6.3915E-05    -1.1145E-01
MG BCs: +ve charge blocks (gridpoints):     30673 (   17044137).
MG BCs: -ve charge blocks (gridpoints):      8279 (    1103331).
MG BCs:     Elided blocks (gridpoints):    163231 (  172823157).
MG BCs: Computational effort saved:  99.9796%.
MG BCs: Charge after coarse-graining:           -9.0009849.
MG DL_MG: Calling solver with defect correction order = 8
MG DL_MG: Solver finished
MG Hartree energy from (\int phi*rho dr):              1431.662067
MG Hartree energy from (\int eps (grad phi)^2 dr):     1431.004838
MG Discrepancy due to finite box and discretization:     -0.657230 (  -0.04591%)
MG Correction to account for finite box:                  0.475653
MG Remaining discrepancy, due to discretization:         -0.181577 (  -0.01268%)
      ideal mu1:      -0.782723994499
   10        -1.160477672379E+04     5.4636E-05     4.9428E-05    -7.7763E-02
Finished density kernel iterations (  10)

Writing density kernel to file "complex_30881.vacuum_dkn" ... done


>>> Density kernel optimised for the current NGWF basis:
     ~~~~~~~~~~~~~~~~~~~~~~~~~~~~~~~~~~~~~~~~~~~~~~~~~~~~~~~~~~~
     Total energy                =  -1.16047767237860E+04  Eh
     Estimated bandgap           =  -4.2338E-01  Eh
     RMS occupancy error         =   1.3772E-10
     [H,K] commutator            =   4.9428E-05
     Occupancy bounds            = [  0.000:  1.000]
     ~~~~~~~~~~~~~~~~~~~~~~~~~~~~~~~~~~~~~~~~~~~~~~~~~~~~~~~~~~~




################################################################################
########################### NGWF CG iteration  001 #############################
################################################################################
****** Reciprocal space K.E. preconditioning with k_zero =  3.5000 a0^-1 *******

>>> Checking for convergence of NGWFs:   NOT CONVERGED
  ========================================================================
         NGWF RMS gradient =  1.5973E-03 >  2.0000E-06  | above tolerance
  ========================================================================

>>> Improving NGWFs using line search:
============ Calculation of NGWF S^-1 using Hotelling algorithm ================ 
         Iteration  |  Frobenius norm and Maximum abs value    (of I-S*S_n^-1)   
               1       0.19944417E+00     0.50847454E-02
               2       0.91940911E-03     0.39102164E-04
               3       0.33126655E-07     0.22882356E-08
               4       0.12808187E-12     0.64392935E-14
================================================================================
MG BCs: +ve charge blocks (gridpoints):     30209 (   16984760).
MG BCs: -ve charge blocks (gridpoints):      8295 (    1103072).
MG BCs:     Elided blocks (gridpoints):    163697 (  172882793).
MG BCs: Computational effort saved:  99.9798%.
MG BCs: Charge after coarse-graining:           -9.0009857.
MG DL_MG: Calling solver with defect correction order = 8
MG DL_MG: Solver finished
MG Hartree energy from (\int phi*rho dr):              1399.404448
MG Hartree energy from (\int eps (grad phi)^2 dr):     1398.747952
MG Discrepancy due to finite box and discretization:     -0.656497 (  -0.04691%)
MG Correction to account for finite box:                  0.475569
MG Remaining discrepancy, due to discretization:         -0.180928 (  -0.01293%)
============ Calculation of NGWF S^-1 using Hotelling algorithm ================ 
         Iteration  |  Frobenius norm and Maximum abs value    (of I-S*S_n^-1)   
               1       0.18789897E+01     0.40877001E-01
               2       0.73386771E-01     0.22909886E-02
               3       0.15042240E-03     0.79915376E-05
               4       0.11617465E-08     0.10983925E-09
               5       0.11193549E-12     0.58841820E-14
================================================================================
------------------------------- NGWF line search -------------------------------
RMS gradient                =       0.00159731145556
Trial step length           =               0.122474
Gradient along search dir.  =       -280.09370543501
Functional at step 0        =  -11604.77672378602438
Functional at step 1        =  -11636.46366074506659
Functional predicted        =  -11717.17729988274914
Selected quadratic step     =               0.802593
--------------------------- NGWF line search finished --------------------------
                                               
Writing NGWFs to file "complex_30881.vacuum_tightbox_ngwfs"....  done

>>> Optimising kernel for current NGWFs:
   Initial electron number for spin 1:    7263.46050259
     Final electron number for spin 1:    7228.00000000

=================== Penalty functional idempotency correction ==================
 RMS occupancy error at iteration   1:  0.004263 (step -0.4862 Ne1=   7228.0000)
 RMS occupancy error at iteration   2:  0.000069 (step -0.5003 Ne1=   7228.0000)
            Final RMS occupancy error   :  0.000000 (Ne1=   7228.0000)
               Final occupancy bounds   : [  0.0000,  1.0000]
================================================================================

................................................................................
<<<<<<<<<<<<<< LNV (Original version) density kernel optimisation >>>>>>>>>>>>>>
~~~~~~~~~~~~~~~~~~~~~~~~~~~~~~~~~~~~~~~~~~~~~~~~~~~~~~~~~~~~~~~~~~~~~~~~~~~~~~~~
   iter  |      energy (Eh)       | rms gradient |  commutator  |   dE (Eh)
MG BCs: +ve charge blocks (gridpoints):     24248 (   16689504).
MG BCs: -ve charge blocks (gridpoints):      8459 (    1084869).
MG BCs:     Elided blocks (gridpoints):    169666 (  173196252).
MG BCs: Computational effort saved:  99.9829%.
MG BCs: Charge after coarse-graining:           -9.0006657.
MG DL_MG: Calling solver with defect correction order = 8
MG DL_MG: Solver finished
MG Hartree energy from (\int phi*rho dr):              1243.233913
MG Hartree energy from (\int eps (grad phi)^2 dr):     1242.577022
MG Discrepancy due to finite box and discretization:     -0.656891 (  -0.05284%)
MG Correction to account for finite box:                  0.475167
MG Remaining discrepancy, due to discretization:         -0.181723 (  -0.01462%)
      ideal mu1:      -0.722198337644
             Q0:  -11716.208818798768
             G0:     -10.040394288067
   RMS gradient:       0.000484578394
MG BCs: +ve charge blocks (gridpoints):     24307 (   16713905).
MG BCs: -ve charge blocks (gridpoints):      8425 (    1078154).
MG BCs:     Elided blocks (gridpoints):    169607 (  173178566).
MG BCs: Computational effort saved:  99.9829%.
MG BCs: Charge after coarse-graining:           -9.0006599.
MG DL_MG: Calling solver with defect correction order = 8
MG DL_MG: Solver finished
MG Hartree energy from (\int phi*rho dr):              1263.180747
MG Hartree energy from (\int eps (grad phi)^2 dr):     1262.518600
MG Discrepancy due to finite box and discretization:     -0.662147 (  -0.05242%)
MG Correction to account for finite box:                  0.474666
MG Remaining discrepancy, due to discretization:         -0.187480 (  -0.01484%)
     Trial step:       0.705291403629
             Q1:  -11715.792399862432
 Quadratic coef:       7.497822716761
 Linear coef   :      -7.081403780424
           Qmin:  -11717.880846845967
Quadratic minimum step length (  0.333060236327) accepted
    Initial Ne1:    7227.99957849
      Final Ne1:    7228.00000000

=================== Penalty functional idempotency correction ==================
 RMS occupancy error at iteration   1:  0.000364 (step -0.4986 Ne1=   7228.0000)
 RMS occupancy error at iteration   2:  0.000000 (step -0.5000 Ne1=   7228.0000)
            Final RMS occupancy error   :  0.000000 (Ne1=   7228.0000)
               Final occupancy bounds   : [  0.0000,  1.0000]
================================================================================

    1        -1.171620881880E+04     4.8458E-04     4.3839E-04
MG BCs: +ve charge blocks (gridpoints):     24264 (   16701006).
MG BCs: -ve charge blocks (gridpoints):      8443 (    1081783).
MG BCs:     Elided blocks (gridpoints):    169650 (  173187836).
MG BCs: Computational effort saved:  99.9829%.
MG BCs: Charge after coarse-graining:           -9.0006630.
MG DL_MG: Calling solver with defect correction order = 8
MG DL_MG: Solver finished
MG Hartree energy from (\int phi*rho dr):              1251.731429
MG Hartree energy from (\int eps (grad phi)^2 dr):     1251.072150
MG Discrepancy due to finite box and discretization:     -0.659279 (  -0.05267%)
MG Correction to account for finite box:                  0.474910
MG Remaining discrepancy, due to discretization:         -0.184370 (  -0.01473%)
      ideal mu1:      -0.729681710637
             Q0:  -11717.855229595210
             G0:      -1.029890619256
   RMS gradient:       0.000155815800
MG BCs: +ve charge blocks (gridpoints):     24272 (   16701800).
MG BCs: -ve charge blocks (gridpoints):      8440 (    1082161).
MG BCs:     Elided blocks (gridpoints):    169642 (  173186664).
MG BCs: Computational effort saved:  99.9829%.
MG BCs: Charge after coarse-graining:           -9.0006627.
MG DL_MG: Calling solver with defect correction order = 8
MG DL_MG: Solver finished
MG Hartree energy from (\int phi*rho dr):              1253.391943
MG Hartree energy from (\int eps (grad phi)^2 dr):     1252.732463
MG Discrepancy due to finite box and discretization:     -0.659480 (  -0.05262%)
MG Correction to account for finite box:                  0.474800
MG Remaining discrepancy, due to discretization:         -0.184680 (  -0.01473%)
     Trial step:       0.484669497258
             Q1:  -11718.071169284405
 Quadratic coef:       0.283216879470
 Linear coef   :      -0.499156568665
           Qmin:  -11718.075164650378
Quadratic minimum step length (  0.427103715782) accepted
    Initial Ne1:    7227.99994410
      Final Ne1:    7228.00000000

=================== Penalty functional idempotency correction ==================
 RMS occupancy error at iteration   1:  0.000152 (step -0.4993 Ne1=   7228.0000)
 RMS occupancy error at iteration   2:  0.000000 (step -0.5000 Ne1=   7228.0000)
            Final RMS occupancy error   :  0.000000 (Ne1=   7228.0000)
               Final occupancy bounds   : [  0.0000,  1.0000]
================================================================================

    2        -1.171785522960E+04     1.5582E-04     1.4096E-04    -1.6464E+00
MG BCs: +ve charge blocks (gridpoints):     24271 (   16701709).
MG BCs: -ve charge blocks (gridpoints):      8440 (    1082125).
MG BCs:     Elided blocks (gridpoints):    169643 (  173186791).
MG BCs: Computational effort saved:  99.9829%.
MG BCs: Charge after coarse-graining:           -9.0006627.
MG DL_MG: Calling solver with defect correction order = 8
MG DL_MG: Solver finished
MG Hartree energy from (\int phi*rho dr):              1253.194389
MG Hartree energy from (\int eps (grad phi)^2 dr):     1252.534934
MG Discrepancy due to finite box and discretization:     -0.659455 (  -0.05262%)
MG Correction to account for finite box:                  0.474813
MG Remaining discrepancy, due to discretization:         -0.184642 (  -0.01473%)
      ideal mu1:      -0.731184894449
             Q0:  -11718.075644212426
             G0:      -0.179409018581
   RMS gradient:       0.000064708538
MG BCs: +ve charge blocks (gridpoints):     24271 (   16700704).
MG BCs: -ve charge blocks (gridpoints):      8443 (    1082653).
MG BCs:     Elided blocks (gridpoints):    169643 (  173187268).
MG BCs: Computational effort saved:  99.9829%.
MG BCs: Charge after coarse-graining:           -9.0006628.
MG DL_MG: Calling solver with defect correction order = 8
MG DL_MG: Solver finished
MG Hartree energy from (\int phi*rho dr):              1252.573518
MG Hartree energy from (\int eps (grad phi)^2 dr):     1251.914218
MG Discrepancy due to finite box and discretization:     -0.659300 (  -0.05264%)
MG Correction to account for finite box:                  0.474679
MG Remaining discrepancy, due to discretization:         -0.184621 (  -0.01474%)
     Trial step:       0.454977079868
             Q1:  -11718.132409608806
 Quadratic coef:       0.024861594995
 Linear coef   :      -0.081626991376
           Qmin:  -11718.142644798294
Quadratic minimum step length (  0.746903209190) accepted
    Initial Ne1:    7227.99998314
      Final Ne1:    7228.00000000

=================== Penalty functional idempotency correction ==================
 RMS occupancy error at iteration   1:  0.000158 (step -0.4930 Ne1=   7228.0000)
 RMS occupancy error at iteration   2:  0.000001 (step -0.5000 Ne1=   7228.0000)
            Final RMS occupancy error   :  0.000000 (Ne1=   7228.0000)
               Final occupancy bounds   : [  0.0000,  1.0000]
================================================================================

    3        -1.171807564421E+04     6.4709E-05     5.8540E-05    -2.2041E-01
MG BCs: +ve charge blocks (gridpoints):     24272 (   16700176).
MG BCs: -ve charge blocks (gridpoints):      8443 (    1082936).
MG BCs:     Elided blocks (gridpoints):    169642 (  173187513).
MG BCs: Computational effort saved:  99.9829%.
MG BCs: Charge after coarse-graining:           -9.0006629.
MG DL_MG: Calling solver with defect correction order = 8
MG DL_MG: Solver finished
MG Hartree energy from (\int phi*rho dr):              1252.174562
MG Hartree energy from (\int eps (grad phi)^2 dr):     1251.515363
MG Discrepancy due to finite box and discretization:     -0.659199 (  -0.05264%)
MG Correction to account for finite box:                  0.474591
MG Remaining discrepancy, due to discretization:         -0.184608 (  -0.01474%)
      ideal mu1:      -0.730365936033
             Q0:  -11718.142710050801
             G0:      -0.071868439682
   RMS gradient:       0.000040957832
MG BCs: +ve charge blocks (gridpoints):     24269 (   16700292).
MG BCs: -ve charge blocks (gridpoints):      8446 (    1082900).
MG BCs:     Elided blocks (gridpoints):    169645 (  173187433).
MG BCs: Computational effort saved:  99.9829%.
MG BCs: Charge after coarse-graining:           -9.0006629.
MG DL_MG: Calling solver with defect correction order = 8
MG DL_MG: Solver finished
MG Hartree energy from (\int phi*rho dr):              1252.272978
MG Hartree energy from (\int eps (grad phi)^2 dr):     1251.614079
MG Discrepancy due to finite box and discretization:     -0.658899 (  -0.05262%)
MG Correction to account for finite box:                  0.474423
MG Remaining discrepancy, due to discretization:         -0.184476 (  -0.01473%)
     Trial step:       0.582944114870
             Q1:  -11718.170016407035
 Quadratic coef:       0.014588927723
 Linear coef   :      -0.041895283958
           Qmin:  -11718.172787909352
Quadratic minimum step length (  0.837025506190) accepted
    Initial Ne1:    7227.99999211
      Final Ne1:    7228.00000000

=================== Penalty functional idempotency correction ==================
 RMS occupancy error at iteration   1:  0.000340 (step -0.4761 Ne1=   7228.0000)
 RMS occupancy error at iteration   2:  0.000004 (step -0.5000 Ne1=   7228.0000)
            Final RMS occupancy error   :  0.000000 (Ne1=   7228.0000)
               Final occupancy bounds   : [  0.0000,  1.0000]
================================================================================

    4        -1.171814271005E+04     4.0958E-05     3.7054E-05    -6.7066E-02
MG BCs: +ve charge blocks (gridpoints):     24269 (   16700414).
MG BCs: -ve charge blocks (gridpoints):      8445 (    1082854).
MG BCs:     Elided blocks (gridpoints):    169645 (  173187357).
MG BCs: Computational effort saved:  99.9829%.
MG BCs: Charge after coarse-graining:           -9.0006628.
MG DL_MG: Calling solver with defect correction order = 8
MG DL_MG: Solver finished
MG Hartree energy from (\int phi*rho dr):              1252.317075
MG Hartree energy from (\int eps (grad phi)^2 dr):     1251.658311
MG Discrepancy due to finite box and discretization:     -0.658764 (  -0.05260%)
MG Correction to account for finite box:                  0.474345
MG Remaining discrepancy, due to discretization:         -0.184419 (  -0.01473%)
      ideal mu1:      -0.730993389206
             Q0:  -11718.172477887943
             G0:      -0.093561468555
   RMS gradient:       0.000047001202
MG BCs: +ve charge blocks (gridpoints):     24268 (   16701787).
MG BCs: -ve charge blocks (gridpoints):      8443 (    1082357).
MG BCs:     Elided blocks (gridpoints):    169646 (  173186481).
MG BCs: Computational effort saved:  99.9829%.
MG BCs: Charge after coarse-graining:           -9.0006626.
MG DL_MG: Calling solver with defect correction order = 8
MG DL_MG: Solver finished
MG Hartree energy from (\int phi*rho dr):              1253.275582
MG Hartree energy from (\int eps (grad phi)^2 dr):     1252.617454
MG Discrepancy due to finite box and discretization:     -0.658128 (  -0.05251%)
MG Correction to account for finite box:                  0.473828
MG Remaining discrepancy, due to discretization:         -0.184300 (  -0.01471%)
     Trial step:       0.698526372322
             Q1:  -11718.219067300204
 Quadratic coef:       0.018765740959
 Linear coef   :      -0.065355153219
           Qmin:  -11718.229380731023
Quadratic minimum step length (  1.216373448583) accepted
    Initial Ne1:    7227.99998097
      Final Ne1:    7228.00000000

=================== Penalty functional idempotency correction ==================
 RMS occupancy error at iteration   1:  0.003181 (step -0.3342 Ne1=   7228.0000)
 RMS occupancy error at iteration   2:  0.000170 (step -0.4899 Ne1=   7228.0000)
 RMS occupancy error at iteration   3:  0.000002 (step -0.5000 Ne1=   7228.0000)
            Final RMS occupancy error   :  0.000000 (Ne1=   7228.0000)
               Final occupancy bounds   : [  0.0000,  1.0000]
================================================================================

    5        -1.171817247789E+04     4.7001E-05     4.2521E-05    -2.9768E-02
MG BCs: +ve charge blocks (gridpoints):     24266 (   16702842).
MG BCs: -ve charge blocks (gridpoints):      8441 (    1081990).
MG BCs:     Elided blocks (gridpoints):    169648 (  173185793).
MG BCs: Computational effort saved:  99.9829%.
MG BCs: Charge after coarse-graining:           -9.0006623.
MG DL_MG: Calling solver with defect correction order = 8
MG DL_MG: Solver finished
MG Hartree energy from (\int phi*rho dr):              1253.994403
MG Hartree energy from (\int eps (grad phi)^2 dr):     1253.336672
MG Discrepancy due to finite box and discretization:     -0.657731 (  -0.05245%)
MG Correction to account for finite box:                  0.473520
MG Remaining discrepancy, due to discretization:         -0.184211 (  -0.01469%)
      ideal mu1:      -0.733913985808
             Q0:  -11718.216475321562
             G0:      -0.171960844359
   RMS gradient:       0.000070149285
========================= Kernel Line Step Protection ==========================
|  Iter |  Trial Step |   RMS Occupancy Error |   Occupancy Bounds | Accepted? |
    0        0.000000                0.000000    [ 1.0000:  0.0000]
    1        0.921775                0.015376    [ 1.5584: -0.5572]        No
    2        0.460887                0.005570    [ 1.2511: -0.2505]       Yes
================================================================================
MG BCs: +ve charge blocks (gridpoints):     24268 (   16703128).
MG BCs: -ve charge blocks (gridpoints):      8439 (    1082027).
MG BCs:     Elided blocks (gridpoints):    169646 (  173185470).
MG BCs: Computational effort saved:  99.9829%.
MG BCs: Charge after coarse-graining:           -9.0006622.
MG DL_MG: Calling solver with defect correction order = 8
MG DL_MG: Solver finished
MG Hartree energy from (\int phi*rho dr):              1254.039673
MG Hartree energy from (\int eps (grad phi)^2 dr):     1253.382553
MG Discrepancy due to finite box and discretization:     -0.657120 (  -0.05240%)
MG Correction to account for finite box:                  0.472945
MG Remaining discrepancy, due to discretization:         -0.184175 (  -0.01469%)
     Trial step:       0.460887440821
             Q1:  -11718.249571331078
 Quadratic coef:       0.046158583962
 Linear coef   :      -0.079254593478
           Qmin:  -11718.250495486654
Quadratic minimum step length (  0.395673389716) accepted
    Initial Ne1:    7227.99998600
      Final Ne1:    7228.00000000

=================== Penalty functional idempotency correction ==================
 RMS occupancy error at iteration   1:  0.004525 (step -0.2938 Ne1=   7228.0000)
 RMS occupancy error at iteration   2:  0.000274 (step -0.4829 Ne1=   7228.0000)
 RMS occupancy error at iteration   3:  0.000004 (step -0.5000 Ne1=   7228.0000)
            Final RMS occupancy error   :  0.000000 (Ne1=   7228.0000)
               Final occupancy bounds   : [  0.0000,  1.0000]
================================================================================

    6        -1.171821647532E+04     7.0149E-05     6.3462E-05    -4.3997E-02
MG BCs: +ve charge blocks (gridpoints):     24269 (   16703124).
MG BCs: -ve charge blocks (gridpoints):      8439 (    1081992).
MG BCs:     Elided blocks (gridpoints):    169645 (  173185509).
MG BCs: Computational effort saved:  99.9829%.
MG BCs: Charge after coarse-graining:           -9.0006622.
MG DL_MG: Calling solver with defect correction order = 8
MG DL_MG: Solver finished
MG Hartree energy from (\int phi*rho dr):              1254.028099
MG Hartree energy from (\int eps (grad phi)^2 dr):     1253.370962
MG Discrepancy due to finite box and discretization:     -0.657137 (  -0.05240%)
MG Correction to account for finite box:                  0.472963
MG Remaining discrepancy, due to discretization:         -0.184174 (  -0.01469%)
      ideal mu1:      -0.734789162821
             Q0:  -11718.252239041030
             G0:      -0.238050387534
   RMS gradient:       0.000074614479
MG BCs: +ve charge blocks (gridpoints):     24267 (   16701282).
MG BCs: -ve charge blocks (gridpoints):      8439 (    1082723).
MG BCs:     Elided blocks (gridpoints):    169647 (  173186620).
MG BCs: Computational effort saved:  99.9829%.
MG BCs: Charge after coarse-graining:           -9.0006626.
MG DL_MG: Calling solver with defect correction order = 8
MG DL_MG: Solver finished
MG Hartree energy from (\int phi*rho dr):              1252.695060
MG Hartree energy from (\int eps (grad phi)^2 dr):     1252.037917
MG Discrepancy due to finite box and discretization:     -0.657143 (  -0.05246%)
MG Correction to account for finite box:                  0.472842
MG Remaining discrepancy, due to discretization:         -0.184301 (  -0.01471%)
     Trial step:       0.427037347298
             Q1:  -11718.328305520699
 Quadratic coef:       0.025589926347
 Linear coef   :      -0.101656406016
           Qmin:  -11718.353196979948
Quadratic minimum step length (  0.848206465562) accepted
    Initial Ne1:    7227.99999749
      Final Ne1:    7228.00000000

=================== Penalty functional idempotency correction ==================
 RMS occupancy error at iteration   1:  0.000453 (step -0.4645 Ne1=   7228.0000)
 RMS occupancy error at iteration   2:  0.000003 (step -0.5000 Ne1=   7228.0000)
            Final RMS occupancy error   :  0.000000 (Ne1=   7228.0000)
               Final occupancy bounds   : [  0.0000,  1.0000]
================================================================================

    7        -1.171825223904E+04     7.4614E-05     6.7502E-05    -3.5764E-02
MG BCs: +ve charge blocks (gridpoints):     24266 (   16699705).
MG BCs: -ve charge blocks (gridpoints):      8440 (    1083340).
MG BCs:     Elided blocks (gridpoints):    169648 (  173187580).
MG BCs: Computational effort saved:  99.9829%.
MG BCs: Charge after coarse-graining:           -9.0006629.
MG DL_MG: Calling solver with defect correction order = 8
MG DL_MG: Solver finished
MG Hartree energy from (\int phi*rho dr):              1251.396273
MG Hartree energy from (\int eps (grad phi)^2 dr):     1250.739121
MG Discrepancy due to finite box and discretization:     -0.657151 (  -0.05251%)
MG Correction to account for finite box:                  0.472723
[...]
MG Discrepancy due to finite box and discretization:     -0.190393 (  -0.01575%)
MG Correction to account for finite box:                  0.006485
MG Remaining discrepancy, due to discretization:         -0.183909 (  -0.01521%)
     Trial step:       0.710695183943
             Q1:  -11752.192162275896
 Quadratic coef:       0.000000001537
 Linear coef   :      -0.000000005262
           Qmin:  -11752.192162276675
Quadratic minimum step length (  1.216522008385) accepted
    Initial Ne1:    7228.00000000
      Final Ne1:    7228.00000000

=================== Penalty functional idempotency correction ==================
 RMS occupancy error at iteration   1:  0.000000 (step -0.5000 Ne1=   7228.0000)
            Final RMS occupancy error   :  0.000000 (Ne1=   7228.0000)
               Final occupancy bounds   : [  0.0000,  1.0000]
================================================================================

    7        -1.175219216227E+04     1.3159E-08     1.1905E-08    -5.7044E-09

Reusing previously generated solute cavity.
MG BCs: +ve charge blocks (gridpoints):     28421 (   18839232).
MG BCs: -ve charge blocks (gridpoints):      8430 (    1052035).
MG BCs:     Elided blocks (gridpoints):    165493 (  171079358).
MG BCs: Computational effort saved:  99.9807%.
MG BCs: Charge after coarse-graining:           -9.0009552.
MG DL_MG: Calling solver with defect correction order = 8
MG DL_MG: Solver finished
MG Hartree energy from (\int phi*rho dr):              1209.151972
MG Hartree energy from (\int eps (grad phi)^2 dr):     1208.961578
MG Discrepancy due to finite box and discretization:     -0.190393 (  -0.01575%)
MG Correction to account for finite box:                  0.006485
MG Remaining discrepancy, due to discretization:         -0.183909 (  -0.01521%)
      ideal mu1:      -0.485351419961
             Q0:  -11752.192162274849
             G0:      -0.000000000546
   RMS gradient:       0.000000024098

Reusing previously generated solute cavity.
MG BCs: +ve charge blocks (gridpoints):     28421 (   18839233).
MG BCs: -ve charge blocks (gridpoints):      8430 (    1052035).
MG BCs:     Elided blocks (gridpoints):    165493 (  171079357).
MG BCs: Computational effort saved:  99.9807%.
MG BCs: Charge after coarse-graining:           -9.0009552.
MG DL_MG: Calling solver with defect correction order = 8
MG DL_MG: Solver finished
MG Hartree energy from (\int phi*rho dr):              1209.152142
MG Hartree energy from (\int eps (grad phi)^2 dr):     1208.961749
MG Discrepancy due to finite box and discretization:     -0.190393 (  -0.01575%)
MG Correction to account for finite box:                  0.006485
MG Remaining discrepancy, due to discretization:         -0.183909 (  -0.01521%)
     Trial step:       0.929825968943
             Q1:  -11752.192162264721
 Quadratic coef:       0.000000010636
 Linear coef   :      -0.000000000507
           Qmin:  -11752.192162274854
Quadratic minimum step length (  0.022175578703) accepted
    Initial Ne1:    7228.00000000
      Final Ne1:    7228.00000000

=================== Penalty functional idempotency correction ==================
 RMS occupancy error at iteration   1:  0.000000 (step -0.5000 Ne1=   7228.0000)
            Final RMS occupancy error   :  0.000000 (Ne1=   7228.0000)
               Final occupancy bounds   : [  0.0000,  1.0000]
================================================================================

    8        -1.175219216227E+04     2.4098E-08     2.1801E-08    -2.6776E-09

Reusing previously generated solute cavity.
MG BCs: +ve charge blocks (gridpoints):     28421 (   18839232).
MG BCs: -ve charge blocks (gridpoints):      8430 (    1052035).
MG BCs:     Elided blocks (gridpoints):    165493 (  171079358).
MG BCs: Computational effort saved:  99.9807%.
MG BCs: Charge after coarse-graining:           -9.0009552.
MG DL_MG: Calling solver with defect correction order = 8
MG DL_MG: Solver finished
MG Hartree energy from (\int phi*rho dr):              1209.151976
MG Hartree energy from (\int eps (grad phi)^2 dr):     1208.961582
MG Discrepancy due to finite box and discretization:     -0.190393 (  -0.01575%)
MG Correction to account for finite box:                  0.006485
MG Remaining discrepancy, due to discretization:         -0.183909 (  -0.01521%)
      ideal mu1:      -0.485351422240
             Q0:  -11752.192162274849
             G0:      -0.000000025451
   RMS gradient:       0.000000024461

Reusing previously generated solute cavity.
MG BCs: +ve charge blocks (gridpoints):     28421 (   18839232).
MG BCs: -ve charge blocks (gridpoints):      8430 (    1052035).
MG BCs:     Elided blocks (gridpoints):    165493 (  171079358).
MG BCs: Computational effort saved:  99.9807%.
MG BCs: Charge after coarse-graining:           -9.0009552.
MG DL_MG: Calling solver with defect correction order = 8
MG DL_MG: Solver finished
MG Hartree energy from (\int phi*rho dr):              1209.151960
MG Hartree energy from (\int eps (grad phi)^2 dr):     1208.961567
MG Discrepancy due to finite box and discretization:     -0.190393 (  -0.01575%)
MG Correction to account for finite box:                  0.006485
MG Remaining discrepancy, due to discretization:         -0.183909 (  -0.01521%)
     Trial step:       0.143594668961
             Q1:  -11752.192162277643
 Quadratic coef:       0.000000000860
 Linear coef   :      -0.000000003655
           Qmin:  -11752.192162278730
Quadratic minimum step length (  0.304971323591) accepted
    Initial Ne1:    7228.00000000
      Final Ne1:    7228.00000000

=================== Penalty functional idempotency correction ==================
 RMS occupancy error at iteration   1:  0.000000 (step -0.5000 Ne1=   7228.0000)
            Final RMS occupancy error   :  0.000000 (Ne1=   7228.0000)
               Final occupancy bounds   : [  0.0000,  1.0000]
================================================================================

    9        -1.175219216227E+04     2.4461E-08     2.2129E-08     0.0000E+00

Reusing previously generated solute cavity.
MG BCs: +ve charge blocks (gridpoints):     28421 (   18839232).
MG BCs: -ve charge blocks (gridpoints):      8430 (    1052035).
MG BCs:     Elided blocks (gridpoints):    165493 (  171079358).
MG BCs: Computational effort saved:  99.9807%.
MG BCs: Charge after coarse-graining:           -9.0009552.
MG DL_MG: Calling solver with defect correction order = 8
MG DL_MG: Solver finished
MG Hartree energy from (\int phi*rho dr):              1209.151943
MG Hartree energy from (\int eps (grad phi)^2 dr):     1208.961550
MG Discrepancy due to finite box and discretization:     -0.190393 (  -0.01575%)
MG Correction to account for finite box:                  0.006485
MG Remaining discrepancy, due to discretization:         -0.183909 (  -0.01521%)
      ideal mu1:      -0.485351335254
   10        -1.175219216228E+04     1.3261E-08     1.1997E-08    -4.0745E-09
Finished density kernel iterations (  10)

Writing density kernel to file "complex_30881.dkn" ... done


>>> Density kernel optimised for the current NGWF basis:
     ~~~~~~~~~~~~~~~~~~~~~~~~~~~~~~~~~~~~~~~~~~~~~~~~~~~~~~~~~~~
     Total energy                =  -1.17521921622789E+04  Eh
     Estimated bandgap           =   7.3546E-02  Eh
     RMS occupancy error         =   3.7558E-16
     [H,K] commutator            =   1.1997E-08
     Occupancy bounds            = [  0.000:  1.000]
     ~~~~~~~~~~~~~~~~~~~~~~~~~~~~~~~~~~~~~~~~~~~~~~~~~~~~~~~~~~~




################################################################################
########################### NGWF CG iteration  004 #############################
################################################################################
****** Reciprocal space K.E. preconditioning with k_zero =  3.5000 a0^-1 *******

>>> Checking for convergence of NGWFs: 
           ........................................................
           |         *** NGWF optimisation converged ***          |
           | RMS NGWF gradient =    0.00000171565192              |
           | Criteria satisfied:                                  |
           | -> RMS NGWF gradient lower than set threshold.       |
           ========================================================

Reusing previously generated solute cavity.
MG BCs: +ve charge blocks (gridpoints):     28421 (   18839232).
MG BCs: -ve charge blocks (gridpoints):      8430 (    1052035).
MG BCs:     Elided blocks (gridpoints):    165493 (  171079358).
MG BCs: Computational effort saved:  99.9807%.
MG BCs: Charge after coarse-graining:           -9.0009552.
MG DL_MG: Calling solver with defect correction order = 8
MG DL_MG: Solver finished
MG Hartree energy from (\int phi*rho dr):              1209.151943
MG Hartree energy from (\int eps (grad phi)^2 dr):     1208.961550
MG Discrepancy due to finite box and discretization:     -0.190393 (  -0.01575%)
MG Correction to account for finite box:                  0.006485
MG Remaining discrepancy, due to discretization:         -0.183909 (  -0.01521%)

================================================================================
           ---------------- ENERGY COMPONENTS (Eh) ----------------
           | Kinetic                    :     8599.45523262954703 |
           | Pseudo. (local,OBC,corr'd) :    -5095.73990815891375 |
           | Pseudopotential (non-local):     1410.72761778543691 |
           | Hartree (molecular)        :     1209.15194287199006 |
           | Exchange-correlation       :    -3398.76829394680999 |
           | Ion-ion (open BC)          :   839971.98018748394679 |
           | Smeared ion non-self corr. :  -839923.62978100287728 |
           | Smeared ion self corr.     :   -14525.98710726666468 |
           | Solvent cavitation energy  :        2.19851401036731 |
           | Solute-solvent dis-rep en. :       -1.58056668490332 |
           | Total                      :   -11752.19216227891775 |
           --------------------------------------------------------
           ------ LOCAL ENERGY COMPONENTS FROM MATRIX TRACES ------
           | Pseudopotential (local)    :    -5095.73990815891921 |
           | Hartree                    :    -2012.29144399806864 |
           --------------------------------------------------------
           Integrated density           :     7227.99999999895135
           Integrated density tr(KS)    :     7228.00000000000182
================================================================================


                        <<<<< CALCULATION SUMMARY >>>>>                         
|ITER|    RMS GRADIENT   |     TOTAL ENERGY    |   step   |     Epredicted              
   0     0.00004135516570 -11752.12298755743541   0.635479 -11752.18264365349751        
   1     0.00000879179041 -11752.19180667831097   0.068106 -11752.19209563457480        
   2     0.00000384791530 -11752.19215080316644   0.012393 -11752.19216087499444        
   3     0.00000171565192 -11752.19216227892321  <-- CG                                 

=================== Finished the calculation in solvent ========================
= Adjusting the following parameters: 
= read_denskern: F
= read_tightbox_ngwfs: F
= maxit_pen: 0 (restored to user-specified value)
= restart read filename prefix: ""
= restart write filename prefix: ""
================================================================================

================================================================================
IS: Calculation in solvent completed (NGWFs converged).      

Individual components of total energy in solvent:     hartree           kcal/mol
- Usual non-electrostatic DFT terms:    -12961.96205247637772    -8133753.813913
- Electrostatic fixed charge energy:      1209.15194287199006      758754.283273
- Apolar cavitation energy:                  2.19851401036731        1379.588340
- Apolar dispersion-repulsion energy:       -1.58056668490332        -991.820548
 -------------------------------------------------------------------------------
- Total energy in solvent:              -11752.19216227892321    -7374611.762847

Components of total energy in solvent:                hartree           kcal/mol
- Usual non-electrostatic DFT terms:    -12961.96205247637772    -8133753.813913
- Electrostatic energy:                   1209.15194287199006      758754.283273
- Apolar energy terms:                       0.61794732546399         387.767793
 -------------------------------------------------------------------------------
- Total energy in solvent:              -11752.19216227892321    -7374611.762847

Calculation of free energy of solvation:              hartree           kcal/mol
- Total energy in solvent:         (+)  -11752.19216227892321    -7374611.762847
- Total energy in vacuum:          (-)  -11748.32705398404505    -7372186.370826
 -------------------------------------------------------------------------------
- Total free energy of solvation:           -3.86510829487815       -2425.392021

Components of polar term in f.e. of solvation:        hartree           kcal/mol
- Electrostatic:                            -4.44236798624138       -2787.627938
- Change in nonelectrostatic DFT terms:     -0.04068763410032         -25.531875
 -------------------------------------------------------------------------------
- Polar term in f.e. of solvation:          -4.48305562034170       -2813.159813

Components of free energy of solvation:               hartree           kcal/mol
- Polar term in f.e. of solvation: (+)      -4.48305562034170       -2813.159813
- Apolar (cavitation, dis., rep.): (+)       0.61794732546399         387.767793
 -------------------------------------------------------------------------------
- Total free energy of solvation:           -3.86510829487771       -2425.392021
================================================================================


------------------------------ TIMING INFORMATION ------------------------------
AVERAGE TIME:   32965.633s on     60 node(s)                                    
TOTAL TIME:     32965.634s on     60 node(s)                                    
================= AVERAGE TIMINGS FROM ALL NODES (CUMULATIVE) ==================
|| TAG                                    #calls    cpu time   %total  Gflops ||
|| work_imbalance                       :     1        0.00s   0.000%  ------ ||
|| sparse_set_to_garbage                :   164        0.03s   0.000%  ------ ||
|| parallel_prepare_fd_halos_request    :  1821        0.03s   0.000%  ------ ||
|| ngwfs_initialise_from_radial         :     1        0.11s   0.000%  ------ ||
|| basis_extract_function_from_box      :  3378        0.15s   0.000%  ------ ||
|| parallel_prepare_fd_halos_satisfy    :  1821        0.62s   0.002%  ------ ||
|| parallel_prepare_fd_halos_alloc      :  1821        0.71s   0.002%  ------ ||
|| pseudopotentials_nonlocal_mat        :    28        2.23s   0.007%  ------ ||
|| openbc_locps_radial                  :     1        2.95s   0.009%  ------ ||
|| density_init_guess_real              :     1        5.03s   0.015%  ------ ||
|| restart_kernel_read                  :     1        5.75s   0.017%  ------ ||
|| restart_ngwfs_tightbox_input         :     1        8.78s   0.027%  ------ ||
|| parallel_prepare_fd_halos_comms_imbal:  1821       10.46s   0.032%  ------ ||
|| parallel_prepare_fd_halos_clear      :  1821       17.88s   0.054%  ------ ||
|| sparse_init                          :     2       22.63s   0.069%  ------ ||
|| parallel_prepare_fd_halos_comms_wait :  1821       23.28s   0.071%  ------ ||
|| projectors_func_ovlp_box             :    28       24.90s   0.076%  ------ ||
|| function_ops_brappd_ketppd           :    28       29.51s   0.090%  ------ ||
|| projectors_init_fftbox_recip         :   133       32.78s   0.099%  ------ ||
|| palser_mano_kernel_optimise          :     1       36.31s   0.110%  ------ ||
|| basis_copy_function_to_box           : 54709       42.05s   0.128%  ------ ||
|| ngwf_gradient_coeffs                 :    15       46.10s   0.140%  ------ ||
|| fourier_apply_box_pair               :  4809       50.53s   0.153% 586.868 ||
|| pseudo_make_structure_factor         :     2       51.33s   0.156%  ------ ||
|| parallel_prepare_fd_halos            :  1821       53.00s   0.161%  ------ ||
|| sparse_embed_hotelling_invert_embed  :    28       72.89s   0.221%  ------ ||
|| finite_difference_derivative         :  1821      128.01s   0.388%  ------ ||
|| integrals_kinetic                    :    28      140.42s   0.426%  ------ ||
|| restart_kernel_write                 :    16      159.23s   0.483%  ------ ||
|| projectors_gradient_batch            :   105      168.69s   0.512%  ------ ||
|| basis_dot_function_with_box          : 8.559M     172.07s   0.522%  ------ ||
|| sparse_trace                         :  5081      187.42s   0.569%  ------ ||
|| openbc_locps_on_grid                 :     2      261.75s   0.794%  ------ ||
|| kernel_purify                        :   463      272.78s   0.827%  ------ ||
|| lnv_gradient_norm                    :   150      403.81s   1.225%  ------ ||
|| basis_add_function_to_box            : 17.75M     403.89s   1.225%  ------ ||
|| kernel_fix                           :   150      505.71s   1.534%  ------ ||
|| hamiltonian_energy_components        :     4      552.74s   1.677%  ------ ||
|| integrals_locpot_mat_els_batch       :  1113      698.50s   2.119%  ------ ||
|| ngwf_gradient_build_batch            :   105      740.30s   2.246%  ------ ||
|| ngwf_gradient_batch                  :   105     1017.53s   3.087%  ------ ||
|| density_batch_row_sums               :  2114     1072.81s   3.254%  ------ ||
|| ngwf_gradient_lnv                    :    15     1138.67s   3.454%  ------ ||
|| restart_ngwfs_tightbox_output        :    13     1153.69s   3.500%  ------ ||
|| cell_grid_deposit_box_real           : 34782     1318.07s   3.998%  ------ ||
|| fourier_apply_cell_forward           :  8485     1348.99s   4.092%  84.468 ||
|| fourier_apply_cell_backward          :  9093     1525.30s   4.627%  80.057 ||
|| cell_grid_extract_box_real           : 38214     1592.26s   4.830%  ------ ||
|| sparse_product                       :  6331     1745.98s   5.296%  ------ ||
|| density_fftbox_deposit_to_cell       : 32918     1989.83s   6.036%  ------ ||
|| density_fftbox_interpolate_multiply  : 32918     3644.04s  11.054%  ------ ||
|| potential_apply_to_ngwf_batch        :  1113     3684.63s  11.177%  ------ ||
|| xc_energy_potential                  :   303     3746.26s  11.364%  ------ ||
|| multigrid_prepare_bound_cond         :   303     4234.14s  12.844%  ------ ||
|| integrals_locpot_dbl_grid            :   159     4403.58s  13.358%  ------ ||
|| fourier_apply_box                    : 114.4k    4495.05s  13.636% 760.756 ||
|| nlxc_vdw_energy                      :   606     6063.13s  18.392%  ------ ||
|| density_batch_interp_deposit         :  2114     6556.55s  19.889%  ------ ||
|| dl_mg_solver_calls                   :   303     6724.02s  20.397%  ------ ||
|| density_on_dbl_grid                  :   302     7916.71s  24.015%  ------ ||
|| multigrid_calculate_hartree          :   303    11132.40s  33.770%  ------ ||
|| hamiltonian_lhxc_calculate           :   298    22645.04s  68.693%  ------ ||
|| lnv_denskernel_optimise_cg           :    15    27829.25s  84.419%  ------ ||
|| ngwf_cg_optimise                     :     2    32039.39s  97.190%  ------ ||
|| total_time                           :     1    32965.63s 100.000%  ------ ||
================================================================================
Overhead of generating timer report: 
- 0 ms averaging over threads,
- 15 ms ensuring consistency across MPI ranks,
- 0 ms printing in order.

Job completed: 22-02-2020 18:48 (-0000)

Application 39155930 resources: utime ~6565097s, stime ~225146s, Rss ~3903012, inblocks ~307116565, outblocks ~63560352
