 +---------------------------------------------------------------+
 |                                                               |
 |        ####### #     # ####### ####### ####### ######         |
 |        #     # ##    # #          #    #       #     #        |
 |        #     # # #   # #          #    #       #     #        |
 |        #     # #  #  # #####      #    #####   ######         |
 |        #     # #   # # #          #    #       #              |
 |        #     # #    ## #          #    #       #              |
 |        ####### #     # #######    #    ####### #              |
 |                                                               |
 |        Linear-Scaling Ab Initio Total Energy Program          |
 |                                                               |
 |          Release for academic collaborators of ODG            |
 |                                             Version 5.3.2.6.  |
 |                                                               |
 +---------------------------------------------------------------+
 |                                                               |
 |  Authors:                                                     |
 |  Jacek Dziedzic, Peter D. Haynes, Nicholas D. M. Hine,        |
 |  Arash. A. Mostofi, Mike C. Payne and Chris-Kriton Skylaris   |
 |                                                               |
 |  Contributors:                                                |
 |  J. Aarons, L. Andrinopoulos, P. W. Avraam, R. A. Bell,       |
 |  A. Bhandari, G. A. Bramley, R. J. Charlton, S. J. Clark,     |
 |  R. J. Clements, G. C. Constantinescu, F. Corsetti,           |
 |  N. Corsini, O. Dieguez, S. M. M. Dubois, K. K. B. Duff,      |
 |  J. M. Escartin, A. Greco, H. Helal, Q. O. Hill, L. P. Lee,   |
 |  J.-H. Li, E. B. Linscott, G. Moynihan, D. D. O`Regan,        |
 |  O. K. Okan, M. J. S. Phipps, C. J. Pickard,                  |
 |  J. C. A. Prentice, M. I. J. Probert, L. E. Ratcliff,         |
 |  M. Robinson, A. Ruiz Serrano, J. S. Spencer, E. W. Tait,     |
 |  G. Teobaldi, D. Turban, V. Vitale, K. A. Wilkinson,          |
 |  C. Weber, J. C. Womack, N. Yeung and T. J. Zuehlsdorff       |
 |                                                               |
 |                                   Copyright (c) 2004-2019     |
 |                                                               |
 |  Please cite:                                                 |
 |  "Introducing ONETEP: Linear-scaling density functional       |
 |   simulations on parallel computers".                         |
 |   C.-K. Skylaris, P. D. Haynes, A. A. Mostofi, M. C. Payne.   |
 |   J. Chem. Phys. 122 084119 (2005).                           |
 |                                                               |
 |          in all publications arising from your use of ONETEP. |
 |                                                               |
 +---------------------------------------------------------------+
 |                                                               |
 |   ONETEP is based on developments described in the following  |
 |   publications:                                               |
 |                                                               |
 |  "Nonorthogonal generalized Wannier function pseudopotential  |
 |   plane-wave method".                                         |
 |   C.-K. Skylaris, A. A. Mostofi, P. D. Haynes, O. Dieguez,    |
 |   M. C. Payne.                                                |
 |   Phys. Rev. B 66 035119 (2002).                              |
 |                                                               |
 |  "Preconditioned iterative minimization for linear-scaling    |
 |   electronic structure calculations".                         |
 |   A. A. Mostofi, P. D. Haynes, C.-K. Skylaris, M. C. Payne.   |
 |   J. Chem. Phys. 119(17), pp.8842-8848 (2003).                |
 |                                                               |
 |  "Total-energy calculations on a real space grid with         |
 |   localized functions and a plane-wave basis".                |
 |   A. A. Mostofi, C.-K. Skylaris, P. D. Haynes, M. C. Payne.   |
 |   Comput. Phys. Commun. 147, pp.788-802 (2002).               |
 |                                                               |
 |  "Accurate kinetic energy evaluation in electronic structure  |
 |   calculations with localized functions on real space grids"  |
 |   C.-K. Skylaris, A. A. Mostofi, P. D. Haynes, C. J. Pickard, |
 |   M. C. Payne.                                                |
 |   Comput. Phys. Commun. 140, pp.315-322 (2001).               |
 |                                                               |
 |  "Accurate ionic forces and geometry optimization in linear-  |
 |   scaling density-functional theory with local orbitals"      |
 |   N. D. M. Hine, M. Robinson, P. D. Haynes, C.-K. Skylaris,   |
 |   M. C. Payne, and A. A. Mostofi.                             |
 |   Phys. Rev. B 83 195102 (2011).                              |
 |                                                               |
 +---------------------------------------------------------------+

Job started: 22-02-2020 09:38 (-0000)
 
Reading parameters from file "complex_35441.dat" ...... done

If your calculation crashes here, before "Checking processes and threads..."
is displayed, then your stack size is insufficient.
If so, use "ulimit -s unlimited" at runtime.
You can disable this check with "check_stack_size F".

Checking processes and threads...
   Determining the default number of threads...
      No default threads set at compilation time: defaulting to 1.
      OpenMP library call suggests 4 threads.
      Hybrid MPI-OpenMP compilation detected.
      Number of MPI processes > 1.
      OMP_NUM_THREADS environment variable present and
      its value matches the one obtained from the OpenMP library call.
      Using this value as default.
      Default threads: 4
      Default applies to threads_max and threads_num_fftboxes.
      Settings in the input file override this default.
   ... done

   Running with 60 MPI processes.
   There are 6 MPI processes running on the same node as the root process.
   Each MPI process is using: 
               1 threads for simulation cell FFTs.
               1 threads for parallel FFT box operations.
               4 threads for loops over batched FFT box operations.
               4 threads in other parallel regions.
... done

Basic input checks...... done

Reading geometry and species blocks from file "complex_35441.dat" ...
  <species_atomic_set> block not found: NGWF initialisation set to SOLVE
IS: Dielectric excluded regions:
    - NONE.
    
  Number of PPD points along a3 set to 1.  This is 
  the default value, it may have been provided also in the input file.
... done
 Writing xyz coordinates to file "complex_35441.xyz" ... done


--------------------------------------------------------------------------------
---------------------------------- INPUT FILE ----------------------------------
--------------------------------------------------------------------------------

cutoff_energy       : 800 eV                                                    
xc_functional VV10                                                              
task SINGLEPOINT                                                                
write_xyz true                                                                  
output_detail VERBOSE                                                           
ngwf_threshold_orig : 0.000002                                                  
kernel_cutoff       : 1000                                                      
k_zero              : 3.5                                                       
elec_cg_max 0                                                                   
occ_mix 1.0                                                                     
dispersion 0                                                                    
maxit_ngwf_cg 40                                                                
minit_lnv 10                                                                    
maxit_lnv 10                                                                    
write_denskern T                                                                
write_tightbox_ngwfs T                                                          
charge 9                                                                        
is_implicit_solvent T                                                           
is_auto_solvation T                                                             
is_include_apolar T                                                             
is_smeared_ion_rep T                                                            
is_solvent_surf_tension 4.7624E-5 Ha/bohr**2                                    
is_apolar_scaling_factor 0.281075                                               
is_solvation_beta 1.3                                                           
is_density_threshold 0.00035                                                    
is_bulk_permittivity 78.54                                                      
is_dielectric_model fix_initial                                                 
is_smeared_ion_width 0.8                                                        
mg_defco_fd_order 8                                                             
is_bc_coarseness 10                                                             
is_bc_surface_coarseness 1                                                      
fine_grid_scale 2.0                                                             
%block species                                                                  
N   N   7 4 8.0                                                                 
H   H   1 1 8.0                                                                 
C   C   6 4 8.0                                                                 
S   S  16 9 8.0                                                                 
O   O   8 4 8.0                                                                 
%endblock species                                                               
%block species_pot                                                              
N   N_00.recpot                                                                 
H   H_04.recpot                                                                 
C   C_01.recpot                                                                 
S   S_00.recpot                                                                 
O   O_02.recpot                                                                 
%endblock species_pot                                                           
%block lattice_cart                                                             
135.996   0.000   0.000                                                         
0.000 142.663   0.000                                                           
0.000   0.000   160.158                                                         
%endblock lattice_cart                                                          
%block positions_abs                                                            
     Hash =  -000003803385293824070214
%endblock positions_abs                                                         

--------------------------------------------------------------------------------
-------------------------------- END INPUT FILE --------------------------------
--------------------------------------------------------------------------------


 
 ESDF WARNING(1): "kernelcutoff" (esdf_physical) has no units. Assume "bohr".
 ESDF WARNING(2): "kzero" (esdf_physical) has no units. Assume "1/bohr".
 ESDF WARNING(3
 ): "issmearedionwidth" (esdf_physical) has no units. Assume "bohr".
<<<<<<<<<<<<<<<<<<<<<<<<<<<<<<<<< Full system >>>>>>>>>>>>>>>>>>>>>>>>>>>>>>>>>>
<<<<<<<<<<<<<<<<<<<<<<<<< Pseudopotential information >>>>>>>>>>>>>>>>>>>>>>>>>>
File: N_00.recpot [ 2001 points up to Gmax=  52.9 (1/bohr)]
  Atomic number:  7;  ionic charge:  5.000000
    Shell 1: l = 0; rc = 1.48 bohr
File: H_04.recpot [ 2001 points up to Gmax=  52.9 (1/bohr)]
  Atomic number:  1;  ionic charge:  1.000000
    Local potential
File: C_01.recpot [ 2001 points up to Gmax=  52.9 (1/bohr)]
  Atomic number:  6;  ionic charge:  4.000000
    Shell 1: l = 0; rc = 1.48 bohr
File: S_00.recpot [ 2001 points up to Gmax=  52.9 (1/bohr)]
  Atomic number: 16;  ionic charge:  6.000000
    Shell 1: l = 0; rc = 1.90 bohr
    Shell 2: l = 2; rc = 1.84 bohr
File: O_02.recpot [ 2001 points up to Gmax=  52.9 (1/bohr)]
  Atomic number:  8;  ionic charge:  6.000000
    Shell 1: l = 0; rc = 1.31 bohr
<<<<<<<<<<<<<<<<<<<<<<<<<<<<<<<<<<<<<<<<>>>>>>>>>>>>>>>>>>>>>>>>>>>>>>>>>>>>>>>>

-------------------------- Atom counting information ---------------------------
Symbol    Natoms    Nngwfs    Nprojs
  N        236       944       236
  H       1317      1317         0
  C        816      3264       816
  S          6        54        36
  O        240       960       240
.......   ......    ......    ......
Totals:   2615      6539      1328
--------------------------------------------------------------------------------

=============================== PSINC grid sizes ===============================
                      Simulation cell:  270 x 286 x 315
                              FFT-box:   99 x 105 x  99
                                  PPD:    5 x  11 x   1
Grid space d1=  0.503688888889a0 (KE cutoff=  29.94189Eh = 814.76038eV)
Grid space d2=  0.498821678322a0 (KE cutoff=  30.52906Eh = 830.73786eV)
Grid space d3=  0.508438095238a0 (KE cutoff=  29.38514Eh = 799.61048eV)
================================================================================

********************* Fourier parallelisation information **********************
       Coarse grid (whole simulation cell) dimensions:    270   286   315
          Real-space ('12') slabs/node (min max mean):      5     6     5
         Recip-space ('23') slabs/node (min max mean):      2     3     2
********************************************************************************

********************* Fourier parallelisation information **********************
       Double grid (whole simulation cell) dimensions:    540   572   630
          Real-space ('12') slabs/node (min max mean):     10    11    10
         Recip-space ('23') slabs/node (min max mean):      4     5     4
********************************************************************************
ONETEP fine grid is 540 x 572 x 630 gridpoints, 135.9960 x 142.6630 x 160.1580 bohr.
FD multigrid is     537 x 569 x 625 gridpoints, 135.2405 x 141.9148 x 158.8869 bohr.


Calculating local pseudopotential in open BC on a radial grid ...
Discrepancy between calculated realspace psloc and -Z/x on [5a0,253.965a0]:
max |rel. diff| # avg |rel. diff| #  avg rel. diff #  f # pseudopotential file
 0.000259282084    0.000004141996   0.000000074978   54  'N_00.recpot'
 0.000405386992    0.000016970607  -0.000000075982   54  'H_04.recpot'
 0.000371694516    0.000017434762   0.000000149329   54  'C_01.recpot'
 0.000461642895    0.000020341726   0.000000491514   54  'S_00.recpot'
 0.000682525123    0.000027368244   0.000000159803   54  'O_02.recpot'
... done

Atom SCF Calculation for N  : Z (AE atom) =   7 : Z (PS atom) =   5
Config String:
Orbitals (num,occ):  2     2.00 3.00
Orbitals   (num,l):  2        0    1
Real-space Grid (nr,dr,rmax): 1203    0.0066555740    8.0000000000
Spherical Bessel Basis (nsws,lmax,cutoff):   47    1  176.3951722778
Confining potential (l,width,scale):  0    3.0000000000  100.0000000000
Confining potential (l,width,scale):  1    3.0000000000  100.0000000000
  1         -4.7366890484   -3.4501654188    7.0523828109   -1.9619316308
  2         -9.7225420322   -2.0763080851    8.3068355706   -2.2908832437
  3         -9.7134243553   -2.1270543915    8.2534567806   -2.2819809971
  4         -9.7235185949   -2.1427582218    8.2369947390   -2.2802814234
  5         -9.7258373845   -2.1477905863    8.2317116314   -2.2798536235
  6         -9.7268932325   -2.1503512400    8.2290229806   -2.2796830099
  7         -9.7273189469   -2.1516634231    8.2276451699   -2.2796169657
  8         -9.7274675212   -2.1523365544    8.2269384796   -2.2795940092
  9         -9.7275041773   -2.1526817003    8.2265762312   -2.2795881371
 10         -9.7275008637   -2.1528585007    8.2263907413   -2.2795884060
 11         -9.7274868305   -2.1529489544    8.2262958841   -2.2795903922
 12         -9.7274755655   -2.1529859230    8.2262571347   -2.2795920452
 13         -9.7274662327   -2.1530083995    8.2262335832   -2.2795934369
 14         -9.7274589439   -2.1530220534    8.2262192809   -2.2795945372
 15         -9.7274534633   -2.1530303399    8.2262106039   -2.2795953734
 16         -9.7274494492   -2.1530353634    8.2262053452   -2.2795959920
 17         -9.7274465654   -2.1530384053    8.2262021621   -2.2795964406
 18         -9.7274445237   -2.1530402447    8.2262002378   -2.2795967611
 19         -9.7274430947   -2.1530413553    8.2261990762   -2.2795969874
 20         -9.7274421038   -2.1530420249    8.2261983762   -2.2795971458
 21         -9.7274414219   -2.1530424277    8.2261979551   -2.2795972557
 22         -9.7274409555   -2.1530426696    8.2261977024   -2.2795973315
 23         -9.7274406382   -2.1530428144    8.2261975510   -2.2795973835
 24         -9.7274404232   -2.1530429010    8.2261974606   -2.2795974190
 25         -9.7274402783   -2.1530429525    8.2261974067   -2.2795974432
 26         -9.7274401808   -2.1530429831    8.2261973748   -2.2795974596
Atom SCF converged after  26 iterations to a total energy of     -9.72744018

Atom SCF Calculation for H  : Z (AE atom) =   1 : Z (PS atom) =   1
Config String:
Orbitals (num,occ):  1     1.00
Orbitals   (num,l):  1        0
Real-space Grid (nr,dr,rmax): 1203    0.0066555740    8.0000000000
Spherical Bessel Basis (nsws,lmax,cutoff):   47    0  176.3951722778
Confining potential (l,width,scale):  0    3.0000000000  100.0000000000
  1         -0.3178661827   -0.2469879004    0.2820953124   -0.2487802071
  2         -0.3961824611   -0.2455070831    0.2902209900   -0.2567664324
  3         -0.4406462424   -0.2424227551    0.2948173255   -0.2622129794
  4         -0.4569739054   -0.2416771342    0.2960118236   -0.2639986016
  5         -0.4627745219   -0.2416114401    0.2961916694   -0.2644992007
  6         -0.4648634749   -0.2416666130    0.2961598921   -0.2646237065
  7         -0.4656347011   -0.2417155160    0.2961132802   -0.2646490719
  8         -0.4659271144   -0.2417438448    0.2960836537   -0.2646515522
  9         -0.4660407254   -0.2417580788    0.2960682004   -0.2646501482
 10         -0.4660857867   -0.2417647566    0.2960608087   -0.2646488305
 11         -0.4661039568   -0.2417677717    0.2960574330   -0.2646480606
 12         -0.4661113773   -0.2417691018    0.2960559329   -0.2646476727
 13         -0.4661144368   -0.2417696800    0.2960552775   -0.2646474903
 14         -0.4661157072   -0.2417699291    0.2960549942   -0.2646474079
 15         -0.4661162374   -0.2417700356    0.2960548727   -0.2646473715
 16         -0.4661164596   -0.2417700810    0.2960548208   -0.2646473556
 17         -0.4661165529   -0.2417701003    0.2960547987   -0.2646473488
Atom SCF converged after  17 iterations to a total energy of     -0.46611655

Atom SCF Calculation for C  : Z (AE atom) =   6 : Z (PS atom) =   4
Config String:
Orbitals (num,occ):  2     2.00 2.00
Orbitals   (num,l):  2        0    1
Real-space Grid (nr,dr,rmax): 1203    0.0066555740    8.0000000000
Spherical Bessel Basis (nsws,lmax,cutoff):   47    1  176.3951722778
Confining potential (l,width,scale):  0    3.0000000000  100.0000000000
Confining potential (l,width,scale):  1    3.0000000000  100.0000000000
  1         -5.2812238291   -1.3293161250    4.5135249990   -1.4716766231
  2         -5.3996591362   -1.3542148509    4.4876064308   -1.4645117417
  3         -5.4111847148   -1.3757224423    4.4645718036   -1.4593107263
  4         -5.4199203659   -1.3833334895    4.4563636676   -1.4579885221
  5         -5.4226876204   -1.3865104950    4.4529090432   -1.4575385943
  6         -5.4235070726   -1.3878131251    4.4514866831   -1.4573882877
  7         -5.4237271252   -1.3883401868    4.4509094528   -1.4573411661
  8         -5.4237693051   -1.3885521813    4.4506766230   -1.4573281030
  9         -5.4237656430   -1.3886371046    4.4505830704   -1.4573255254
 10         -5.4237547927   -1.3886709976    4.4505456041   -1.4573257244
 11         -5.4237478594   -1.3886817763    4.4505336403   -1.4573262476
 12         -5.4237429748   -1.3886873440    4.4505274417   -1.4573266921
 13         -5.4237397042   -1.3886902144    4.4505242350   -1.4573270222
 14         -5.4237375865   -1.3886916908    4.4505225792   -1.4573272507
 15         -5.4237362473   -1.3886924482    4.4505217259   -1.4573274021
 16         -5.4237354152   -1.3886928356    4.4505212873   -1.4573274996
 17         -5.4237349050   -1.3886930331    4.4505210623   -1.4573275610
 18         -5.4237345954   -1.3886931333    4.4505209473   -1.4573275991
 19         -5.4237344092   -1.3886931840    4.4505208887   -1.4573276224
 20         -5.4237342980   -1.3886932094    4.4505208590   -1.4573276366
 21         -5.4237342320   -1.3886932221    4.4505208440   -1.4573276451
Atom SCF converged after  21 iterations to a total energy of     -5.42373423

Atom SCF Calculation for S  : Z (AE atom) =  16 : Z (PS atom) =   6
Config String:
Orbitals (num,occ):  3     2.00 4.00 0.00
Orbitals   (num,l):  3        0    1    2
Real-space Grid (nr,dr,rmax): 1203    0.0066555740    8.0000000000
Spherical Bessel Basis (nsws,lmax,cutoff):   47    2  176.3951722778
Confining potential (l,width,scale):  0    3.0000000000  100.0000000000
Confining potential (l,width,scale):  1    3.0000000000  100.0000000000
Confining potential (l,width,scale):  2    3.0000000000  100.0000000000
  1        -12.4916237786   -1.0485914554   10.1554312477   -2.4822447765
  2         -9.9747083603   -2.4807597367    8.3138131863   -2.0618837268
  3        -10.1811370131   -2.3153496392    8.4906092179   -2.1137756843
  4        -10.1856385898   -2.2984912006    8.5093862195   -2.1218167101
  5        -10.1891317560   -2.2894783333    8.5195006030   -2.1261392389
  6        -10.1911142562   -2.2849160124    8.5246320974   -2.1283733378
  7        -10.1921506977   -2.2826473329    8.5271859473   -2.1295140514
  8        -10.1926851273   -2.2815219985    8.5284534218   -2.1300957983
  9        -10.1929632671   -2.2809620806    8.5290843811   -2.1303933136
 10        -10.1931100895   -2.2806822783    8.5293998452   -2.1305460626
 11        -10.1931885828   -2.2805418782    8.5295582201   -2.1306248009
 12        -10.1932309625   -2.2804711729    8.5296380158   -2.1306655459
 13        -10.1932540142   -2.2804354512    8.5296783476   -2.1306867097
 14        -10.1932666242   -2.2804173494    8.5296987927   -2.1306977435
 15        -10.1932735535   -2.2804081489    8.5297091868   -2.1307035175
 16        -10.1932773756   -2.2804034581    8.5297144867   -2.1307065505
 17        -10.1932794908   -2.2804010586    8.5297171976   -2.1307081499
 18        -10.1932806648   -2.2803998268    8.5297185890   -2.1307089965
 19        -10.1932813181   -2.2803991920    8.5297193057   -2.1307094466
 20        -10.1932816826   -2.2803988634    8.5297196763   -2.1307096867
 21        -10.1932818864   -2.2803986926    8.5297198688   -2.1307098154
 22        -10.1932820006   -2.2803986034    8.5297199692   -2.1307098847
 23        -10.1932820648   -2.2803985565    8.5297200219   -2.1307099221
Atom SCF converged after  23 iterations to a total energy of    -10.19328206

Atom SCF Calculation for O  : Z (AE atom) =   8 : Z (PS atom) =   6
Config String:
Orbitals (num,occ):  2     2.00 4.00
Orbitals   (num,l):  2        0    1
Real-space Grid (nr,dr,rmax): 1203    0.0066555740    8.0000000000
Spherical Bessel Basis (nsws,lmax,cutoff):   47    1  176.3951722778
Confining potential (l,width,scale):  0    3.0000000000  100.0000000000
Confining potential (l,width,scale):  1    3.0000000000  100.0000000000
  1         -1.9497477053   -7.5870966769   10.1554312477   -2.4822447765
  2        -15.9466298225   -3.1778351734   13.6353006614   -3.2931224232
  3        -16.0387051750   -3.0909030611   13.7305651010   -3.3194522996
  4        -15.9025031450   -3.1083023605   13.7128101414   -3.3180850501
  5        -15.8912953362   -3.1033022259   13.7185404266   -3.3206942093
  6        -15.8793912992   -3.1043100674   13.7175820250   -3.3209366960
  7        -15.8748748605   -3.1043975610   13.7175531476   -3.3211845618
  8        -15.8725354084   -3.1044655610   13.7175148333   -3.3213149154
  9        -15.8713193866   -3.1045129589   13.7174824743   -3.3213832909
 10        -15.8706863385   -3.1045436851   13.7174593895   -3.3214192053
 11        -15.8703562731   -3.1045627330   13.7174442347   -3.3214381098
 12        -15.8701839150   -3.1045741887   13.7174347673   -3.3214480859
 13        -15.8700937727   -3.1045809294   13.7174290448   -3.3214533647
 14        -15.8700465571   -3.1045848305   13.7174256662   -3.3214561658
 15        -15.8700217888   -3.1045870593   13.7174237063   -3.3214576563
 16        -15.8700087767   -3.1045883194   13.7174225849   -3.3214584516
 17        -15.8700019307   -3.1045890258   13.7174219502   -3.3214588771
 18        -15.8699983237   -3.1045894190   13.7174215942   -3.3214591053
 19        -15.8699964206   -3.1045896366   13.7174213960   -3.3214592281
 20        -15.8699954151   -3.1045897563   13.7174212864   -3.3214592942
 21        -15.8699948832   -3.1045898219   13.7174212260   -3.3214593299
 22        -15.8699946014   -3.1045898577   13.7174211930   -3.3214593493
 23        -15.8699944520   -3.1045898771   13.7174211750   -3.3214593597
 24        -15.8699943726   -3.1045898877   13.7174211652   -3.3214593654
Atom SCF converged after  24 iterations to a total energy of    -15.86999437

========================== Calculation in vacuum ==============================
= Adjusting the following parameters: 
= is_implicit_solvent: F
= is_include_apolar: F
= write_denskern: T
= write_tightbox_ngwfs: T
= restart read filename prefix: ""
= restart write filename prefix: "vacuum_"
===============================================================================

Determining parallel strategy ...
... using space-filling curve
... NGWF load balancing: max    109;  min    108;  average    109
... Projector load balancing: max     26;  min     21;  average     22
... done
Calculating direct Ion-Ion energy ...
Ion-Ion Energy        :    837684.98929016361944
Basis initialisation ...... NGWF spheres initialised
... Projector spheres initialised
... NGWF tight boxes initialised
... Tight-boxes gathered
... NGWF basis size (local,global):    1042599  62503617
... Nonlocal pseudopotential projector initialisation
... done

========================== Sparse matrix information ===========================
                        Overlap matrix filling:   6.78%
                        Density kernel filling: 100.00%
              NGWF-Proj overlap matrix filling:   1.77%
                    Hamiltonian matrix filling:   7.67%
                  NGWF diagonal matrix filling:   0.05%
                             KS matrix filling: 100.00% 
                           KSKS matrix filling: 100.00% 
================================================================================

Sparse matrix initialisation ... done

Generating smeared ion density ... done
Smeared ion self correction:     -14525.987107
Smeared ion non-self correction: -837636.677869
NGWF initialisation ...... done
============ Calculation of NGWF S^-1 using Hotelling algorithm ================ 
         Iteration  |  Frobenius norm and Maximum abs value    (of I-S*S_n^-1)   
               1       0.78719304E+02     0.98274221E+00
               2       0.76885240E+02     0.96591467E+00
               3       0.73902215E+02     0.93349946E+00
               4       0.69641068E+02     0.87363354E+00
               5       0.64317254E+02     0.77119493E+00
               6       0.58329633E+02     0.70483559E+00
               7       0.52303964E+02     0.66986628E+00
               8       0.46732400E+02     0.64568546E+00
               9       0.40662593E+02     0.60725950E+00
              10       0.32408858E+02     0.54093321E+00
              11       0.21840010E+02     0.43303394E+00
              12       0.11211895E+02     0.28374523E+00
              13       0.37232862E+01     0.12836202E+00
              14       0.59104600E+00     0.29977290E-01
              15       0.27678916E-01     0.22299316E-02
              16       0.14982723E-03     0.16937664E-04
              17       0.90017393E-08     0.12730392E-08
              18       0.93792137E-13     0.39968029E-14
================================================================================
Calculating local pseudopotential in open BC on the fine real space grid ...
... done

MG BCs: +ve charge blocks (gridpoints):     20341 (   15998374).
MG BCs: -ve charge blocks (gridpoints):      8115 (    1090279).
MG BCs:     Elided blocks (gridpoints):    173573 (  173881972).
MG BCs: Computational effort saved:  99.9851%.
MG BCs: Charge after coarse-graining:           -9.0002232.
MG DL_MG: Calling solver with defect correction order = 8
MG DL_MG: Solver finished
MG Hartree energy from (\int phi*rho dr):              1460.556412
MG Hartree energy from (\int eps (grad phi)^2 dr):     1459.935142
MG Discrepancy due to finite box and discretization:     -0.621270 (  -0.04254%)
MG Correction to account for finite box:                  0.466811
MG Remaining discrepancy, due to discretization:         -0.154459 (  -0.01058%)
Up spin density kernel initialisation ... 
======= Optimisation of K by Palser-Manolopoulos canonical purification ======== 
         Iteration  |  Band structure energy |    c_n   
               1       -2583.52429526995365    0.5279085
               2       -2760.11833030309936    0.5179650
               3       -2942.21791333986039    0.5160171
               4       -3095.48914914070747    0.5294498
               5       -3190.73877633506709    0.5657039
               6       -3230.98915914802365    0.6119606
               7       -3244.66168161036057    0.6241376
               8       -3250.60574516894940    0.6214317
               9       -3253.53423337118147    0.6335492
              10       -3254.76704182768208    0.6543062
              11       -3255.25570294409044    0.6677322
              12       -3255.46799820018123    0.6640942
              13       -3255.57198371243931    0.6170059
              14       -3255.63327943668901    0.5210723
              15       -3255.66924488849327    0.4274295
              16       -3255.67459308862271    0.4372835
              17       -3255.67611575952378    0.4878511
              18       -3255.67701722392576    0.5277743
              19       -3255.67727162197934    0.5132398
              20       -3255.67735240495222    0.5011454
              21       -3255.67742048886294    0.5000079
              22       -3255.67750053052714    0.5000000
              23       -3255.67757705450913    0.5000000
              24       -3255.67762103587756    0.5000000
              25       -3255.67763045905485    0.5000000
              26       -3255.67763079182487    0.5000000
Termination criterion satisfied: band energy change below threshold.
Final occupancy bounds: [    0.00000000018624:    0.99999999999852]
Closest occupancy to 0.5:     0.99999999993564
================================================================================
... done

Writing density kernel to file "complex_35441.vacuum_dkn" ... done

>>> Optimising kernel for current NGWFs:
   Initial electron number for spin 1:    7228.00000000
     Final electron number for spin 1:    7228.00000000

=================== Penalty functional idempotency correction ==================
 RMS occupancy error at iteration   1:  0.000000 (step -0.5000 Ne1=   7228.0000)
            Final RMS occupancy error   :  0.000000 (Ne1=   7228.0000)
               Final occupancy bounds   : [  0.0000,  1.0000]
================================================================================

................................................................................
<<<<<<<<<<<<<< LNV (Original version) density kernel optimisation >>>>>>>>>>>>>>
~~~~~~~~~~~~~~~~~~~~~~~~~~~~~~~~~~~~~~~~~~~~~~~~~~~~~~~~~~~~~~~~~~~~~~~~~~~~~~~~
   iter  |      energy (Eh)       | rms gradient |  commutator  |   dE (Eh)
MG BCs: +ve charge blocks (gridpoints):     30849 (   17135101).
MG BCs: -ve charge blocks (gridpoints):      8392 (    1118548).
MG BCs:     Elided blocks (gridpoints):    163059 (  172716976).
MG BCs: Computational effort saved:  99.9795%.
MG BCs: Charge after coarse-graining:           -9.0009776.
MG DL_MG: Calling solver with defect correction order = 8
MG DL_MG: Solver finished
MG Hartree energy from (\int phi*rho dr):              1424.740978
MG Hartree energy from (\int eps (grad phi)^2 dr):     1424.060508
MG Discrepancy due to finite box and discretization:     -0.680471 (  -0.04776%)
MG Correction to account for finite box:                  0.483370
MG Remaining discrepancy, due to discretization:         -0.197101 (  -0.01383%)
      ideal mu1:      -0.717610537983
             Q0:  -11577.744648676948
             G0:    -149.036226957046
   RMS gradient:       0.001866958165
MG BCs: +ve charge blocks (gridpoints):     30870 (   17207351).
MG BCs: -ve charge blocks (gridpoints):      8313 (    1101579).
MG BCs:     Elided blocks (gridpoints):    163039 (  172661695).
MG BCs: Computational effort saved:  99.9795%.
MG BCs: Charge after coarse-graining:           -9.0010006.
MG DL_MG: Calling solver with defect correction order = 8
MG DL_MG: Solver finished
MG Hartree energy from (\int phi*rho dr):              1444.408606
MG Hartree energy from (\int eps (grad phi)^2 dr):     1443.746525
MG Discrepancy due to finite box and discretization:     -0.662081 (  -0.04584%)
MG Correction to account for finite box:                  0.481409
MG Remaining discrepancy, due to discretization:         -0.180672 (  -0.01251%)
     Trial step:       0.500000000000
             Q1:  -11589.524001196492
 Quadratic coef:      62.738760958979
 Linear coef   :     -74.518113478523
           Qmin:  -11599.871915583082
Quadratic minimum step length (  0.296938098312) accepted
    Initial Ne1:    7228.00000000
      Final Ne1:    7228.00000000

=================== Penalty functional idempotency correction ==================
 RMS occupancy error at iteration   1:  0.003543 (step -0.4879 Ne1=   7228.0000)
 RMS occupancy error at iteration   2:  0.000028 (step -0.5001 Ne1=   7228.0000)
            Final RMS occupancy error   :  0.000000 (Ne1=   7228.0000)
               Final occupancy bounds   : [  0.0000,  1.0000]
================================================================================

    1        -1.157774464868E+04     1.8670E-03     1.6890E-03
MG BCs: +ve charge blocks (gridpoints):     30856 (   17178875).
MG BCs: -ve charge blocks (gridpoints):      8361 (    1108946).
MG BCs:     Elided blocks (gridpoints):    163052 (  172682804).
MG BCs: Computational effort saved:  99.9795%.
MG BCs: Charge after coarse-graining:           -9.0009914.
MG DL_MG: Calling solver with defect correction order = 8
MG DL_MG: Solver finished
MG Hartree energy from (\int phi*rho dr):              1428.228709
MG Hartree energy from (\int eps (grad phi)^2 dr):     1427.560160
MG Discrepancy due to finite box and discretization:     -0.668550 (  -0.04681%)
MG Correction to account for finite box:                  0.482097
MG Remaining discrepancy, due to discretization:         -0.186453 (  -0.01305%)
      ideal mu1:      -0.758927050271
             Q0:  -11600.317969137104
             G0:     -12.324613689262
   RMS gradient:       0.000533005706
MG BCs: +ve charge blocks (gridpoints):     30866 (   17194437).
MG BCs: -ve charge blocks (gridpoints):      8340 (    1104312).
MG BCs:     Elided blocks (gridpoints):    163042 (  172671876).
MG BCs: Computational effort saved:  99.9795%.
MG BCs: Charge after coarse-graining:           -9.0009954.
MG DL_MG: Calling solver with defect correction order = 8
MG DL_MG: Solver finished
MG Hartree energy from (\int phi*rho dr):              1432.536443
MG Hartree energy from (\int eps (grad phi)^2 dr):     1431.872601
MG Discrepancy due to finite box and discretization:     -0.663842 (  -0.04634%)
MG Correction to account for finite box:                  0.480656
MG Remaining discrepancy, due to discretization:         -0.183185 (  -0.01279%)
     Trial step:       0.385316816602
             Q1:  -11603.231603117893
 Quadratic coef:       1.835246931805
 Linear coef   :      -4.748880912594
           Qmin:  -11603.390017580718
Quadratic minimum step length (  0.498522472358) accepted
    Initial Ne1:    7227.99989519
      Final Ne1:    7228.00000000

=================== Penalty functional idempotency correction ==================
 RMS occupancy error at iteration   1:  0.001898 (step -0.4926 Ne1=   7228.0000)
 RMS occupancy error at iteration   2:  0.000012 (step -0.5001 Ne1=   7228.0000)
            Final RMS occupancy error   :  0.000000 (Ne1=   7228.0000)
               Final occupancy bounds   : [  0.0000,  1.0000]
================================================================================

    2        -1.160031796914E+04     5.3301E-04     4.8220E-04    -2.2573E+01
MG BCs: +ve charge blocks (gridpoints):     30872 (   17199250).
MG BCs: -ve charge blocks (gridpoints):      8327 (    1102773).
MG BCs:     Elided blocks (gridpoints):    163036 (  172668602).
MG BCs: Computational effort saved:  99.9795%.
MG BCs: Charge after coarse-graining:           -9.0009966.
MG DL_MG: Calling solver with defect correction order = 8
MG DL_MG: Solver finished
MG Hartree energy from (\int phi*rho dr):              1433.851417
MG Hartree energy from (\int eps (grad phi)^2 dr):     1433.188869
MG Discrepancy due to finite box and discretization:     -0.662548 (  -0.04621%)
MG Correction to account for finite box:                  0.480252
MG Remaining discrepancy, due to discretization:         -0.182295 (  -0.01271%)
      ideal mu1:      -0.781437962444
             Q0:  -11603.429004661855
             G0:      -2.007056091080
   RMS gradient:       0.000215298732
MG BCs: +ve charge blocks (gridpoints):     30857 (   17198856).
MG BCs: -ve charge blocks (gridpoints):      8330 (    1103507).
MG BCs:     Elided blocks (gridpoints):    163051 (  172668262).
MG BCs: Computational effort saved:  99.9795%.
MG BCs: Charge after coarse-graining:           -9.0009962.
MG DL_MG: Calling solver with defect correction order = 8
MG DL_MG: Solver finished
MG Hartree energy from (\int phi*rho dr):              1432.148738
MG Hartree energy from (\int eps (grad phi)^2 dr):     1431.486829
MG Discrepancy due to finite box and discretization:     -0.661909 (  -0.04622%)
MG Correction to account for finite box:                  0.479769
MG Remaining discrepancy, due to discretization:         -0.182139 (  -0.01272%)
     Trial step:       0.438279696146
             Q1:  -11603.948782696156
 Quadratic coef:       0.359873899444
 Linear coef   :      -0.879651933746
           Qmin:  -11603.966545398858
Quadratic minimum step length (  0.535650936107) accepted
    Initial Ne1:    7227.99992770
      Final Ne1:    7228.00000000

=================== Penalty functional idempotency correction ==================
 RMS occupancy error at iteration   1:  0.000699 (step -0.4962 Ne1=   7228.0000)
 RMS occupancy error at iteration   2:  0.000005 (step -0.5003 Ne1=   7228.0000)
            Final RMS occupancy error   :  0.000000 (Ne1=   7228.0000)
               Final occupancy bounds   : [  0.0000,  1.0000]
================================================================================

    3        -1.160342900466E+04     2.1530E-04     1.9478E-04    -3.1110E+00
MG BCs: +ve charge blocks (gridpoints):     30857 (   17198711).
MG BCs: -ve charge blocks (gridpoints):      8332 (    1103610).
MG BCs:     Elided blocks (gridpoints):    163051 (  172668304).
MG BCs: Computational effort saved:  99.9795%.
MG BCs: Charge after coarse-graining:           -9.0009963.
MG DL_MG: Calling solver with defect correction order = 8
MG DL_MG: Solver finished
MG Hartree energy from (\int phi*rho dr):              1431.778534
MG Hartree energy from (\int eps (grad phi)^2 dr):     1431.116754
MG Discrepancy due to finite box and discretization:     -0.661780 (  -0.04622%)
MG Correction to account for finite box:                  0.479663
MG Remaining discrepancy, due to discretization:         -0.182117 (  -0.01272%)
      ideal mu1:      -0.782476867528
             Q0:  -11603.972055803053
             G0:      -0.572503298112
   RMS gradient:       0.000115048560
MG BCs: +ve charge blocks (gridpoints):     30856 (   17199577).
MG BCs: -ve charge blocks (gridpoints):      8330 (    1103428).
MG BCs:     Elided blocks (gridpoints):    163052 (  172667620).
MG BCs: Computational effort saved:  99.9795%.
MG BCs: Charge after coarse-graining:           -9.0009965.
MG DL_MG: Calling solver with defect correction order = 8
MG DL_MG: Solver finished
MG Hartree energy from (\int phi*rho dr):              1432.905115
MG Hartree energy from (\int eps (grad phi)^2 dr):     1432.243530
MG Discrepancy due to finite box and discretization:     -0.661584 (  -0.04617%)
MG Correction to account for finite box:                  0.479389
MG Remaining discrepancy, due to discretization:         -0.182196 (  -0.01272%)
     Trial step:       0.484525468389
             Q1:  -11604.117336179363
 Quadratic coef:       0.132112052363
 Linear coef   :      -0.277392428672
           Qmin:  -11604.117664318908
Quadratic minimum step length (  0.508673107510) accepted
    Initial Ne1:    7227.99995393
      Final Ne1:    7228.00000000

=================== Penalty functional idempotency correction ==================
 RMS occupancy error at iteration   1:  0.000376 (step -0.4921 Ne1=   7228.0000)
 RMS occupancy error at iteration   2:  0.000006 (step -0.5002 Ne1=   7228.0000)
            Final RMS occupancy error   :  0.000000 (Ne1=   7228.0000)
               Final occupancy bounds   : [  0.0000,  1.0000]
================================================================================

    4        -1.160397205580E+04     1.1505E-04     1.0408E-04    -5.4305E-01
MG BCs: +ve charge blocks (gridpoints):     30856 (   17199614).
MG BCs: -ve charge blocks (gridpoints):      8330 (    1103445).
MG BCs:     Elided blocks (gridpoints):    163052 (  172667566).
MG BCs: Computational effort saved:  99.9795%.
MG BCs: Charge after coarse-graining:           -9.0009965.
MG DL_MG: Calling solver with defect correction order = 8
MG DL_MG: Solver finished
MG Hartree energy from (\int phi*rho dr):              1432.962189
MG Hartree energy from (\int eps (grad phi)^2 dr):     1432.300613
MG Discrepancy due to finite box and discretization:     -0.661575 (  -0.04617%)
MG Correction to account for finite box:                  0.479375
MG Remaining discrepancy, due to discretization:         -0.182200 (  -0.01271%)
      ideal mu1:      -0.782884490149
             Q0:  -11604.118455306278
             G0:      -0.244841178747
   RMS gradient:       0.000075488250
MG BCs: +ve charge blocks (gridpoints):     30853 (   17199896).
MG BCs: -ve charge blocks (gridpoints):      8333 (    1103247).
MG BCs:     Elided blocks (gridpoints):    163055 (  172667482).
MG BCs: Computational effort saved:  99.9795%.
MG BCs: Charge after coarse-graining:           -9.0009964.
MG DL_MG: Calling solver with defect correction order = 8
MG DL_MG: Solver finished
MG Hartree energy from (\int phi*rho dr):              1433.371312
MG Hartree energy from (\int eps (grad phi)^2 dr):     1432.709587
MG Discrepancy due to finite box and discretization:     -0.661725 (  -0.04617%)
MG Correction to account for finite box:                  0.479344
MG Remaining discrepancy, due to discretization:         -0.182381 (  -0.01272%)
     Trial step:       0.496452490852
             Q1:  -11604.203095026547
 Quadratic coef:       0.036912292782
 Linear coef   :      -0.121552013052
           Qmin:  -11604.218522863475
Quadratic minimum step length (  0.817407902617) accepted
    Initial Ne1:    7227.99992561
      Final Ne1:    7228.00000000

=================== Penalty functional idempotency correction ==================
 RMS occupancy error at iteration   1:  0.001003 (step -0.4499 Ne1=   7228.0000)
 RMS occupancy error at iteration   2:  0.000030 (step -0.5001 Ne1=   7228.0000)
            Final RMS occupancy error   :  0.000000 (Ne1=   7228.0000)
               Final occupancy bounds   : [  0.0000,  1.0000]
================================================================================

    5        -1.160411845531E+04     7.5488E-05     6.8292E-05    -1.4640E-01
MG BCs: +ve charge blocks (gridpoints):     30852 (   17200007).
MG BCs: -ve charge blocks (gridpoints):      8334 (    1103191).
MG BCs:     Elided blocks (gridpoints):    163056 (  172667427).
MG BCs: Computational effort saved:  99.9795%.
MG BCs: Charge after coarse-graining:           -9.0009964.
MG DL_MG: Calling solver with defect correction order = 8
MG DL_MG: Solver finished
MG Hartree energy from (\int phi*rho dr):              1433.634230
MG Hartree energy from (\int eps (grad phi)^2 dr):     1432.972405
MG Discrepancy due to finite box and discretization:     -0.661826 (  -0.04616%)
MG Correction to account for finite box:                  0.479327
MG Remaining discrepancy, due to discretization:         -0.182499 (  -0.01273%)
      ideal mu1:      -0.782986536332
             Q0:  -11604.215196834528
             G0:      -0.283742736393
   RMS gradient:       0.000083130446
MG BCs: +ve charge blocks (gridpoints):     30852 (   17198896).
MG BCs: -ve charge blocks (gridpoints):      8337 (    1103728).
MG BCs:     Elided blocks (gridpoints):    163056 (  172668001).
MG BCs: Computational effort saved:  99.9795%.
MG BCs: Charge after coarse-graining:           -9.0009960.
MG DL_MG: Calling solver with defect correction order = 8
MG DL_MG: Solver finished
MG Hartree energy from (\int phi*rho dr):              1431.864308
MG Hartree energy from (\int eps (grad phi)^2 dr):     1431.202492
MG Discrepancy due to finite box and discretization:     -0.661816 (  -0.04622%)
MG Correction to account for finite box:                  0.479324
MG Remaining discrepancy, due to discretization:         -0.182492 (  -0.01275%)
     Trial step:       0.637027620513
             Q1:  -11604.328871719306
 Quadratic coef:       0.067077075424
 Linear coef   :      -0.180751960202
           Qmin:  -11604.336964483573
Quadratic minimum step length (  0.858296149486) accepted
    Initial Ne1:    7227.99963188
      Final Ne1:    7228.00000000

=================== Penalty functional idempotency correction ==================
 RMS occupancy error at iteration   1:  0.004735 (step -0.3219 Ne1=   7228.0000)
 RMS occupancy error at iteration   2:  0.000248 (step -0.4981 Ne1=   7228.0000)
 RMS occupancy error at iteration   3:  0.000004 (step -0.5000 Ne1=   7228.0000)
            Final RMS occupancy error   :  0.000000 (Ne1=   7228.0000)
               Final occupancy bounds   : [  0.0000,  1.0000]
================================================================================

    6        -1.160421519683E+04     8.3130E-05     7.5206E-05    -9.6742E-02
MG BCs: +ve charge blocks (gridpoints):     30852 (   17198565).
MG BCs: -ve charge blocks (gridpoints):      8338 (    1103908).
MG BCs:     Elided blocks (gridpoints):    163056 (  172668152).
MG BCs: Computational effort saved:  99.9795%.
MG BCs: Charge after coarse-graining:           -9.0009959.
MG DL_MG: Calling solver with defect correction order = 8
MG DL_MG: Solver finished
MG Hartree energy from (\int phi*rho dr):              1431.283274
MG Hartree energy from (\int eps (grad phi)^2 dr):     1430.621442
MG Discrepancy due to finite box and discretization:     -0.661832 (  -0.04624%)
MG Correction to account for finite box:                  0.479338
MG Remaining discrepancy, due to discretization:         -0.182493 (  -0.01275%)
      ideal mu1:      -0.782561903441
             Q0:  -11604.330467309454
             G0:      -0.348214068325
   RMS gradient:       0.000090242646
MG BCs: +ve charge blocks (gridpoints):     30849 (   17199965).
MG BCs: -ve charge blocks (gridpoints):      8330 (    1103273).
MG BCs:     Elided blocks (gridpoints):    163059 (  172667387).
MG BCs: Computational effort saved:  99.9795%.
MG BCs: Charge after coarse-graining:           -9.0009965.
MG DL_MG: Calling solver with defect correction order = 8
MG DL_MG: Solver finished
MG Hartree energy from (\int phi*rho dr):              1433.045549
MG Hartree energy from (\int eps (grad phi)^2 dr):     1432.384010
MG Discrepancy due to finite box and discretization:     -0.661539 (  -0.04616%)
MG Correction to account for finite box:                  0.479342
MG Remaining discrepancy, due to discretization:         -0.182197 (  -0.01271%)
     Trial step:       0.739431101457
             Q1:  -11604.449554747902
 Quadratic coef:       0.138392873636
 Linear coef   :      -0.257480312085
           Qmin:  -11604.450228012027
Quadratic minimum step length (  0.687856772413) accepted
    Initial Ne1:    7227.99999885
      Final Ne1:    7228.00000000

=================== Penalty functional idempotency correction ==================
 RMS occupancy error at iteration   1:  0.000245 (step -0.4836 Ne1=   7228.0000)
 RMS occupancy error at iteration   2:  0.000002 (step -0.5000 Ne1=   7228.0000)
            Final RMS occupancy error   :  0.000000 (Ne1=   7228.0000)
               Final occupancy bounds   : [  0.0000,  1.0000]
================================================================================

    7        -1.160433046731E+04     9.0243E-05     8.1640E-05    -1.1527E-01
MG BCs: +ve charge blocks (gridpoints):     30848 (   17199881).
MG BCs: -ve charge blocks (gridpoints):      8329 (    1103310).
MG BCs:     Elided blocks (gridpoints):    163060 (  172667434).
MG BCs: Computational effort saved:  99.9795%.
MG BCs: Charge after coarse-graining:           -9.0009965.
MG DL_MG: Calling solver with defect correction order = 8
MG DL_MG: Solver finished
MG Hartree energy from (\int phi*rho dr):              1432.922350
MG Hartree energy from (\int eps (grad phi)^2 dr):     1432.260791
MG Discrepancy due to finite box and discretization:     -0.661559 (  -0.04617%)
MG Correction to account for finite box:                  0.479341
MG Remaining discrepancy, due to discretization:         -0.182217 (  -0.01272%)
      ideal mu1:      -0.783892801561
             Q0:  -11604.450326908613
             G0:      -0.255145878969
   RMS gradient:       0.000077271391
MG BCs: +ve charge blocks (gridpoints):     30851 (   17199980).
MG BCs: -ve charge blocks (gridpoints):      8329 (    1103221).
MG BCs:     Elided blocks (gridpoints):    163058 (  172667424).
MG BCs: Computational effort saved:  99.9795%.
MG BCs: Charge after coarse-graining:           -9.0009965.
MG DL_MG: Calling solver with defect correction order = 8
MG DL_MG: Solver finished
MG Hartree energy from (\int phi*rho dr):              1432.964586
MG Hartree energy from (\int eps (grad phi)^2 dr):     1432.302899
MG Discrepancy due to finite box and discretization:     -0.661687 (  -0.04618%)
MG Correction to account for finite box:                  0.479607
MG Remaining discrepancy, due to discretization:         -0.182080 (  -0.01271%)
     Trial step:       0.713177881647
             Q1:  -11604.542209548876
 Quadratic coef:       0.090081757211
 Linear coef   :      -0.181964397474
           Qmin:  -11604.542218549532
Quadratic minimum step length (  0.720306683303) accepted
    Initial Ne1:    7227.99999832
      Final Ne1:    7228.00000000

=================== Penalty functional idempotency correction ==================
 RMS occupancy error at iteration   1:  0.001139 (step -0.4315 Ne1=   7228.0000)
 RMS occupancy error at iteration   2:  0.000038 (step -0.4983 Ne1=   7228.0000)
            Final RMS occupancy error   :  0.000000 (Ne1=   7228.0000)
               Final occupancy bounds   : [ -0.0000,  1.0000]
================================================================================

    8        -1.160445032691E+04     7.7271E-05     6.9906E-05    -1.1986E-01
MG BCs: +ve charge blocks (gridpoints):     30851 (   17199972).
MG BCs: -ve charge blocks (gridpoints):      8329 (    1103228).
MG BCs:     Elided blocks (gridpoints):    163058 (  172667425).
MG BCs: Computational effort saved:  99.9795%.
MG BCs: Charge after coarse-graining:           -9.0009965.
MG DL_MG: Calling solver with defect correction order = 8
MG DL_MG: Solver finished
MG Hartree energy from (\int phi*rho dr):              1432.966599
MG Hartree energy from (\int eps (grad phi)^2 dr):     1432.304911
MG Discrepancy due to finite box and discretization:     -0.661688 (  -0.04618%)
MG Correction to account for finite box:                  0.479609
MG Remaining discrepancy, due to discretization:         -0.182079 (  -0.01271%)
      ideal mu1:      -0.783572211681
             Q0:  -11604.542839797912
             G0:      -0.180239453156
   RMS gradient:       0.000064304193
MG BCs: +ve charge blocks (gridpoints):     30854 (   17199179).
MG BCs: -ve charge blocks (gridpoints):      8331 (    1103623).
MG BCs:     Elided blocks (gridpoints):    163054 (  172667823).
MG BCs: Computational effort saved:  99.9795%.
MG BCs: Charge after coarse-graining:           -9.0009962.
MG DL_MG: Calling solver with defect correction order = 8
MG DL_MG: Solver finished
MG Hartree energy from (\int phi*rho dr):              1432.074779
MG Hartree energy from (\int eps (grad phi)^2 dr):     1431.412895
MG Discrepancy due to finite box and discretization:     -0.661885 (  -0.04622%)
MG Correction to account for finite box:                  0.479834
MG Remaining discrepancy, due to discretization:         -0.182050 (  -0.01271%)
     Trial step:       0.716733419434
             Q1:  -11604.608095476520
 Quadratic coef:       0.063927960970
 Linear coef   :      -0.129183639577
           Qmin:  -11604.608102370350
Quadratic minimum step length (  0.724176325390) accepted
    Initial Ne1:    7228.00086912
      Final Ne1:    7228.00000000

=================== Penalty functional idempotency correction ==================
 RMS occupancy error at iteration   1:  0.002154 (step -0.3865 Ne1=   7228.0000)
 RMS occupancy error at iteration   2:  0.000110 (step -0.4945 Ne1=   7228.0000)
 RMS occupancy error at iteration   3:  0.000001 (step -0.5000 Ne1=   7228.0000)
            Final RMS occupancy error   :  0.000000 (Ne1=   7228.0000)
               Final occupancy bounds   : [  0.0000,  1.0000]
================================================================================

    9        -1.160454283980E+04     6.4304E-05     5.8174E-05    -9.2513E-02
MG BCs: +ve charge blocks (gridpoints):     30854 (   17199181).
MG BCs: -ve charge blocks (gridpoints):      8331 (    1103619).
MG BCs:     Elided blocks (gridpoints):    163054 (  172667825).
MG BCs: Computational effort saved:  99.9795%.
MG BCs: Charge after coarse-graining:           -9.0009962.
MG DL_MG: Calling solver with defect correction order = 8
MG DL_MG: Solver finished
MG Hartree energy from (\int phi*rho dr):              1432.066420
MG Hartree energy from (\int eps (grad phi)^2 dr):     1431.404525
MG Discrepancy due to finite box and discretization:     -0.661895 (  -0.04622%)
MG Correction to account for finite box:                  0.479846
MG Remaining discrepancy, due to discretization:         -0.182049 (  -0.01271%)
      ideal mu1:      -0.782244889336
   10        -1.160461174637E+04     4.9966E-05     4.5203E-05    -6.8907E-02
Finished density kernel iterations (  10)

Writing density kernel to file "complex_35441.vacuum_dkn" ... done


>>> Density kernel optimised for the current NGWF basis:
     ~~~~~~~~~~~~~~~~~~~~~~~~~~~~~~~~~~~~~~~~~~~~~~~~~~~~~~~~~~~
     Total energy                =  -1.16046117463750E+04  Eh
     Estimated bandgap           =  -4.6648E-01  Eh
     RMS occupancy error         =   1.1200E-10
     [H,K] commutator            =   4.5203E-05
     Occupancy bounds            = [  0.000:  1.000]
     ~~~~~~~~~~~~~~~~~~~~~~~~~~~~~~~~~~~~~~~~~~~~~~~~~~~~~~~~~~~




################################################################################
########################### NGWF CG iteration  001 #############################
################################################################################
****** Reciprocal space K.E. preconditioning with k_zero =  3.5000 a0^-1 *******

>>> Checking for convergence of NGWFs:   NOT CONVERGED
  ========================================================================
         NGWF RMS gradient =  1.5984E-03 >  2.0000E-06  | above tolerance
  ========================================================================

>>> Improving NGWFs using line search:
============ Calculation of NGWF S^-1 using Hotelling algorithm ================ 
         Iteration  |  Frobenius norm and Maximum abs value    (of I-S*S_n^-1)   
               1       0.19958604E+00     0.54229594E-02
               2       0.92301361E-03     0.44807905E-04
               3       0.34005507E-07     0.31204980E-08
               4       0.12553113E-12     0.57731597E-14
================================================================================
MG BCs: +ve charge blocks (gridpoints):     30313 (   17139716).
MG BCs: -ve charge blocks (gridpoints):      8356 (    1103077).
MG BCs:     Elided blocks (gridpoints):    163596 (  172727832).
MG BCs: Computational effort saved:  99.9798%.
MG BCs: Charge after coarse-graining:           -9.0009966.
MG DL_MG: Calling solver with defect correction order = 8
MG DL_MG: Solver finished
MG Hartree energy from (\int phi*rho dr):              1399.817560
MG Hartree energy from (\int eps (grad phi)^2 dr):     1399.156566
MG Discrepancy due to finite box and discretization:     -0.660994 (  -0.04722%)
MG Correction to account for finite box:                  0.479695
MG Remaining discrepancy, due to discretization:         -0.181299 (  -0.01295%)
============ Calculation of NGWF S^-1 using Hotelling algorithm ================ 
         Iteration  |  Frobenius norm and Maximum abs value    (of I-S*S_n^-1)   
               1       0.18802949E+01     0.43327839E-01
               2       0.73525685E-01     0.26066954E-02
               3       0.15274068E-03     0.10713811E-04
               4       0.12908515E-08     0.18811985E-09
               5       0.10954476E-12     0.53290705E-14
================================================================================
------------------------------- NGWF line search -------------------------------
RMS gradient                =       0.00159836867145
Trial step length           =               0.122474
Gradient along search dir.  =       -280.46460055638
Functional at step 0        =  -11604.61174637498334
Functional at step 1        =  -11636.34151345642749
Functional predicted        =  -11717.19857089968173
Selected quadratic step     =               0.802859
--------------------------- NGWF line search finished --------------------------
                                               
Writing NGWFs to file "complex_35441.vacuum_tightbox_ngwfs"....  done

>>> Optimising kernel for current NGWFs:
   Initial electron number for spin 1:    7263.75346285
     Final electron number for spin 1:    7228.00000000

=================== Penalty functional idempotency correction ==================
 RMS occupancy error at iteration   1:  0.004276 (step -0.4863 Ne1=   7228.0000)
 RMS occupancy error at iteration   2:  0.000067 (step -0.5002 Ne1=   7228.0000)
            Final RMS occupancy error   :  0.000000 (Ne1=   7228.0000)
               Final occupancy bounds   : [  0.0000,  1.0000]
================================================================================

................................................................................
<<<<<<<<<<<<<< LNV (Original version) density kernel optimisation >>>>>>>>>>>>>>
~~~~~~~~~~~~~~~~~~~~~~~~~~~~~~~~~~~~~~~~~~~~~~~~~~~~~~~~~~~~~~~~~~~~~~~~~~~~~~~~
   iter  |      energy (Eh)       | rms gradient |  commutator  |   dE (Eh)
MG BCs: +ve charge blocks (gridpoints):     24440 (   16871560).
MG BCs: -ve charge blocks (gridpoints):      8513 (    1085129).
MG BCs:     Elided blocks (gridpoints):    169474 (  173013936).
MG BCs: Computational effort saved:  99.9827%.
MG BCs: Charge after coarse-graining:           -9.0006705.
MG DL_MG: Calling solver with defect correction order = 8
MG DL_MG: Solver finished
MG Hartree energy from (\int phi*rho dr):              1243.632199
MG Hartree energy from (\int eps (grad phi)^2 dr):     1242.971615
MG Discrepancy due to finite box and discretization:     -0.660584 (  -0.05312%)
MG Correction to account for finite box:                  0.478959
MG Remaining discrepancy, due to discretization:         -0.181625 (  -0.01460%)
      ideal mu1:      -0.721524944476
             Q0:  -11716.233363065519
             G0:     -10.099220436228
   RMS gradient:       0.000485995881
MG BCs: +ve charge blocks (gridpoints):     24494 (   16895271).
MG BCs: -ve charge blocks (gridpoints):      8498 (    1078904).
MG BCs:     Elided blocks (gridpoints):    169420 (  172996450).
MG BCs: Computational effort saved:  99.9827%.
MG BCs: Charge after coarse-graining:           -9.0006646.
MG DL_MG: Calling solver with defect correction order = 8
MG DL_MG: Solver finished
MG Hartree energy from (\int phi*rho dr):              1263.598455
MG Hartree energy from (\int eps (grad phi)^2 dr):     1262.933142
MG Discrepancy due to finite box and discretization:     -0.665313 (  -0.05265%)
MG Correction to account for finite box:                  0.477851
MG Remaining discrepancy, due to discretization:         -0.187461 (  -0.01484%)
     Trial step:       0.720445260912
             Q1:  -11715.585840131389
 Quadratic coef:       7.923458436313
 Linear coef   :      -7.275935502182
           Qmin:  -11717.903695467003
Quadratic minimum step length (  0.330784422824) accepted
    Initial Ne1:    7227.99962112
      Final Ne1:    7228.00000000

=================== Penalty functional idempotency correction ==================
 RMS occupancy error at iteration   1:  0.000361 (step -0.4986 Ne1=   7228.0000)
 RMS occupancy error at iteration   2:  0.000000 (step -0.5000 Ne1=   7228.0000)
            Final RMS occupancy error   :  0.000000 (Ne1=   7228.0000)
               Final occupancy bounds   : [  0.0000,  1.0000]
================================================================================

    1        -1.171623336307E+04     4.8600E-04     4.3967E-04
MG BCs: +ve charge blocks (gridpoints):     24463 (   16882455).
MG BCs: -ve charge blocks (gridpoints):      8509 (    1082412).
MG BCs:     Elided blocks (gridpoints):    169451 (  173005758).
MG BCs: Computational effort saved:  99.9827%.
MG BCs: Charge after coarse-graining:           -9.0006677.
MG DL_MG: Calling solver with defect correction order = 8
MG DL_MG: Solver finished
MG Hartree energy from (\int phi*rho dr):              1251.827760
MG Hartree energy from (\int eps (grad phi)^2 dr):     1251.165113
MG Discrepancy due to finite box and discretization:     -0.662646 (  -0.05293%)
MG Correction to account for finite box:                  0.478419
MG Remaining discrepancy, due to discretization:         -0.184227 (  -0.01472%)
      ideal mu1:      -0.729531481951
             Q0:  -11717.876990134013
             G0:      -0.993293328483
   RMS gradient:       0.000153084247
MG BCs: +ve charge blocks (gridpoints):     24464 (   16883353).
MG BCs: -ve charge blocks (gridpoints):      8511 (    1082754).
MG BCs:     Elided blocks (gridpoints):    169450 (  173004518).
MG BCs: Computational effort saved:  99.9827%.
MG BCs: Charge after coarse-graining:           -9.0006674.
MG DL_MG: Calling solver with defect correction order = 8
MG DL_MG: Solver finished
MG Hartree energy from (\int phi*rho dr):              1253.484005
MG Hartree energy from (\int eps (grad phi)^2 dr):     1252.821243
MG Discrepancy due to finite box and discretization:     -0.662763 (  -0.05287%)
MG Correction to account for finite box:                  0.478244
MG Remaining discrepancy, due to discretization:         -0.184519 (  -0.01472%)
     Trial step:       0.488172172299
             Q1:  -11718.083830714109
 Quadratic coef:       0.278057581798
 Linear coef   :      -0.484898161895
           Qmin:  -11718.088390795963
Quadratic minimum step length (  0.425656059269) accepted
    Initial Ne1:    7227.99995161
      Final Ne1:    7228.00000000

=================== Penalty functional idempotency correction ==================
 RMS occupancy error at iteration   1:  0.000145 (step -0.4993 Ne1=   7228.0000)
            Final RMS occupancy error   :  0.000000 (Ne1=   7228.0000)
               Final occupancy bounds   : [ -0.0000,  1.0000]
================================================================================

    2        -1.171787699013E+04     1.5308E-04     1.3849E-04    -1.6436E+00
MG BCs: +ve charge blocks (gridpoints):     24462 (   16883238).
MG BCs: -ve charge blocks (gridpoints):      8509 (    1082700).
MG BCs:     Elided blocks (gridpoints):    169452 (  173004687).
MG BCs: Computational effort saved:  99.9827%.
MG BCs: Charge after coarse-graining:           -9.0006674.
MG DL_MG: Calling solver with defect correction order = 8
MG DL_MG: Solver finished
MG Hartree energy from (\int phi*rho dr):              1253.271558
MG Hartree energy from (\int eps (grad phi)^2 dr):     1252.608811
MG Discrepancy due to finite box and discretization:     -0.662747 (  -0.05288%)
MG Correction to account for finite box:                  0.478266
MG Remaining discrepancy, due to discretization:         -0.184480 (  -0.01472%)
      ideal mu1:      -0.730899908463
             Q0:  -11718.088842681260
             G0:      -0.169753254764
   RMS gradient:       0.000062944960
MG BCs: +ve charge blocks (gridpoints):     24462 (   16882612).
MG BCs: -ve charge blocks (gridpoints):      8512 (    1083068).
MG BCs:     Elided blocks (gridpoints):    169452 (  173004945).
MG BCs: Computational effort saved:  99.9827%.
MG BCs: Charge after coarse-graining:           -9.0006675.
MG DL_MG: Calling solver with defect correction order = 8
MG DL_MG: Solver finished
MG Hartree energy from (\int phi*rho dr):              1252.760652
MG Hartree energy from (\int eps (grad phi)^2 dr):     1252.098123
MG Discrepancy due to finite box and discretization:     -0.662529 (  -0.05289%)
MG Correction to account for finite box:                  0.478073
MG Remaining discrepancy, due to discretization:         -0.184456 (  -0.01472%)
     Trial step:       0.455843660815
             Q1:  -11718.142443884281
 Quadratic coef:       0.023779742067
 Linear coef   :      -0.077380945087
           Qmin:  -11718.151793434108
Quadratic minimum step length (  0.741673588946) accepted
    Initial Ne1:    7228.00116661
      Final Ne1:    7228.00000000

=================== Penalty functional idempotency correction ==================
 RMS occupancy error at iteration   1:  0.000137 (step -0.4953 Ne1=   7228.0000)
 RMS occupancy error at iteration   2:  0.000001 (step -0.5000 Ne1=   7228.0000)
            Final RMS occupancy error   :  0.000000 (Ne1=   7228.0000)
               Final occupancy bounds   : [  0.0000,  1.0000]
================================================================================

    3        -1.171808884268E+04     6.2945E-05     5.6945E-05    -2.1185E-01
MG BCs: +ve charge blocks (gridpoints):     24463 (   16882255).
MG BCs: -ve charge blocks (gridpoints):      8512 (    1083284).
MG BCs:     Elided blocks (gridpoints):    169451 (  173005086).
MG BCs: Computational effort saved:  99.9827%.
MG BCs: Charge after coarse-graining:           -9.0006675.
MG DL_MG: Calling solver with defect correction order = 8
MG DL_MG: Solver finished
MG Hartree energy from (\int phi*rho dr):              1252.439988
MG Hartree energy from (\int eps (grad phi)^2 dr):     1251.777599
MG Discrepancy due to finite box and discretization:     -0.662389 (  -0.05289%)
MG Correction to account for finite box:                  0.477947
MG Remaining discrepancy, due to discretization:         -0.184442 (  -0.01473%)
      ideal mu1:      -0.729954881236
             Q0:  -11718.151874929899
             G0:      -0.063561460467
   RMS gradient:       0.000038513806
MG BCs: +ve charge blocks (gridpoints):     24465 (   16882300).
MG BCs: -ve charge blocks (gridpoints):      8512 (    1083288).
MG BCs:     Elided blocks (gridpoints):    169449 (  173005037).
MG BCs: Computational effort saved:  99.9827%.
MG BCs: Charge after coarse-graining:           -9.0006674.
MG DL_MG: Calling solver with defect correction order = 8
MG DL_MG: Solver finished
MG Hartree energy from (\int phi*rho dr):              1252.485813
MG Hartree energy from (\int eps (grad phi)^2 dr):     1251.823745
MG Discrepancy due to finite box and discretization:     -0.662069 (  -0.05286%)
MG Correction to account for finite box:                  0.477756
MG Remaining discrepancy, due to discretization:         -0.184313 (  -0.01472%)
     Trial step:       0.581452666960
             Q1:  -11718.174336713622
 Quadratic coef:       0.014496196982
 Linear coef   :      -0.036957980704
           Qmin:  -11718.175430976004
Quadratic minimum step length (  0.741205313123) accepted
    Initial Ne1:    7228.00043638
      Final Ne1:    7228.00000000

=================== Penalty functional idempotency correction ==================
 RMS occupancy error at iteration   1:  0.000207 (step -0.4886 Ne1=   7228.0000)
 RMS occupancy error at iteration   2:  0.000001 (step -0.5000 Ne1=   7228.0000)
            Final RMS occupancy error   :  0.000000 (Ne1=   7228.0000)
               Final occupancy bounds   : [  0.0000,  1.0000]
================================================================================

    4        -1.171815187493E+04     3.8514E-05     3.4843E-05    -6.3032E-02
MG BCs: +ve charge blocks (gridpoints):     24465 (   16882282).
MG BCs: -ve charge blocks (gridpoints):      8511 (    1083318).
MG BCs:     Elided blocks (gridpoints):    169449 (  173005025).
MG BCs: Computational effort saved:  99.9827%.
MG BCs: Charge after coarse-graining:           -9.0006675.
MG DL_MG: Calling solver with defect correction order = 8
MG DL_MG: Solver finished
MG Hartree energy from (\int phi*rho dr):              1252.499258
MG Hartree energy from (\int eps (grad phi)^2 dr):     1251.837280
MG Discrepancy due to finite box and discretization:     -0.661978 (  -0.05285%)
MG Correction to account for finite box:                  0.477701
MG Remaining discrepancy, due to discretization:         -0.184277 (  -0.01471%)
      ideal mu1:      -0.730033626107
             Q0:  -11718.175399283762
             G0:      -0.058274763878
   RMS gradient:       0.000036935740
MG BCs: +ve charge blocks (gridpoints):     24465 (   16883430).
MG BCs: -ve charge blocks (gridpoints):      8509 (    1082849).
MG BCs:     Elided blocks (gridpoints):    169449 (  173004346).
MG BCs: Computational effort saved:  99.9827%.
MG BCs: Charge after coarse-graining:           -9.0006672.
MG DL_MG: Calling solver with defect correction order = 8
MG DL_MG: Solver finished
MG Hartree energy from (\int phi*rho dr):              1253.259738
MG Hartree energy from (\int eps (grad phi)^2 dr):     1252.598272
MG Discrepancy due to finite box and discretization:     -0.661465 (  -0.05278%)
MG Correction to account for finite box:                  0.477263
MG Remaining discrepancy, due to discretization:         -0.184202 (  -0.01470%)
     Trial step:       0.656487475951
             Q1:  -11718.199682989391
 Quadratic coef:       0.013972947021
 Linear coef   :      -0.038256652650
           Qmin:  -11718.201585088906
Quadratic minimum step length (  0.898701372671) accepted
    Initial Ne1:    7228.00048643
      Final Ne1:    7228.00000000

=================== Penalty functional idempotency correction ==================
 RMS occupancy error at iteration   1:  0.000807 (step -0.4560 Ne1=   7228.0000)
 RMS occupancy error at iteration   2:  0.000008 (step -0.5000 Ne1=   7228.0000)
            Final RMS occupancy error   :  0.000000 (Ne1=   7228.0000)
               Final occupancy bounds   : [  0.0000,  1.0000]
================================================================================

    5        -1.171817539928E+04     3.6936E-05     3.3415E-05    -2.3524E-02
MG BCs: +ve charge blocks (gridpoints):     24465 (   16883838).
MG BCs: -ve charge blocks (gridpoints):      8509 (    1082671).
MG BCs:     Elided blocks (gridpoints):    169449 (  173004116).
MG BCs: Computational effort saved:  99.9827%.
MG BCs: Charge after coarse-graining:           -9.0006671.
MG DL_MG: Calling solver with defect correction order = 8
MG DL_MG: Solver finished
MG Hartree energy from (\int phi*rho dr):              1253.542256
MG Hartree energy from (\int eps (grad phi)^2 dr):     1252.880977
MG Discrepancy due to finite box and discretization:     -0.661279 (  -0.05275%)
MG Correction to account for finite box:                  0.477104
MG Remaining discrepancy, due to discretization:         -0.184175 (  -0.01469%)
      ideal mu1:      -0.730927277871
             Q0:  -11718.201347570866
             G0:      -0.061163861191
   RMS gradient:       0.000037783262
MG BCs: +ve charge blocks (gridpoints):     24464 (   16883596).
MG BCs: -ve charge blocks (gridpoints):      8510 (    1082855).
MG BCs:     Elided blocks (gridpoints):    169450 (  173004174).
MG BCs: Computational effort saved:  99.9827%.
MG BCs: Charge after coarse-graining:           -9.0006672.
MG DL_MG: Calling solver with defect correction order = 8
MG DL_MG: Solver finished
MG Hartree energy from (\int phi*rho dr):              1253.227564
MG Hartree energy from (\int eps (grad phi)^2 dr):     1252.566913
MG Discrepancy due to finite box and discretization:     -0.660652 (  -0.05272%)
MG Correction to account for finite box:                  0.476464
MG Remaining discrepancy, due to discretization:         -0.184187 (  -0.01470%)
     Trial step:       0.768105588951
             Q1:  -11718.230389099335
 Quadratic coef:       0.017938775154
 Linear coef   :      -0.046980303622
           Qmin:  -11718.232107041755
Quadratic minimum step length (  1.005805398445) accepted
    Initial Ne1:    7228.00056174
      Final Ne1:    7228.00000000

=================== Penalty functional idempotency correction ==================
 RMS occupancy error at iteration   1:  0.002437 (step -0.3880 Ne1=   7228.0000)
 RMS occupancy error at iteration   2:  0.000046 (step -0.4997 Ne1=   7228.0000)
 RMS occupancy error at iteration   3:  0.000000 (step -0.5000 Ne1=   7228.0000)
            Final RMS occupancy error   :  0.000000 (Ne1=   7228.0000)
               Final occupancy bounds   : [  0.0000,  1.0000]
================================================================================

    6        -1.171820134757E+04     3.7783E-05     3.4182E-05    -2.5948E-02
MG BCs: +ve charge blocks (gridpoints):     24464 (   16883552).
MG BCs: -ve charge blocks (gridpoints):      8510 (    1082901).
MG BCs:     Elided blocks (gridpoints):    169450 (  173004172).
MG BCs: Computational effort saved:  99.9827%.
MG BCs: Charge after coarse-graining:           -9.0006672.
MG DL_MG: Calling solver with defect correction order = 8
MG DL_MG: Solver finished
MG Hartree energy from (\int phi*rho dr):              1253.133652
MG Hartree energy from (\int eps (grad phi)^2 dr):     1252.473142
MG Discrepancy due to finite box and discretization:     -0.660510 (  -0.05271%)
MG Correction to account for finite box:                  0.476319
MG Remaining discrepancy, due to discretization:         -0.184191 (  -0.01470%)
      ideal mu1:      -0.730697750057
             Q0:  -11718.232727562077
             G0:      -0.062326454288
   RMS gradient:       0.000038179028
MG BCs: +ve charge blocks (gridpoints):     24465 (   16882485).
MG BCs: -ve charge blocks (gridpoints):      8511 (    1083240).
MG BCs:     Elided blocks (gridpoints):    169449 (  173004900).
MG BCs: Computational effort saved:  99.9827%.
MG BCs: Charge after coarse-graining:           -9.0006674.
MG DL_MG: Calling solver with defect correction order = 8
MG DL_MG: Solver finished
MG Hartree energy from (\int phi*rho dr):              1252.505814
MG Hartree energy from (\int eps (grad phi)^2 dr):     1251.845290
MG Discrepancy due to finite box and discretization:     -0.660524 (  -0.05274%)
MG Correction to account for finite box:                  0.476269
MG Remaining discrepancy, due to discretization:         -0.184254 (  -0.01471%)
     Trial step:       0.878956624609
             Q1:  -11718.250452392967
 Quadratic coef:       0.037057418995
 Linear coef   :      -0.054782249885
           Qmin:  -11718.252973810899
Quadratic minimum step length (  0.649683960104) accepted
    Initial Ne1:    7228.00000000
      Final Ne1:    7228.00000000

=================== Penalty functional idempotency correction ==================
 RMS occupancy error at iteration   1:  0.000036 (step -0.4978 Ne1=   7228.0000)
            Final RMS occupancy error   :  0.000000 (Ne1=   7228.0000)
               Final occupancy bounds   : [ -0.0000,  1.0000]
================================================================================

    7        -1.171823272756E+04     3.8179E-05     3.4540E-05    -3.1380E-02
MG BCs: +ve charge blocks (gridpoints):     24465 (   16882744).
MG BCs: -ve charge blocks (gridpoints):      8510 (    1083165).
MG BCs:     Elided blocks (gridpoints):    169449 (  173004716).
MG BCs: Computational effort saved:  99.9827%.
MG BCs: Charge after coarse-graining:           -9.0006673.
MG DL_MG: Calling solver with defect correction order = 8
MG DL_MG: Solver finished
MG Hartree energy from (\int phi*rho dr):              1252.667925
MG Hartree energy from (\int eps (grad phi)^2 dr):     1252.007403
MG Discrepancy due to finite box and discretization:     -0.660522 (  -0.05273%)
MG Correction to account for finite box:                  0.476285
MG Remaining discrepancy, due to discretization:         -0.184238 (  -0.01471%)
      ideal mu1:      -0.730045840875
             Q0:  -11718.252981720725
             G0:      -0.053181032904
   RMS gradient:       0.000035259751
MG BCs: +ve charge blocks (gridpoints):     24463 (   16882768).
MG BCs: -ve charge blocks (gridpoints):      8511 (    1083083).
MG BCs:     Elided blocks (gridpoints):    169451 (  173004774).
MG BCs: Computational effort saved:  99.9827%.
MG BCs: Charge after coarse-graining:           -9.0006673.
MG DL_MG: Calling solver with defect correction order = 8
MG DL_MG: Solver finished
MG Hartree energy from (\int phi*rho dr):              1252.465501
MG Hartree energy from (\int eps (grad phi)^2 dr):     1251.805088
MG Discrepancy due to finite box and discretization:     -0.660413 (  -0.05273%)
[...]
MG Correction to account for finite box:                  0.006455
MG Remaining discrepancy, due to discretization:         -0.183480 (  -0.01517%)
     Trial step:       0.695803620302
             Q1:  -11752.340129138436
 Quadratic coef:       0.000000001501
 Linear coef   :      -0.000000006041
           Qmin:  -11752.340129139975
Quadratic minimum step length (  1.400509947789) accepted
    Initial Ne1:    7228.00000000
      Final Ne1:    7228.00000000

=================== Penalty functional idempotency correction ==================
 RMS occupancy error at iteration   1:  0.000000 (step -0.5000 Ne1=   7228.0000)
            Final RMS occupancy error   :  0.000000 (Ne1=   7228.0000)
               Final occupancy bounds   : [  0.0000,  1.0000]
================================================================================

    7        -1.175234012913E+04     1.4250E-08     1.2891E-08    -6.5193E-09

Reusing previously generated solute cavity.
MG BCs: +ve charge blocks (gridpoints):     28618 (   19027771).
MG BCs: -ve charge blocks (gridpoints):      8482 (    1051968).
MG BCs:     Elided blocks (gridpoints):    165296 (  170890886).
MG BCs: Computational effort saved:  99.9806%.
MG BCs: Charge after coarse-graining:           -9.0009555.
MG DL_MG: Calling solver with defect correction order = 8
MG DL_MG: Solver finished
MG Hartree energy from (\int phi*rho dr):              1209.170946
MG Hartree energy from (\int eps (grad phi)^2 dr):     1208.981010
MG Discrepancy due to finite box and discretization:     -0.189936 (  -0.01571%)
MG Correction to account for finite box:                  0.006455
MG Remaining discrepancy, due to discretization:         -0.183480 (  -0.01517%)
      ideal mu1:      -0.485623165129
             Q0:  -11752.340129135875
WARNING in lnv_denskernel_optimise_cg: 
  conjugate gradient coefficient ( 0.512E+01) too large - resetting
             G0:      -0.000000044429
   RMS gradient:       0.000000032234

Reusing previously generated solute cavity.
MG BCs: +ve charge blocks (gridpoints):     28618 (   19027771).
MG BCs: -ve charge blocks (gridpoints):      8482 (    1051967).
MG BCs:     Elided blocks (gridpoints):    165296 (  170890887).
MG BCs: Computational effort saved:  99.9806%.
MG BCs: Charge after coarse-graining:           -9.0009555.
MG DL_MG: Calling solver with defect correction order = 8
MG DL_MG: Solver finished
MG Hartree energy from (\int phi*rho dr):              1209.170537
MG Hartree energy from (\int eps (grad phi)^2 dr):     1208.980601
MG Discrepancy due to finite box and discretization:     -0.189936 (  -0.01571%)
MG Correction to account for finite box:                  0.006455
MG Remaining discrepancy, due to discretization:         -0.183480 (  -0.01517%)
     Trial step:       0.987157480821
             Q1:  -11752.340129106655
 Quadratic coef:       0.000000073078
 Linear coef   :      -0.000000043858
           Qmin:  -11752.340129142456
Quadratic minimum step length (  0.296223263389) accepted
    Initial Ne1:    7228.00000000
      Final Ne1:    7228.00000000

=================== Penalty functional idempotency correction ==================
 RMS occupancy error at iteration   1:  0.000000 (step -0.5000 Ne1=   7228.0000)
            Final RMS occupancy error   :  0.000000 (Ne1=   7228.0000)
               Final occupancy bounds   : [  0.0000,  1.0000]
================================================================================

    8        -1.175234012914E+04     3.2234E-08     2.9162E-08    -1.9791E-09

Reusing previously generated solute cavity.
MG BCs: +ve charge blocks (gridpoints):     28618 (   19027770).
MG BCs: -ve charge blocks (gridpoints):      8482 (    1051967).
MG BCs:     Elided blocks (gridpoints):    165296 (  170890888).
MG BCs: Computational effort saved:  99.9806%.
MG BCs: Charge after coarse-graining:           -9.0009555.
MG DL_MG: Calling solver with defect correction order = 8
MG DL_MG: Solver finished
MG Hartree energy from (\int phi*rho dr):              1209.170823
MG Hartree energy from (\int eps (grad phi)^2 dr):     1208.980887
MG Discrepancy due to finite box and discretization:     -0.189936 (  -0.01571%)
MG Correction to account for finite box:                  0.006455
MG Remaining discrepancy, due to discretization:         -0.183480 (  -0.01517%)
      ideal mu1:      -0.485623004580
             Q0:  -11752.340129140648
             G0:      -0.000000002909
   RMS gradient:       0.000000007794

Reusing previously generated solute cavity.
MG BCs: +ve charge blocks (gridpoints):     28618 (   19027770).
MG BCs: -ve charge blocks (gridpoints):      8482 (    1051967).
MG BCs:     Elided blocks (gridpoints):    165296 (  170890888).
MG BCs: Computational effort saved:  99.9806%.
MG BCs: Charge after coarse-graining:           -9.0009555.
MG DL_MG: Calling solver with defect correction order = 8
MG DL_MG: Solver finished
MG Hartree energy from (\int phi*rho dr):              1209.170761
MG Hartree energy from (\int eps (grad phi)^2 dr):     1208.980826
MG Discrepancy due to finite box and discretization:     -0.189936 (  -0.01571%)
MG Correction to account for finite box:                  0.006455
MG Remaining discrepancy, due to discretization:         -0.183480 (  -0.01517%)
     Trial step:       0.540757811268
             Q1:  -11752.340129141347
 Quadratic coef:       0.000000000875
 Linear coef   :      -0.000000001573
           Qmin:  -11752.340129141356
Quadratic minimum step length (  0.486082633049) accepted
    Initial Ne1:    7228.00000000
      Final Ne1:    7228.00000000

=================== Penalty functional idempotency correction ==================
 RMS occupancy error at iteration   1:  0.000000 (step -0.5000 Ne1=   7228.0000)
            Final RMS occupancy error   :  0.000000 (Ne1=   7228.0000)
               Final occupancy bounds   : [  0.0000,  1.0000]
================================================================================

    9        -1.175234012914E+04     7.7938E-09     7.0509E-09    -4.7730E-09

Reusing previously generated solute cavity.
MG BCs: +ve charge blocks (gridpoints):     28618 (   19027770).
MG BCs: -ve charge blocks (gridpoints):      8482 (    1051967).
MG BCs:     Elided blocks (gridpoints):    165296 (  170890888).
MG BCs: Computational effort saved:  99.9806%.
MG BCs: Charge after coarse-graining:           -9.0009555.
MG DL_MG: Calling solver with defect correction order = 8
MG DL_MG: Solver finished
MG Hartree energy from (\int phi*rho dr):              1209.170767
MG Hartree energy from (\int eps (grad phi)^2 dr):     1208.980832
MG Discrepancy due to finite box and discretization:     -0.189936 (  -0.01571%)
MG Correction to account for finite box:                  0.006455
MG Remaining discrepancy, due to discretization:         -0.183480 (  -0.01517%)
      ideal mu1:      -0.485622972528
   10        -1.175234012914E+04     6.3248E-09     5.7219E-09    -6.9849E-10
Finished density kernel iterations (  10)

Writing density kernel to file "complex_35441.dkn" ... done


>>> Density kernel optimised for the current NGWF basis:
     ~~~~~~~~~~~~~~~~~~~~~~~~~~~~~~~~~~~~~~~~~~~~~~~~~~~~~~~~~~~
     Total energy                =  -1.17523401291413E+04  Eh
     Estimated bandgap           =   7.9778E-02  Eh
     RMS occupancy error         =   3.0353E-16
     [H,K] commutator            =   5.7219E-09
     Occupancy bounds            = [  0.000:  1.000]
     ~~~~~~~~~~~~~~~~~~~~~~~~~~~~~~~~~~~~~~~~~~~~~~~~~~~~~~~~~~~




################################################################################
########################### NGWF CG iteration  004 #############################
################################################################################
****** Reciprocal space K.E. preconditioning with k_zero =  3.5000 a0^-1 *******

>>> Checking for convergence of NGWFs: 
           ........................................................
           |         *** NGWF optimisation converged ***          |
           | RMS NGWF gradient =    0.00000188215894              |
           | Criteria satisfied:                                  |
           | -> RMS NGWF gradient lower than set threshold.       |
           ========================================================

Reusing previously generated solute cavity.
MG BCs: +ve charge blocks (gridpoints):     28618 (   19027770).
MG BCs: -ve charge blocks (gridpoints):      8482 (    1051967).
MG BCs:     Elided blocks (gridpoints):    165296 (  170890888).
MG BCs: Computational effort saved:  99.9806%.
MG BCs: Charge after coarse-graining:           -9.0009555.
MG DL_MG: Calling solver with defect correction order = 8
MG DL_MG: Solver finished
MG Hartree energy from (\int phi*rho dr):              1209.170767
MG Hartree energy from (\int eps (grad phi)^2 dr):     1208.980832
MG Discrepancy due to finite box and discretization:     -0.189936 (  -0.01571%)
MG Correction to account for finite box:                  0.006455
MG Remaining discrepancy, due to discretization:         -0.183480 (  -0.01517%)

================================================================================
           ---------------- ENERGY COMPONENTS (Eh) ----------------
           | Kinetic                    :     8599.27931595896189 |
           | Pseudo. (local,OBC,corr'd) :    -5095.73080627306990 |
           | Pseudopotential (non-local):     1410.58836266824710 |
           | Hartree (molecular)        :     1209.17076744421706 |
           | Exchange-correlation       :    -3398.61102664352666 |
           | Ion-ion (open BC)          :   837684.98929016361944 |
           | Smeared ion non-self corr. :  -837636.67786867567338 |
           | Smeared ion self corr.     :   -14525.98710726666468 |
           | Solvent cavitation energy  :        2.27321349294916 |
           | Solute-solvent dis-rep en. :       -1.63427001041848 |
           | Total                      :   -11752.34012914135565 |
           --------------------------------------------------------
           ------ LOCAL ENERGY COMPONENTS FROM MATRIX TRACES ------
           | Pseudopotential (local)    :    -5095.73080627308809 |
           | Hartree                    :    -2013.22271533176968 |
           --------------------------------------------------------
           Integrated density           :     7227.99999999897409
           Integrated density tr(KS)    :     7228.00000000000000
================================================================================


                        <<<<< CALCULATION SUMMARY >>>>>                         
|ITER|    RMS GRADIENT   |     TOTAL ENERGY    |   step   |     Epredicted              
   0     0.00004013524262 -11752.27646466123406   0.621945 -11752.33145642990712        
   1     0.00000954068763 -11752.33964052947704   0.080730 -11752.34004388663379        
   2     0.00000420962176 -11752.34011263737921   0.014830 -11752.34012706247813        
   3     0.00000188215894 -11752.34012914134655  <-- CG                                 

=================== Finished the calculation in solvent ========================
= Adjusting the following parameters: 
= read_denskern: F
= read_tightbox_ngwfs: F
= maxit_pen: 0 (restored to user-specified value)
= restart read filename prefix: ""
= restart write filename prefix: ""
================================================================================

================================================================================
IS: Calculation in solvent completed (NGWFs converged).      

Individual components of total energy in solvent:     hartree           kcal/mol
- Usual non-electrostatic DFT terms:    -12962.14984006809391    -8133871.652403
- Electrostatic fixed charge energy:      1209.17076744421706      758766.095870
- Apolar cavitation energy:                  2.27321349294916        1426.462972
- Apolar dispersion-repulsion energy:       -1.63427001041848       -1025.519892
 -------------------------------------------------------------------------------
- Total energy in solvent:              -11752.34012914134655    -7374704.613453

Components of total energy in solvent:                hartree           kcal/mol
- Usual non-electrostatic DFT terms:    -12962.14984006809391    -8133871.652403
- Electrostatic energy:                   1209.17076744421706      758766.095870
- Apolar energy terms:                       0.63894348253069         400.943080
 -------------------------------------------------------------------------------
- Total energy in solvent:              -11752.34012914134655    -7374704.613453

Calculation of free energy of solvation:              hartree           kcal/mol
- Total energy in solvent:         (+)  -11752.34012914134655    -7374704.613453
- Total energy in vacuum:          (-)  -11748.56439386331476    -7372335.303846
 -------------------------------------------------------------------------------
- Total free energy of solvation:           -3.77573527803179       -2369.309607

Components of polar term in f.e. of solvation:        hartree           kcal/mol
- Electrostatic:                            -4.48356074451226       -2813.476784
- Change in nonelectrostatic DFT terms:      0.06888198395063          43.224097
 -------------------------------------------------------------------------------
- Polar term in f.e. of solvation:          -4.41467876056163       -2770.252687

Components of free energy of solvation:               hartree           kcal/mol
- Polar term in f.e. of solvation: (+)      -4.41467876056163       -2770.252687
- Apolar (cavitation, dis., rep.): (+)       0.63894348253069         400.943080
 -------------------------------------------------------------------------------
- Total free energy of solvation:           -3.77573527803094       -2369.309607
================================================================================


------------------------------ TIMING INFORMATION ------------------------------
AVERAGE TIME:   39660.015s on     60 node(s)                                    
TOTAL TIME:     39660.015s on     60 node(s)                                    
================= AVERAGE TIMINGS FROM ALL NODES (CUMULATIVE) ==================
|| TAG                                    #calls    cpu time   %total  Gflops ||
|| work_imbalance                       :     1        0.00s   0.000%  ------ ||
|| sparse_set_to_garbage                :   194        0.04s   0.000%  ------ ||
|| parallel_prepare_fd_halos_request    :  2067        0.04s   0.000%  ------ ||
|| ngwfs_initialise_from_radial         :     1        0.11s   0.000%  ------ ||
|| basis_extract_function_from_box      :  3814        0.17s   0.000%  ------ ||
|| parallel_prepare_fd_halos_alloc      :  2067        0.19s   0.000%  ------ ||
|| parallel_prepare_fd_halos_satisfy    :  2067        0.69s   0.002%  ------ ||
|| pseudopotentials_nonlocal_mat        :    33        2.60s   0.007%  ------ ||
|| openbc_locps_radial                  :     1        3.04s   0.008%  ------ ||
|| density_init_guess_real              :     1        5.10s   0.013%  ------ ||
|| restart_kernel_read                  :     1        5.94s   0.015%  ------ ||
|| parallel_prepare_fd_halos_comms_imbal:  2067       11.33s   0.029%  ------ ||
|| restart_ngwfs_tightbox_input         :     1       12.45s   0.031%  ------ ||
|| parallel_prepare_fd_halos_clear      :  2067       19.90s   0.050%  ------ ||
|| sparse_init                          :     2       22.43s   0.057%  ------ ||
|| parallel_prepare_fd_halos_comms_wait :  2067       26.08s   0.066%  ------ ||
|| projectors_func_ovlp_box             :    33       32.10s   0.081%  ------ ||
|| function_ops_brappd_ketppd           :    33       34.24s   0.086%  ------ ||
|| palser_mano_kernel_optimise          :     1       36.43s   0.092%  ------ ||
|| projectors_init_fftbox_recip         :   152       37.46s   0.094%  ------ ||
|| basis_copy_function_to_box           : 62120       48.74s   0.123%  ------ ||
|| pseudo_make_structure_factor         :     2       52.01s   0.131%  ------ ||
|| ngwf_gradient_coeffs                 :    17       53.10s   0.134%  ------ ||
|| parallel_prepare_fd_halos            :  2067       58.24s   0.147%  ------ ||
|| fourier_apply_box_pair               :  5519       58.81s   0.148% 578.787 ||
|| sparse_embed_hotelling_invert_embed  :    33       81.94s   0.207%  ------ ||
|| restart_kernel_write                 :    18      109.78s   0.277%  ------ ||
|| finite_difference_derivative         :  2067      142.77s   0.360%  ------ ||
|| integrals_kinetic                    :    33      173.86s   0.438%  ------ ||
|| projectors_gradient_batch            :   119      191.04s   0.482%  ------ ||
|| basis_dot_function_with_box          : 9.531M     191.84s   0.484%  ------ ||
|| sparse_trace                         :  5842      202.53s   0.511%  ------ ||
|| openbc_locps_on_grid                 :     2      261.88s   0.660%  ------ ||
|| kernel_purify                        :   526      326.22s   0.823%  ------ ||
|| basis_add_function_to_box            : 19.86M     451.67s   1.139%  ------ ||
|| lnv_gradient_norm                    :   170      472.96s   1.193%  ------ ||
|| hamiltonian_energy_components        :     4      571.18s   1.440%  ------ ||
|| kernel_fix                           :   170      593.46s   1.496%  ------ ||
|| integrals_locpot_mat_els_batch       :  1253      839.96s   2.118%  ------ ||
|| ngwf_gradient_build_batch            :   119      852.80s   2.150%  ------ ||
|| ngwf_gradient_batch                  :   119     1167.96s   2.945%  ------ ||
|| density_batch_row_sums               :  2401     1308.57s   3.299%  ------ ||
|| ngwf_gradient_lnv                    :    17     1309.13s   3.301%  ------ ||
|| cell_grid_deposit_box_real           : 39497     1546.52s   3.899%  ------ ||
|| fourier_apply_cell_forward           :  9633     1623.31s   4.093%  79.690 ||
|| fourier_apply_cell_backward          : 10323     1783.39s   4.497%  77.733 ||
|| cell_grid_extract_box_real           : 43215     1827.88s   4.609%  ------ ||
|| sparse_product                       :  7182     2026.77s   5.110%  ------ ||
|| restart_ngwfs_tightbox_output        :    15     2086.05s   5.260%  ------ ||
|| density_fftbox_deposit_to_cell       : 37387     2328.17s   5.870%  ------ ||
|| potential_apply_to_ngwf_batch        :  1253     4190.22s  10.565%  ------ ||
|| density_fftbox_interpolate_multiply  : 37387     4195.92s  10.580%  ------ ||
|| xc_energy_potential                  :   344     4397.08s  11.087%  ------ ||
|| multigrid_prepare_bound_cond         :   344     4866.72s  12.271%  ------ ||
|| integrals_locpot_dbl_grid            :   179     5049.63s  12.732%  ------ ||
|| fourier_apply_box                    : 129.7k    5148.68s  12.982% 752.216 ||
|| nlxc_vdw_energy                      :   688     7120.12s  17.953%  ------ ||
|| density_batch_interp_deposit         :  2401     7580.01s  19.112%  ------ ||
|| dl_mg_solver_calls                   :   344     8648.49s  21.807%  ------ ||
|| density_on_dbl_grid                  :   343     9223.71s  23.257%  ------ ||
|| multigrid_calculate_hartree          :   344    13709.09s  34.567%  ------ ||
|| hamiltonian_lhxc_calculate           :   339    27190.20s  68.558%  ------ ||
|| lnv_denskernel_optimise_cg           :    17    32982.22s  83.162%  ------ ||
|| ngwf_cg_optimise                     :     2    38695.84s  97.569%  ------ ||
|| total_time                           :     1    39660.01s 100.000%  ------ ||
================================================================================
Overhead of generating timer report: 
- 0 ms averaging over threads,
- 15 ms ensuring consistency across MPI ranks,
- 0 ms printing in order.

Job completed: 22-02-2020 20:39 (-0000)

Application 39155936 resources: utime ~7776272s, stime ~259295s, Rss ~3849644, inblocks ~337555616, outblocks ~72560212
