 +---------------------------------------------------------------+
 |                                                               |
 |        ####### #     # ####### ####### ####### ######         |
 |        #     # ##    # #          #    #       #     #        |
 |        #     # # #   # #          #    #       #     #        |
 |        #     # #  #  # #####      #    #####   ######         |
 |        #     # #   # # #          #    #       #              |
 |        #     # #    ## #          #    #       #              |
 |        ####### #     # #######    #    ####### #              |
 |                                                               |
 |        Linear-Scaling Ab Initio Total Energy Program          |
 |                                                               |
 |          Release for academic collaborators of ODG            |
 |                                             Version 5.3.2.6.  |
 |                                                               |
 +---------------------------------------------------------------+
 |                                                               |
 |  Authors:                                                     |
 |  Jacek Dziedzic, Peter D. Haynes, Nicholas D. M. Hine,        |
 |  Arash. A. Mostofi, Mike C. Payne and Chris-Kriton Skylaris   |
 |                                                               |
 |  Contributors:                                                |
 |  J. Aarons, L. Andrinopoulos, P. W. Avraam, R. A. Bell,       |
 |  A. Bhandari, G. A. Bramley, R. J. Charlton, S. J. Clark,     |
 |  R. J. Clements, G. C. Constantinescu, F. Corsetti,           |
 |  N. Corsini, O. Dieguez, S. M. M. Dubois, K. K. B. Duff,      |
 |  J. M. Escartin, A. Greco, H. Helal, Q. O. Hill, L. P. Lee,   |
 |  J.-H. Li, E. B. Linscott, G. Moynihan, D. D. O`Regan,        |
 |  O. K. Okan, M. J. S. Phipps, C. J. Pickard,                  |
 |  J. C. A. Prentice, M. I. J. Probert, L. E. Ratcliff,         |
 |  M. Robinson, A. Ruiz Serrano, J. S. Spencer, E. W. Tait,     |
 |  G. Teobaldi, D. Turban, V. Vitale, K. A. Wilkinson,          |
 |  C. Weber, J. C. Womack, N. Yeung and T. J. Zuehlsdorff       |
 |                                                               |
 |                                   Copyright (c) 2004-2019     |
 |                                                               |
 |  Please cite:                                                 |
 |  "Introducing ONETEP: Linear-scaling density functional       |
 |   simulations on parallel computers".                         |
 |   C.-K. Skylaris, P. D. Haynes, A. A. Mostofi, M. C. Payne.   |
 |   J. Chem. Phys. 122 084119 (2005).                           |
 |                                                               |
 |          in all publications arising from your use of ONETEP. |
 |                                                               |
 +---------------------------------------------------------------+
 |                                                               |
 |   ONETEP is based on developments described in the following  |
 |   publications:                                               |
 |                                                               |
 |  "Nonorthogonal generalized Wannier function pseudopotential  |
 |   plane-wave method".                                         |
 |   C.-K. Skylaris, A. A. Mostofi, P. D. Haynes, O. Dieguez,    |
 |   M. C. Payne.                                                |
 |   Phys. Rev. B 66 035119 (2002).                              |
 |                                                               |
 |  "Preconditioned iterative minimization for linear-scaling    |
 |   electronic structure calculations".                         |
 |   A. A. Mostofi, P. D. Haynes, C.-K. Skylaris, M. C. Payne.   |
 |   J. Chem. Phys. 119(17), pp.8842-8848 (2003).                |
 |                                                               |
 |  "Total-energy calculations on a real space grid with         |
 |   localized functions and a plane-wave basis".                |
 |   A. A. Mostofi, C.-K. Skylaris, P. D. Haynes, M. C. Payne.   |
 |   Comput. Phys. Commun. 147, pp.788-802 (2002).               |
 |                                                               |
 |  "Accurate kinetic energy evaluation in electronic structure  |
 |   calculations with localized functions on real space grids"  |
 |   C.-K. Skylaris, A. A. Mostofi, P. D. Haynes, C. J. Pickard, |
 |   M. C. Payne.                                                |
 |   Comput. Phys. Commun. 140, pp.315-322 (2001).               |
 |                                                               |
 |  "Accurate ionic forces and geometry optimization in linear-  |
 |   scaling density-functional theory with local orbitals"      |
 |   N. D. M. Hine, M. Robinson, P. D. Haynes, C.-K. Skylaris,   |
 |   M. C. Payne, and A. A. Mostofi.                             |
 |   Phys. Rev. B 83 195102 (2011).                              |
 |                                                               |
 +---------------------------------------------------------------+

Job started: 25-01-2020 17:53 (-0000)
 
Reading parameters from file "host_8081.dat" ...... done

If your calculation crashes here, before "Checking processes and threads..."
is displayed, then your stack size is insufficient.
If so, use "ulimit -s unlimited" at runtime.
You can disable this check with "check_stack_size F".

Checking processes and threads...
   Determining the default number of threads...
      No default threads set at compilation time: defaulting to 1.
      OpenMP library call suggests 4 threads.
      Hybrid MPI-OpenMP compilation detected.
      Number of MPI processes > 1.
      OMP_NUM_THREADS environment variable present and
      its value matches the one obtained from the OpenMP library call.
      Using this value as default.
      Default threads: 4
      Default applies to threads_max and threads_num_fftboxes.
      Settings in the input file override this default.
   ... done

   Running with 60 MPI processes.
   There are 6 MPI processes running on the same node as the root process.
   Each MPI process is using: 
               1 threads for simulation cell FFTs.
               1 threads for parallel FFT box operations.
               4 threads for loops over batched FFT box operations.
               4 threads in other parallel regions.
... done

Basic input checks...... done

Reading geometry and species blocks from file "host_8081.dat" ...
  <species_atomic_set> block not found: NGWF initialisation set to SOLVE
IS: Dielectric excluded regions:
    - NONE.
    
  Number of PPD points along a3 set to 1.  This is 
  the default value, it may have been provided also in the input file.
... done
 Writing xyz coordinates to file "host_8081.xyz" ... done


--------------------------------------------------------------------------------
---------------------------------- INPUT FILE ----------------------------------
--------------------------------------------------------------------------------

cutoff_energy       : 800 eV                                                    
xc_functional VV10                                                              
task SINGLEPOINT                                                                
write_xyz true                                                                  
output_detail VERBOSE                                                           
ngwf_threshold_orig : 0.000002                                                  
kernel_cutoff       : 1000                                                      
k_zero              : 3.5                                                       
elec_cg_max 0                                                                   
occ_mix 1.0                                                                     
dispersion 0                                                                    
maxit_ngwf_cg 40                                                                
minit_lnv 10                                                                    
maxit_lnv 10                                                                    
write_denskern T                                                                
write_tightbox_ngwfs T                                                          
charge 9                                                                        
is_implicit_solvent T                                                           
is_auto_solvation T                                                             
is_include_apolar T                                                             
is_smeared_ion_rep T                                                            
is_solvent_surf_tension 4.7624E-5 Ha/bohr**2                                    
is_apolar_scaling_factor 0.281075                                               
is_solvation_beta 1.3                                                           
is_density_threshold 0.00035                                                    
is_bulk_permittivity 78.54                                                      
is_dielectric_model fix_initial                                                 
is_smeared_ion_width 0.8                                                        
mg_defco_fd_order 8                                                             
is_bc_coarseness 10                                                             
is_bc_surface_coarseness 1                                                      
fine_grid_scale 2.0                                                             
%block species                                                                  
N   N   7 4 8.0                                                                 
H   H   1 1 8.0                                                                 
C   C   6 4 8.0                                                                 
S   S  16 9 8.0                                                                 
O   O   8 4 8.0                                                                 
%endblock species                                                               
%block species_pot                                                              
N   N_00.recpot                                                                 
H   H_04.recpot                                                                 
C   C_01.recpot                                                                 
S   S_00.recpot                                                                 
O   O_02.recpot                                                                 
%endblock species_pot                                                           
%block lattice_cart                                                             
135.996   0.000   0.000                                                         
0.000 142.663   0.000                                                           
0.000   0.000   160.158                                                         
%endblock lattice_cart                                                          
%block positions_abs                                                            
     Hash =  -000005614248177384714988
%endblock positions_abs                                                         

--------------------------------------------------------------------------------
-------------------------------- END INPUT FILE --------------------------------
--------------------------------------------------------------------------------


 
 ESDF WARNING(1): "kernelcutoff" (esdf_physical) has no units. Assume "bohr".
 ESDF WARNING(2): "kzero" (esdf_physical) has no units. Assume "1/bohr".
 ESDF WARNING(3
 ): "issmearedionwidth" (esdf_physical) has no units. Assume "bohr".
<<<<<<<<<<<<<<<<<<<<<<<<<<<<<<<<< Full system >>>>>>>>>>>>>>>>>>>>>>>>>>>>>>>>>>
<<<<<<<<<<<<<<<<<<<<<<<<< Pseudopotential information >>>>>>>>>>>>>>>>>>>>>>>>>>
File: N_00.recpot [ 2001 points up to Gmax=  52.9 (1/bohr)]
  Atomic number:  7;  ionic charge:  5.000000
    Shell 1: l = 0; rc = 1.48 bohr
File: H_04.recpot [ 2001 points up to Gmax=  52.9 (1/bohr)]
  Atomic number:  1;  ionic charge:  1.000000
    Local potential
File: C_01.recpot [ 2001 points up to Gmax=  52.9 (1/bohr)]
  Atomic number:  6;  ionic charge:  4.000000
    Shell 1: l = 0; rc = 1.48 bohr
File: S_00.recpot [ 2001 points up to Gmax=  52.9 (1/bohr)]
  Atomic number: 16;  ionic charge:  6.000000
    Shell 1: l = 0; rc = 1.90 bohr
    Shell 2: l = 2; rc = 1.84 bohr
File: O_02.recpot [ 2001 points up to Gmax=  52.9 (1/bohr)]
  Atomic number:  8;  ionic charge:  6.000000
    Shell 1: l = 0; rc = 1.31 bohr
<<<<<<<<<<<<<<<<<<<<<<<<<<<<<<<<<<<<<<<<>>>>>>>>>>>>>>>>>>>>>>>>>>>>>>>>>>>>>>>>

-------------------------- Atom counting information ---------------------------
Symbol    Natoms    Nngwfs    Nprojs
  N        236       944       236
  H       1311      1311         0
  C        810      3240       810
  S          6        54        36
  O        239       956       239
.......   ......    ......    ......
Totals:   2602      6505      1321
--------------------------------------------------------------------------------

=============================== PSINC grid sizes ===============================
                      Simulation cell:  270 x 286 x 315
                              FFT-box:   99 x 105 x  99
                                  PPD:    5 x  11 x   1
Grid space d1=  0.503688888889a0 (KE cutoff=  29.94189Eh = 814.76038eV)
Grid space d2=  0.498821678322a0 (KE cutoff=  30.52906Eh = 830.73786eV)
Grid space d3=  0.508438095238a0 (KE cutoff=  29.38514Eh = 799.61048eV)
================================================================================

********************* Fourier parallelisation information **********************
       Coarse grid (whole simulation cell) dimensions:    270   286   315
          Real-space ('12') slabs/node (min max mean):      5     6     5
         Recip-space ('23') slabs/node (min max mean):      2     3     2
********************************************************************************

********************* Fourier parallelisation information **********************
       Double grid (whole simulation cell) dimensions:    540   572   630
          Real-space ('12') slabs/node (min max mean):     10    11    10
         Recip-space ('23') slabs/node (min max mean):      4     5     4
********************************************************************************
ONETEP fine grid is 540 x 572 x 630 gridpoints, 135.9960 x 142.6630 x 160.1580 bohr.
FD multigrid is     537 x 569 x 625 gridpoints, 135.2405 x 141.9148 x 158.8869 bohr.


Calculating local pseudopotential in open BC on a radial grid ...
Discrepancy between calculated realspace psloc and -Z/x on [5a0,253.965a0]:
max |rel. diff| # avg |rel. diff| #  avg rel. diff #  f # pseudopotential file
 0.000259282084    0.000004141996   0.000000074978   54  'N_00.recpot'
 0.000405386992    0.000016970607  -0.000000075982   54  'H_04.recpot'
 0.000371694516    0.000017434762   0.000000149329   54  'C_01.recpot'
 0.000461642895    0.000020341726   0.000000491514   54  'S_00.recpot'
 0.000682525123    0.000027368244   0.000000159803   54  'O_02.recpot'
... done

Atom SCF Calculation for N  : Z (AE atom) =   7 : Z (PS atom) =   5
Config String:
Orbitals (num,occ):  2     2.00 3.00
Orbitals   (num,l):  2        0    1
Real-space Grid (nr,dr,rmax): 1203    0.0066555740    8.0000000000
Spherical Bessel Basis (nsws,lmax,cutoff):   47    1  176.3951722778
Confining potential (l,width,scale):  0    3.0000000000  100.0000000000
Confining potential (l,width,scale):  1    3.0000000000  100.0000000000
  1         -4.7366890484   -3.4501654188    7.0523828109   -1.9619316308
  2         -9.7225420322   -2.0763080851    8.3068355706   -2.2908832437
  3         -9.7134243553   -2.1270543915    8.2534567806   -2.2819809971
  4         -9.7235185949   -2.1427582218    8.2369947390   -2.2802814234
  5         -9.7258373845   -2.1477905863    8.2317116314   -2.2798536235
  6         -9.7268932325   -2.1503512400    8.2290229806   -2.2796830099
  7         -9.7273189469   -2.1516634231    8.2276451699   -2.2796169657
  8         -9.7274675212   -2.1523365544    8.2269384796   -2.2795940092
  9         -9.7275041773   -2.1526817003    8.2265762312   -2.2795881371
 10         -9.7275008637   -2.1528585007    8.2263907413   -2.2795884060
 11         -9.7274868305   -2.1529489544    8.2262958841   -2.2795903922
 12         -9.7274755655   -2.1529859230    8.2262571347   -2.2795920452
 13         -9.7274662327   -2.1530083995    8.2262335832   -2.2795934369
 14         -9.7274589439   -2.1530220534    8.2262192809   -2.2795945372
 15         -9.7274534633   -2.1530303399    8.2262106039   -2.2795953734
 16         -9.7274494492   -2.1530353634    8.2262053452   -2.2795959920
 17         -9.7274465654   -2.1530384053    8.2262021621   -2.2795964406
 18         -9.7274445237   -2.1530402447    8.2262002378   -2.2795967611
 19         -9.7274430947   -2.1530413553    8.2261990762   -2.2795969874
 20         -9.7274421038   -2.1530420249    8.2261983762   -2.2795971458
 21         -9.7274414219   -2.1530424277    8.2261979551   -2.2795972557
 22         -9.7274409555   -2.1530426696    8.2261977024   -2.2795973315
 23         -9.7274406382   -2.1530428144    8.2261975510   -2.2795973835
 24         -9.7274404232   -2.1530429010    8.2261974606   -2.2795974190
 25         -9.7274402783   -2.1530429525    8.2261974067   -2.2795974432
 26         -9.7274401808   -2.1530429831    8.2261973748   -2.2795974596
Atom SCF converged after  26 iterations to a total energy of     -9.72744018

Atom SCF Calculation for H  : Z (AE atom) =   1 : Z (PS atom) =   1
Config String:
Orbitals (num,occ):  1     1.00
Orbitals   (num,l):  1        0
Real-space Grid (nr,dr,rmax): 1203    0.0066555740    8.0000000000
Spherical Bessel Basis (nsws,lmax,cutoff):   47    0  176.3951722778
Confining potential (l,width,scale):  0    3.0000000000  100.0000000000
  1         -0.3178661827   -0.2469879004    0.2820953124   -0.2487802071
  2         -0.3961824611   -0.2455070831    0.2902209900   -0.2567664324
  3         -0.4406462424   -0.2424227551    0.2948173255   -0.2622129794
  4         -0.4569739054   -0.2416771342    0.2960118236   -0.2639986016
  5         -0.4627745219   -0.2416114401    0.2961916694   -0.2644992007
  6         -0.4648634749   -0.2416666130    0.2961598921   -0.2646237065
  7         -0.4656347011   -0.2417155160    0.2961132802   -0.2646490719
  8         -0.4659271144   -0.2417438448    0.2960836537   -0.2646515522
  9         -0.4660407254   -0.2417580788    0.2960682004   -0.2646501482
 10         -0.4660857867   -0.2417647566    0.2960608087   -0.2646488305
 11         -0.4661039568   -0.2417677717    0.2960574330   -0.2646480606
 12         -0.4661113773   -0.2417691018    0.2960559329   -0.2646476727
 13         -0.4661144368   -0.2417696800    0.2960552775   -0.2646474903
 14         -0.4661157072   -0.2417699291    0.2960549942   -0.2646474079
 15         -0.4661162374   -0.2417700356    0.2960548727   -0.2646473715
 16         -0.4661164596   -0.2417700810    0.2960548208   -0.2646473556
 17         -0.4661165529   -0.2417701003    0.2960547987   -0.2646473488
Atom SCF converged after  17 iterations to a total energy of     -0.46611655

Atom SCF Calculation for C  : Z (AE atom) =   6 : Z (PS atom) =   4
Config String:
Orbitals (num,occ):  2     2.00 2.00
Orbitals   (num,l):  2        0    1
Real-space Grid (nr,dr,rmax): 1203    0.0066555740    8.0000000000
Spherical Bessel Basis (nsws,lmax,cutoff):   47    1  176.3951722778
Confining potential (l,width,scale):  0    3.0000000000  100.0000000000
Confining potential (l,width,scale):  1    3.0000000000  100.0000000000
  1         -5.2812238291   -1.3293161250    4.5135249990   -1.4716766231
  2         -5.3996591362   -1.3542148509    4.4876064308   -1.4645117417
  3         -5.4111847148   -1.3757224423    4.4645718036   -1.4593107263
  4         -5.4199203659   -1.3833334895    4.4563636676   -1.4579885221
  5         -5.4226876204   -1.3865104950    4.4529090432   -1.4575385943
  6         -5.4235070726   -1.3878131251    4.4514866831   -1.4573882877
  7         -5.4237271252   -1.3883401868    4.4509094528   -1.4573411661
  8         -5.4237693051   -1.3885521813    4.4506766230   -1.4573281030
  9         -5.4237656430   -1.3886371046    4.4505830704   -1.4573255254
 10         -5.4237547927   -1.3886709976    4.4505456041   -1.4573257244
 11         -5.4237478594   -1.3886817763    4.4505336403   -1.4573262476
 12         -5.4237429748   -1.3886873440    4.4505274417   -1.4573266921
 13         -5.4237397042   -1.3886902144    4.4505242350   -1.4573270222
 14         -5.4237375865   -1.3886916908    4.4505225792   -1.4573272507
 15         -5.4237362473   -1.3886924482    4.4505217259   -1.4573274021
 16         -5.4237354152   -1.3886928356    4.4505212873   -1.4573274996
 17         -5.4237349050   -1.3886930331    4.4505210623   -1.4573275610
 18         -5.4237345954   -1.3886931333    4.4505209473   -1.4573275991
 19         -5.4237344092   -1.3886931840    4.4505208887   -1.4573276224
 20         -5.4237342980   -1.3886932094    4.4505208590   -1.4573276366
 21         -5.4237342320   -1.3886932221    4.4505208440   -1.4573276451
Atom SCF converged after  21 iterations to a total energy of     -5.42373423

Atom SCF Calculation for S  : Z (AE atom) =  16 : Z (PS atom) =   6
Config String:
Orbitals (num,occ):  3     2.00 4.00 0.00
Orbitals   (num,l):  3        0    1    2
Real-space Grid (nr,dr,rmax): 1203    0.0066555740    8.0000000000
Spherical Bessel Basis (nsws,lmax,cutoff):   47    2  176.3951722778
Confining potential (l,width,scale):  0    3.0000000000  100.0000000000
Confining potential (l,width,scale):  1    3.0000000000  100.0000000000
Confining potential (l,width,scale):  2    3.0000000000  100.0000000000
  1        -12.4916237786   -1.0485914554   10.1554312477   -2.4822447765
  2         -9.9747083603   -2.4807597367    8.3138131863   -2.0618837268
  3        -10.1811370131   -2.3153496392    8.4906092179   -2.1137756843
  4        -10.1856385898   -2.2984912006    8.5093862195   -2.1218167101
  5        -10.1891317560   -2.2894783333    8.5195006030   -2.1261392389
  6        -10.1911142562   -2.2849160124    8.5246320974   -2.1283733378
  7        -10.1921506977   -2.2826473329    8.5271859473   -2.1295140514
  8        -10.1926851273   -2.2815219985    8.5284534218   -2.1300957983
  9        -10.1929632671   -2.2809620806    8.5290843811   -2.1303933136
 10        -10.1931100895   -2.2806822783    8.5293998452   -2.1305460626
 11        -10.1931885828   -2.2805418782    8.5295582201   -2.1306248009
 12        -10.1932309625   -2.2804711729    8.5296380158   -2.1306655459
 13        -10.1932540142   -2.2804354512    8.5296783476   -2.1306867097
 14        -10.1932666242   -2.2804173494    8.5296987927   -2.1306977435
 15        -10.1932735535   -2.2804081489    8.5297091868   -2.1307035175
 16        -10.1932773756   -2.2804034581    8.5297144867   -2.1307065505
 17        -10.1932794908   -2.2804010586    8.5297171976   -2.1307081499
 18        -10.1932806648   -2.2803998268    8.5297185890   -2.1307089965
 19        -10.1932813181   -2.2803991920    8.5297193057   -2.1307094466
 20        -10.1932816826   -2.2803988634    8.5297196763   -2.1307096867
 21        -10.1932818864   -2.2803986926    8.5297198688   -2.1307098154
 22        -10.1932820006   -2.2803986034    8.5297199692   -2.1307098847
 23        -10.1932820648   -2.2803985565    8.5297200219   -2.1307099221
Atom SCF converged after  23 iterations to a total energy of    -10.19328206

Atom SCF Calculation for O  : Z (AE atom) =   8 : Z (PS atom) =   6
Config String:
Orbitals (num,occ):  2     2.00 4.00
Orbitals   (num,l):  2        0    1
Real-space Grid (nr,dr,rmax): 1203    0.0066555740    8.0000000000
Spherical Bessel Basis (nsws,lmax,cutoff):   47    1  176.3951722778
Confining potential (l,width,scale):  0    3.0000000000  100.0000000000
Confining potential (l,width,scale):  1    3.0000000000  100.0000000000
  1         -1.9497477053   -7.5870966769   10.1554312477   -2.4822447765
  2        -15.9466298225   -3.1778351734   13.6353006614   -3.2931224232
  3        -16.0387051750   -3.0909030611   13.7305651010   -3.3194522996
  4        -15.9025031450   -3.1083023605   13.7128101414   -3.3180850501
  5        -15.8912953362   -3.1033022259   13.7185404266   -3.3206942093
  6        -15.8793912992   -3.1043100674   13.7175820250   -3.3209366960
  7        -15.8748748605   -3.1043975610   13.7175531476   -3.3211845618
  8        -15.8725354084   -3.1044655610   13.7175148333   -3.3213149154
  9        -15.8713193866   -3.1045129589   13.7174824743   -3.3213832909
 10        -15.8706863385   -3.1045436851   13.7174593895   -3.3214192053
 11        -15.8703562731   -3.1045627330   13.7174442347   -3.3214381098
 12        -15.8701839150   -3.1045741887   13.7174347673   -3.3214480859
 13        -15.8700937727   -3.1045809294   13.7174290448   -3.3214533647
 14        -15.8700465571   -3.1045848305   13.7174256662   -3.3214561658
 15        -15.8700217888   -3.1045870593   13.7174237063   -3.3214576563
 16        -15.8700087767   -3.1045883194   13.7174225849   -3.3214584516
 17        -15.8700019307   -3.1045890258   13.7174219502   -3.3214588771
 18        -15.8699983237   -3.1045894190   13.7174215942   -3.3214591053
 19        -15.8699964206   -3.1045896366   13.7174213960   -3.3214592281
 20        -15.8699954151   -3.1045897563   13.7174212864   -3.3214592942
 21        -15.8699948832   -3.1045898219   13.7174212260   -3.3214593299
 22        -15.8699946014   -3.1045898577   13.7174211930   -3.3214593493
 23        -15.8699944520   -3.1045898771   13.7174211750   -3.3214593597
 24        -15.8699943726   -3.1045898877   13.7174211652   -3.3214593654
Atom SCF converged after  24 iterations to a total energy of    -15.86999437

========================== Calculation in vacuum ==============================
= Adjusting the following parameters: 
= is_implicit_solvent: F
= is_include_apolar: F
= write_denskern: T
= write_tightbox_ngwfs: T
= restart read filename prefix: ""
= restart write filename prefix: "vacuum_"
===============================================================================

Determining parallel strategy ...
... using space-filling curve
... NGWF load balancing: max    109;  min    108;  average    108
... Projector load balancing: max     25;  min     21;  average     22
... done
Calculating direct Ion-Ion energy ...
Ion-Ion Energy        :    822720.42876925552264
Basis initialisation ...... NGWF spheres initialised
... Projector spheres initialised
... NGWF tight boxes initialised
... Tight-boxes gathered
... NGWF basis size (local,global):    1038652  62174291
... Nonlocal pseudopotential projector initialisation
... done

========================== Sparse matrix information ===========================
                        Overlap matrix filling:   6.71%
                        Density kernel filling: 100.00%
              NGWF-Proj overlap matrix filling:   1.79%
                    Hamiltonian matrix filling:   7.61%
                  NGWF diagonal matrix filling:   0.05%
                             KS matrix filling: 100.00% 
                           KSKS matrix filling: 100.00% 
================================================================================

Sparse matrix initialisation ... done

Generating smeared ion density ... done
Smeared ion self correction:     -14457.169564
Smeared ion non-self correction: -822672.468925
NGWF initialisation ...... done
============ Calculation of NGWF S^-1 using Hotelling algorithm ================ 
         Iteration  |  Frobenius norm and Maximum abs value    (of I-S*S_n^-1)   
               1       0.78359261E+02     0.98156923E+00
               2       0.76420970E+02     0.96362521E+00
               3       0.73310402E+02     0.92910959E+00
               4       0.68937018E+02     0.86504955E+00
               5       0.63540581E+02     0.75736586E+00
               6       0.57530259E+02     0.69945743E+00
               7       0.51555795E+02     0.66626089E+00
               8       0.46020036E+02     0.63987261E+00
               9       0.39798186E+02     0.59874667E+00
              10       0.31278959E+02     0.52697344E+00
              11       0.20583826E+02     0.41146983E+00
              12       0.10190361E+02     0.26232395E+00
              13       0.32042029E+01     0.11474270E+00
              14       0.47404644E+00     0.27932942E-01
              15       0.20898117E-01     0.21229062E-02
              16       0.92918226E-04     0.13285517E-04
              17       0.29408662E-08     0.53678351E-09
              18       0.84001697E-13     0.44408921E-14
================================================================================
Calculating local pseudopotential in open BC on the fine real space grid ...
... done

MG BCs: +ve charge blocks (gridpoints):     20572 (   16121199).
MG BCs: -ve charge blocks (gridpoints):      8069 (    1085624).
MG BCs:     Elided blocks (gridpoints):    173342 (  173763802).
MG BCs: Computational effort saved:  99.9850%.
MG BCs: Charge after coarse-graining:           -9.0002328.
MG DL_MG: Calling solver with defect correction order = 8
MG DL_MG: Solver finished
MG Hartree energy from (\int phi*rho dr):              1452.351682
MG Hartree energy from (\int eps (grad phi)^2 dr):     1451.730643
MG Discrepancy due to finite box and discretization:     -0.621039 (  -0.04276%)
MG Correction to account for finite box:                  0.467209
MG Remaining discrepancy, due to discretization:         -0.153830 (  -0.01059%)
Up spin density kernel initialisation ... 
======= Optimisation of K by Palser-Manolopoulos canonical purification ======== 
         Iteration  |  Band structure energy |    c_n   
               1       -2571.29877002110743    0.5270037
               2       -2747.02519413344316    0.5173128
               3       -2927.03787925638562    0.5159849
               4       -3077.12352884083793    0.5302433
               5       -3169.07805535640273    0.5674365
               6       -3207.33052954455979    0.6130786
               7       -3220.35886830603522    0.6252962
               8       -3226.06821006842438    0.6256827
               9       -3228.84808309646178    0.6413923
              10       -3230.01724945648766    0.6682071
              11       -3230.48415693238394    0.6938199
              12       -3230.68626812012917    0.7035401
              13       -3230.78931365674180    0.6877184
              14       -3230.85192245817234    0.6513924
              15       -3230.89218150592023    0.6070456
              16       -3230.91529605229880    0.5589341
              17       -3230.92580849127717    0.5118738
              18       -3230.92913868186179    0.4963688
              19       -3230.92981126360201    0.4994271
              20       -3230.93012793400612    0.4999969
              21       -3230.93022695575382    0.5000000
              22       -3230.93023404521773    0.5000001
              23       -3230.93023407774490    0.5000001
Termination criterion satisfied: band energy change below threshold.
Final occupancy bounds: [    0.00000000000002:    1.00000000000000]
Closest occupancy to 0.5:     0.99999999999999
================================================================================
... done

Writing density kernel to file "host_8081.vacuum_dkn" ... done

>>> Optimising kernel for current NGWFs:
   Initial electron number for spin 1:    7192.00000000
     Final electron number for spin 1:    7192.00000000

=================== Penalty functional idempotency correction ==================
 RMS occupancy error at iteration   1:  0.000000 (step -0.5000 Ne1=   7192.0000)
            Final RMS occupancy error   :  0.000000 (Ne1=   7192.0000)
               Final occupancy bounds   : [ -0.0000,  1.0000]
================================================================================

................................................................................
<<<<<<<<<<<<<< LNV (Original version) density kernel optimisation >>>>>>>>>>>>>>
~~~~~~~~~~~~~~~~~~~~~~~~~~~~~~~~~~~~~~~~~~~~~~~~~~~~~~~~~~~~~~~~~~~~~~~~~~~~~~~~
   iter  |      energy (Eh)       | rms gradient |  commutator  |   dE (Eh)
MG BCs: +ve charge blocks (gridpoints):     31300 (   17292146).
MG BCs: -ve charge blocks (gridpoints):      8406 (    1114111).
MG BCs:     Elided blocks (gridpoints):    162609 (  172564368).
MG BCs: Computational effort saved:  99.9792%.
MG BCs: Charge after coarse-graining:           -9.0010080.
MG DL_MG: Calling solver with defect correction order = 8
MG DL_MG: Solver finished
MG Hartree energy from (\int phi*rho dr):              1415.174594
MG Hartree energy from (\int eps (grad phi)^2 dr):     1414.509630
MG Discrepancy due to finite box and discretization:     -0.664964 (  -0.04699%)
MG Correction to account for finite box:                  0.468607
MG Remaining discrepancy, due to discretization:         -0.196357 (  -0.01388%)
      ideal mu1:      -0.728021593481
             Q0:  -11526.111702657072
             G0:    -146.537313839518
   RMS gradient:       0.001860916181
MG BCs: +ve charge blocks (gridpoints):     31324 (   17369830).
MG BCs: -ve charge blocks (gridpoints):      8305 (    1096630).
MG BCs:     Elided blocks (gridpoints):    162584 (  172504165).
MG BCs: Computational effort saved:  99.9792%.
MG BCs: Charge after coarse-graining:           -9.0010294.
MG DL_MG: Calling solver with defect correction order = 8
MG DL_MG: Solver finished
MG Hartree energy from (\int phi*rho dr):              1434.813762
MG Hartree energy from (\int eps (grad phi)^2 dr):     1434.164324
MG Discrepancy due to finite box and discretization:     -0.649438 (  -0.04526%)
MG Correction to account for finite box:                  0.469295
MG Remaining discrepancy, due to discretization:         -0.180143 (  -0.01256%)
     Trial step:       0.500000000000
             Q1:  -11537.466618770384
 Quadratic coef:      61.913740806447
 Linear coef   :     -73.268656919759
           Qmin:  -11547.788215887016
Quadratic minimum step length (  0.295849741775) accepted
    Initial Ne1:    7192.00000000
      Final Ne1:    7192.00000000

=================== Penalty functional idempotency correction ==================
 RMS occupancy error at iteration   1:  0.003508 (step -0.4880 Ne1=   7192.0000)
 RMS occupancy error at iteration   2:  0.000027 (step -0.5000 Ne1=   7192.0000)
            Final RMS occupancy error   :  0.000000 (Ne1=   7192.0000)
               Final occupancy bounds   : [  0.0000,  1.0000]
================================================================================

    1        -1.152611170266E+04     1.8609E-03     1.6832E-03
MG BCs: +ve charge blocks (gridpoints):     31305 (   17340047).
MG BCs: -ve charge blocks (gridpoints):      8363 (    1104069).
MG BCs:     Elided blocks (gridpoints):    162603 (  172526509).
MG BCs: Computational effort saved:  99.9792%.
MG BCs: Charge after coarse-graining:           -9.0010202.
MG DL_MG: Calling solver with defect correction order = 8
MG DL_MG: Solver finished
MG Hartree energy from (\int phi*rho dr):              1418.651400
MG Hartree energy from (\int eps (grad phi)^2 dr):     1417.996613
MG Discrepancy due to finite box and discretization:     -0.654787 (  -0.04616%)
MG Correction to account for finite box:                  0.468907
MG Remaining discrepancy, due to discretization:         -0.185880 (  -0.01310%)
      ideal mu1:      -0.765494904271
             Q0:  -11548.230230379733
             G0:     -11.859836134409
   RMS gradient:       0.000525580609
MG BCs: +ve charge blocks (gridpoints):     31312 (   17356658).
MG BCs: -ve charge blocks (gridpoints):      8338 (    1099447).
MG BCs:     Elided blocks (gridpoints):    162596 (  172514520).
MG BCs: Computational effort saved:  99.9792%.
MG BCs: Charge after coarse-graining:           -9.0010241.
MG DL_MG: Calling solver with defect correction order = 8
MG DL_MG: Solver finished
MG Hartree energy from (\int phi*rho dr):              1423.092148
MG Hartree energy from (\int eps (grad phi)^2 dr):     1422.440712
MG Discrepancy due to finite box and discretization:     -0.651435 (  -0.04578%)
MG Correction to account for finite box:                  0.468894
MG Remaining discrepancy, due to discretization:         -0.182542 (  -0.01283%)
     Trial step:       0.384610024424
             Q1:  -11551.043349022744
 Quadratic coef:       1.748293222314
 Linear coef   :      -4.561411865324
           Qmin:  -11551.205486180586
Quadratic minimum step length (  0.501736409700) accepted
    Initial Ne1:    7191.99991166
      Final Ne1:    7192.00000000

=================== Penalty functional idempotency correction ==================
 RMS occupancy error at iteration   1:  0.001863 (step -0.4929 Ne1=   7192.0000)
 RMS occupancy error at iteration   2:  0.000010 (step -0.5000 Ne1=   7192.0000)
            Final RMS occupancy error   :  0.000000 (Ne1=   7192.0000)
               Final occupancy bounds   : [  0.0000,  1.0000]
================================================================================

    2        -1.154823023038E+04     5.2558E-04     4.7538E-04    -2.2119E+01
MG BCs: +ve charge blocks (gridpoints):     31310 (   17361538).
MG BCs: -ve charge blocks (gridpoints):      8324 (    1098041).
MG BCs:     Elided blocks (gridpoints):    162598 (  172511046).
MG BCs: Computational effort saved:  99.9792%.
MG BCs: Charge after coarse-graining:           -9.0010255.
MG DL_MG: Calling solver with defect correction order = 8
MG DL_MG: Solver finished
MG Hartree energy from (\int phi*rho dr):              1424.487493
MG Hartree energy from (\int eps (grad phi)^2 dr):     1423.836995
MG Discrepancy due to finite box and discretization:     -0.650498 (  -0.04567%)
MG Correction to account for finite box:                  0.468901
MG Remaining discrepancy, due to discretization:         -0.181597 (  -0.01275%)
      ideal mu1:      -0.786107123446
             Q0:  -11551.241878075409
             G0:      -1.887859574389
   RMS gradient:       0.000209996747
MG BCs: +ve charge blocks (gridpoints):     31321 (   17361387).
MG BCs: -ve charge blocks (gridpoints):      8328 (    1098600).
MG BCs:     Elided blocks (gridpoints):    162587 (  172510638).
MG BCs: Computational effort saved:  99.9792%.
MG BCs: Charge after coarse-graining:           -9.0010252.
MG DL_MG: Calling solver with defect correction order = 8
MG DL_MG: Solver finished
MG Hartree energy from (\int phi*rho dr):              1422.992054
MG Hartree energy from (\int eps (grad phi)^2 dr):     1422.341802
MG Discrepancy due to finite box and discretization:     -0.650253 (  -0.04570%)
MG Correction to account for finite box:                  0.468793
MG Remaining discrepancy, due to discretization:         -0.181459 (  -0.01275%)
     Trial step:       0.439286754625
             Q1:  -11551.717193693505
 Quadratic coef:       0.353996087526
 Linear coef   :      -0.829311705622
           Qmin:  -11551.727588178794
Quadratic minimum step length (  0.514561686658) accepted
    Initial Ne1:    7191.99996352
      Final Ne1:    7192.00000000

=================== Penalty functional idempotency correction ==================
 RMS occupancy error at iteration   1:  0.000614 (step -0.4975 Ne1=   7192.0000)
 RMS occupancy error at iteration   2:  0.000001 (step -0.5000 Ne1=   7192.0000)
            Final RMS occupancy error   :  0.000000 (Ne1=   7192.0000)
               Final occupancy bounds   : [  0.0000,  1.0000]
================================================================================

    3        -1.155124187808E+04     2.1000E-04     1.8994E-04    -3.0116E+00
MG BCs: +ve charge blocks (gridpoints):     31319 (   17361317).
MG BCs: -ve charge blocks (gridpoints):      8327 (    1098701).
MG BCs:     Elided blocks (gridpoints):    162589 (  172510607).
MG BCs: Computational effort saved:  99.9792%.
MG BCs: Charge after coarse-graining:           -9.0010252.
MG DL_MG: Calling solver with defect correction order = 8
MG DL_MG: Solver finished
MG Hartree energy from (\int phi*rho dr):              1422.742934
MG Hartree energy from (\int eps (grad phi)^2 dr):     1422.092714
MG Discrepancy due to finite box and discretization:     -0.650220 (  -0.04570%)
MG Correction to account for finite box:                  0.468776
MG Remaining discrepancy, due to discretization:         -0.181445 (  -0.01275%)
      ideal mu1:      -0.787096175920
             Q0:  -11551.732361208647
             G0:      -0.470584070090
   RMS gradient:       0.000104870155
MG BCs: +ve charge blocks (gridpoints):     31322 (   17362154).
MG BCs: -ve charge blocks (gridpoints):      8331 (    1098539).
MG BCs:     Elided blocks (gridpoints):    162586 (  172509932).
MG BCs: Computational effort saved:  99.9792%.
MG BCs: Charge after coarse-graining:           -9.0010254.
MG DL_MG: Calling solver with defect correction order = 8
MG DL_MG: Solver finished
MG Hartree energy from (\int phi*rho dr):              1423.753317
MG Hartree energy from (\int eps (grad phi)^2 dr):     1423.103046
MG Discrepancy due to finite box and discretization:     -0.650271 (  -0.04567%)
MG Correction to account for finite box:                  0.468748
MG Remaining discrepancy, due to discretization:         -0.181523 (  -0.01275%)
     Trial step:       0.475436781693
             Q1:  -11551.837538609398
 Quadratic coef:       0.118555575049
 Linear coef   :      -0.223732975799
           Qmin:  -11551.837916017941
Quadratic minimum step length (  0.448611910189) accepted
    Initial Ne1:    7191.99999193
      Final Ne1:    7192.00000000

=================== Penalty functional idempotency correction ==================
 RMS occupancy error at iteration   1:  0.000205 (step -0.4991 Ne1=   7192.0000)
 RMS occupancy error at iteration   2:  0.000000 (step -0.5000 Ne1=   7192.0000)
            Final RMS occupancy error   :  0.000000 (Ne1=   7192.0000)
               Final occupancy bounds   : [  0.0000,  1.0000]
================================================================================

    4        -1.155173236121E+04     1.0487E-04     9.4853E-05    -4.9048E-01
MG BCs: +ve charge blocks (gridpoints):     31321 (   17362090).
MG BCs: -ve charge blocks (gridpoints):      8331 (    1098557).
MG BCs:     Elided blocks (gridpoints):    162587 (  172509978).
MG BCs: Computational effort saved:  99.9792%.
MG BCs: Charge after coarse-graining:           -9.0010254.
MG DL_MG: Calling solver with defect correction order = 8
MG DL_MG: Solver finished
MG Hartree energy from (\int phi*rho dr):              1423.696204
MG Hartree energy from (\int eps (grad phi)^2 dr):     1423.045937
MG Discrepancy due to finite box and discretization:     -0.650267 (  -0.04567%)
MG Correction to account for finite box:                  0.468749
MG Remaining discrepancy, due to discretization:         -0.181518 (  -0.01275%)
      ideal mu1:      -0.787401589839
             Q0:  -11551.838441540138
             G0:      -0.108881801717
   RMS gradient:       0.000050609715
MG BCs: +ve charge blocks (gridpoints):     31324 (   17362367).
MG BCs: -ve charge blocks (gridpoints):      8331 (    1098375).
MG BCs:     Elided blocks (gridpoints):    162584 (  172509883).
MG BCs: Computational effort saved:  99.9792%.
MG BCs: Charge after coarse-graining:           -9.0010253.
MG DL_MG: Calling solver with defect correction order = 8
MG DL_MG: Solver finished
MG Hartree energy from (\int phi*rho dr):              1424.095225
MG Hartree energy from (\int eps (grad phi)^2 dr):     1423.444828
MG Discrepancy due to finite box and discretization:     -0.650397 (  -0.04567%)
MG Correction to account for finite box:                  0.468729
MG Remaining discrepancy, due to discretization:         -0.181667 (  -0.01276%)
     Trial step:       0.461829625305
             Q1:  -11551.865813876386
 Quadratic coef:       0.022912505441
 Linear coef   :      -0.050284841689
           Qmin:  -11551.866030898602
Quadratic minimum step length (  0.506776302915) accepted
    Initial Ne1:    7191.99999787
      Final Ne1:    7192.00000000

=================== Penalty functional idempotency correction ==================
 RMS occupancy error at iteration   1:  0.000073 (step -0.4997 Ne1=   7192.0000)
            Final RMS occupancy error   :  0.000000 (Ne1=   7192.0000)
               Final occupancy bounds   : [ -0.0000,  1.0000]
================================================================================

    5        -1.155183844154E+04     5.0610E-05     4.5775E-05    -1.0608E-01
MG BCs: +ve charge blocks (gridpoints):     31324 (   17362382).
MG BCs: -ve charge blocks (gridpoints):      8331 (    1098356).
MG BCs:     Elided blocks (gridpoints):    162584 (  172509887).
MG BCs: Computational effort saved:  99.9792%.
MG BCs: Charge after coarse-graining:           -9.0010253.
MG DL_MG: Calling solver with defect correction order = 8
MG DL_MG: Solver finished
MG Hartree energy from (\int phi*rho dr):              1424.134046
MG Hartree energy from (\int eps (grad phi)^2 dr):     1423.483636
MG Discrepancy due to finite box and discretization:     -0.650409 (  -0.04567%)
MG Correction to account for finite box:                  0.468727
MG Remaining discrepancy, due to discretization:         -0.181682 (  -0.01276%)
      ideal mu1:      -0.787290230753
             Q0:  -11551.866092459997
             G0:      -0.032607661955
   RMS gradient:       0.000027719744
MG BCs: +ve charge blocks (gridpoints):     31323 (   17361951).
MG BCs: -ve charge blocks (gridpoints):      8331 (    1098599).
MG BCs:     Elided blocks (gridpoints):    162585 (  172510075).
MG BCs: Computational effort saved:  99.9792%.
MG BCs: Charge after coarse-graining:           -9.0010252.
MG DL_MG: Calling solver with defect correction order = 8
MG DL_MG: Solver finished
MG Hartree energy from (\int phi*rho dr):              1423.475241
MG Hartree energy from (\int eps (grad phi)^2 dr):     1422.824818
MG Discrepancy due to finite box and discretization:     -0.650422 (  -0.04569%)
MG Correction to account for finite box:                  0.468744
MG Remaining discrepancy, due to discretization:         -0.181678 (  -0.01276%)
     Trial step:       0.483781262647
             Q1:  -11551.876413017744
 Quadratic coef:       0.005454418126
 Linear coef   :      -0.015774975872
           Qmin:  -11551.877498345008
Quadratic minimum step length (  0.699583124161) accepted
    Initial Ne1:    7192.00039115
      Final Ne1:    7192.00000000

=================== Penalty functional idempotency correction ==================
 RMS occupancy error at iteration   1:  0.000044 (step -0.4996 Ne1=   7192.0000)
            Final RMS occupancy error   :  0.000000 (Ne1=   7192.0000)
               Final occupancy bounds   : [ -0.0000,  1.0000]
================================================================================

    6        -1.155186609246E+04     2.7720E-05     2.5072E-05    -2.7651E-02
MG BCs: +ve charge blocks (gridpoints):     31323 (   17361760).
MG BCs: -ve charge blocks (gridpoints):      8332 (    1098717).
MG BCs:     Elided blocks (gridpoints):    162585 (  172510148).
MG BCs: Computational effort saved:  99.9792%.
MG BCs: Charge after coarse-graining:           -9.0010251.
MG DL_MG: Calling solver with defect correction order = 8
MG DL_MG: Solver finished
MG Hartree energy from (\int phi*rho dr):              1423.180601
MG Hartree energy from (\int eps (grad phi)^2 dr):     1422.530172
MG Discrepancy due to finite box and discretization:     -0.650428 (  -0.04570%)
MG Correction to account for finite box:                  0.468752
MG Remaining discrepancy, due to discretization:         -0.181676 (  -0.01277%)
      ideal mu1:      -0.787002102255
             Q0:  -11551.877508436562
             G0:      -0.017464743864
   RMS gradient:       0.000020315794
MG BCs: +ve charge blocks (gridpoints):     31323 (   17362308).
MG BCs: -ve charge blocks (gridpoints):      8333 (    1098425).
MG BCs:     Elided blocks (gridpoints):    162585 (  172509892).
MG BCs: Computational effort saved:  99.9792%.
MG BCs: Charge after coarse-graining:           -9.0010252.
MG DL_MG: Calling solver with defect correction order = 8
MG DL_MG: Solver finished
MG Hartree energy from (\int phi*rho dr):              1423.831413
MG Hartree energy from (\int eps (grad phi)^2 dr):     1423.181018
MG Discrepancy due to finite box and discretization:     -0.650394 (  -0.04568%)
MG Correction to account for finite box:                  0.468741
MG Remaining discrepancy, due to discretization:         -0.181653 (  -0.01276%)
     Trial step:       0.581760437924
             Q1:  -11551.882006861153
 Quadratic coef:       0.005661872448
 Linear coef   :      -0.010160297038
           Qmin:  -11551.882066629847
Quadratic minimum step length (  0.521987991456) accepted
    Initial Ne1:    7192.00031628
      Final Ne1:    7192.00000000

=================== Penalty functional idempotency correction ==================
 RMS occupancy error at iteration   1:  0.000003 (step -0.5000 Ne1=   7192.0000)
            Final RMS occupancy error   :  0.000000 (Ne1=   7192.0000)
               Final occupancy bounds   : [  0.0000,  1.0000]
================================================================================

    7        -1.155187750844E+04     2.0316E-05     1.8375E-05    -1.1416E-02
MG BCs: +ve charge blocks (gridpoints):     31323 (   17362255).
MG BCs: -ve charge blocks (gridpoints):      8333 (    1098454).
MG BCs:     Elided blocks (gridpoints):    162585 (  172509916).
MG BCs: Computational effort saved:  99.9792%.
MG BCs: Charge after coarse-graining:           -9.0010252.
MG DL_MG: Calling solver with defect correction order = 8
MG DL_MG: Solver finished
MG Hartree energy from (\int phi*rho dr):              1423.764440
MG Hartree energy from (\int eps (grad phi)^2 dr):     1423.114043
MG Discrepancy due to finite box and discretization:     -0.650398 (  -0.04568%)
MG Correction to account for finite box:                  0.468742
MG Remaining discrepancy, due to discretization:         -0.181655 (  -0.01276%)
      ideal mu1:      -0.787348734416
             Q0:  -11551.882066892227
             G0:      -0.010284574300
   RMS gradient:       0.000015591067
MG BCs: +ve charge blocks (gridpoints):     31323 (   17362324).
MG BCs: -ve charge blocks (gridpoints):      8333 (    1098451).
MG BCs:     Elided blocks (gridpoints):    162585 (  172509850).
MG BCs: Computational effort saved:  99.9792%.
MG BCs: Charge after coarse-graining:           -9.0010253.
MG DL_MG: Calling solver with defect correction order = 8
MG DL_MG: Solver finished
MG Hartree energy from (\int phi*rho dr):              1423.831926
MG Hartree energy from (\int eps (grad phi)^2 dr):     1423.181560
MG Discrepancy due to finite box and discretization:     -0.650367 (  -0.04568%)
MG Correction to account for finite box:                  0.468745
MG Remaining discrepancy, due to discretization:         -0.181622 (  -0.01276%)
     Trial step:       0.551064390521
             Q1:  -11551.886349926470
 Quadratic coef:       0.001384428426
 Linear coef   :      -0.005667462668
           Qmin:  -11551.887867143887
Quadratic minimum step length (  1.127951724625) accepted
    Initial Ne1:    7192.00040007
      Final Ne1:    7192.00000000

=================== Penalty functional idempotency correction ==================
 RMS occupancy error at iteration   1:  0.000044 (step -0.4975 Ne1=   7192.0000)
            Final RMS occupancy error   :  0.000000 (Ne1=   7192.0000)
               Final occupancy bounds   : [ -0.0000,  1.0000]
================================================================================

    8        -1.155188206689E+04     1.5591E-05     1.4102E-05    -4.5585E-03
MG BCs: +ve charge blocks (gridpoints):     31324 (   17362410).
MG BCs: -ve charge blocks (gridpoints):      8331 (    1098410).
MG BCs:     Elided blocks (gridpoints):    162584 (  172509805).
MG BCs: Computational effort saved:  99.9792%.
MG BCs: Charge after coarse-graining:           -9.0010253.
MG DL_MG: Calling solver with defect correction order = 8
MG DL_MG: Solver finished
MG Hartree energy from (\int phi*rho dr):              1423.900028
MG Hartree energy from (\int eps (grad phi)^2 dr):     1423.249694
MG Discrepancy due to finite box and discretization:     -0.650334 (  -0.04567%)
MG Correction to account for finite box:                  0.468748
MG Remaining discrepancy, due to discretization:         -0.181586 (  -0.01275%)
      ideal mu1:      -0.787427698750
             Q0:  -11551.887833780725
             G0:      -0.015873912822
   RMS gradient:       0.000019472476
MG BCs: +ve charge blocks (gridpoints):     31324 (   17362212).
MG BCs: -ve charge blocks (gridpoints):      8334 (    1098573).
MG BCs:     Elided blocks (gridpoints):    162584 (  172509840).
MG BCs: Computational effort saved:  99.9792%.
MG BCs: Charge after coarse-graining:           -9.0010253.
MG DL_MG: Calling solver with defect correction order = 8
MG DL_MG: Solver finished
MG Hartree energy from (\int phi*rho dr):              1423.526550
MG Hartree energy from (\int eps (grad phi)^2 dr):     1422.876254
MG Discrepancy due to finite box and discretization:     -0.650297 (  -0.04568%)
MG Correction to account for finite box:                  0.468759
MG Remaining discrepancy, due to discretization:         -0.181538 (  -0.01275%)
     Trial step:       0.788399663665
             Q1:  -11551.895591257606
 Quadratic coef:       0.004757510649
 Linear coef   :      -0.012514987530
           Qmin:  -11551.896064183369
Quadratic minimum step length (  1.036972135981) accepted
    Initial Ne1:    7192.00184834
      Final Ne1:    7192.00000000

=================== Penalty functional idempotency correction ==================
 RMS occupancy error at iteration   1:  0.000254 (step -0.4853 Ne1=   7192.0000)
 RMS occupancy error at iteration   2:  0.000003 (step -0.5000 Ne1=   7192.0000)
            Final RMS occupancy error   :  0.000000 (Ne1=   7192.0000)
               Final occupancy bounds   : [  0.0000,  1.0000]
================================================================================

    9        -1.155188783378E+04     1.9472E-05     1.7612E-05    -5.7669E-03
MG BCs: +ve charge blocks (gridpoints):     31323 (   17362154).
MG BCs: -ve charge blocks (gridpoints):      8334 (    1098621).
MG BCs:     Elided blocks (gridpoints):    162585 (  172509850).
MG BCs: Computational effort saved:  99.9792%.
MG BCs: Charge after coarse-graining:           -9.0010253.
MG DL_MG: Calling solver with defect correction order = 8
MG DL_MG: Solver finished
MG Hartree energy from (\int phi*rho dr):              1423.405109
MG Hartree energy from (\int eps (grad phi)^2 dr):     1422.754825
MG Discrepancy due to finite box and discretization:     -0.650285 (  -0.04569%)
MG Correction to account for finite box:                  0.468763
MG Remaining discrepancy, due to discretization:         -0.181522 (  -0.01275%)
      ideal mu1:      -0.786838428954
   10        -1.155189592406E+04     2.1673E-05     1.9603E-05    -8.0903E-03
Finished density kernel iterations (  10)

Writing density kernel to file "host_8081.vacuum_dkn" ... done


>>> Density kernel optimised for the current NGWF basis:
     ~~~~~~~~~~~~~~~~~~~~~~~~~~~~~~~~~~~~~~~~~~~~~~~~~~~~~~~~~~~
     Total energy                =  -1.15518959240648E+04  Eh
     Estimated bandgap           =  -1.9846E-01  Eh
     RMS occupancy error         =   5.8520E-10
     [H,K] commutator            =   1.9603E-05
     Occupancy bounds            = [  0.000:  1.000]
     ~~~~~~~~~~~~~~~~~~~~~~~~~~~~~~~~~~~~~~~~~~~~~~~~~~~~~~~~~~~




################################################################################
########################### NGWF CG iteration  001 #############################
################################################################################
****** Reciprocal space K.E. preconditioning with k_zero =  3.5000 a0^-1 *******

>>> Checking for convergence of NGWFs:   NOT CONVERGED
  ========================================================================
         NGWF RMS gradient =  1.5974E-03 >  2.0000E-06  | above tolerance
  ========================================================================

>>> Improving NGWFs using line search:
============ Calculation of NGWF S^-1 using Hotelling algorithm ================ 
         Iteration  |  Frobenius norm and Maximum abs value    (of I-S*S_n^-1)   
               1       0.19818190E+00     0.53905411E-02
               2       0.90409558E-03     0.44579580E-04
               3       0.31843929E-07     0.32181091E-08
               4       0.12477177E-12     0.49960036E-14
================================================================================
MG BCs: +ve charge blocks (gridpoints):     30792 (   17306465).
MG BCs: -ve charge blocks (gridpoints):      8335 (    1098349).
MG BCs:     Elided blocks (gridpoints):    163116 (  172565811).
MG BCs: Computational effort saved:  99.9795%.
MG BCs: Charge after coarse-graining:           -9.0010220.
MG DL_MG: Calling solver with defect correction order = 8
MG DL_MG: Solver finished
MG Hartree energy from (\int phi*rho dr):              1391.376742
MG Hartree energy from (\int eps (grad phi)^2 dr):     1390.727190
MG Discrepancy due to finite box and discretization:     -0.649552 (  -0.04668%)
MG Correction to account for finite box:                  0.468747
MG Remaining discrepancy, due to discretization:         -0.180804 (  -0.01299%)
============ Calculation of NGWF S^-1 using Hotelling algorithm ================ 
         Iteration  |  Frobenius norm and Maximum abs value    (of I-S*S_n^-1)   
               1       0.18714317E+01     0.42804343E-01
               2       0.72700331E-01     0.25947987E-02
               3       0.14642694E-03     0.11148436E-04
               4       0.11165017E-08     0.21801982E-09
               5       0.10858741E-12     0.48849813E-14
================================================================================
------------------------------- NGWF line search -------------------------------
RMS gradient                =       0.00159740822569
Trial step length           =               0.122474
Gradient along search dir.  =       -278.67109849741
Functional at step 0        =  -11551.89592406479642
Functional at step 1        =  -11583.42355748475529
Functional predicted        =  -11663.79589855881568
Selected quadratic step     =               0.803097
--------------------------- NGWF line search finished --------------------------
                                               
Writing NGWFs to file "host_8081.vacuum_tightbox_ngwfs"....  done

>>> Optimising kernel for current NGWFs:
   Initial electron number for spin 1:    7227.44795982
     Final electron number for spin 1:    7192.00000000

=================== Penalty functional idempotency correction ==================
 RMS occupancy error at iteration   1:  0.004281 (step -0.4861 Ne1=   7192.0000)
 RMS occupancy error at iteration   2:  0.000070 (step -0.5003 Ne1=   7192.0000)
            Final RMS occupancy error   :  0.000000 (Ne1=   7192.0000)
               Final occupancy bounds   : [  0.0000,  1.0000]
================================================================================

................................................................................
<<<<<<<<<<<<<< LNV (Original version) density kernel optimisation >>>>>>>>>>>>>>
~~~~~~~~~~~~~~~~~~~~~~~~~~~~~~~~~~~~~~~~~~~~~~~~~~~~~~~~~~~~~~~~~~~~~~~~~~~~~~~~
   iter  |      energy (Eh)       | rms gradient |  commutator  |   dE (Eh)
MG BCs: +ve charge blocks (gridpoints):     24973 (   17029648).
MG BCs: -ve charge blocks (gridpoints):      8490 (    1080727).
MG BCs:     Elided blocks (gridpoints):    168941 (  172860250).
MG BCs: Computational effort saved:  99.9825%.
MG BCs: Charge after coarse-graining:           -9.0006957.
MG DL_MG: Calling solver with defect correction order = 8
MG DL_MG: Solver finished
MG Hartree energy from (\int phi*rho dr):              1236.258653
MG Hartree energy from (\int eps (grad phi)^2 dr):     1235.608742
MG Discrepancy due to finite box and discretization:     -0.649911 (  -0.05257%)
MG Correction to account for finite box:                  0.468687
MG Remaining discrepancy, due to discretization:         -0.181224 (  -0.01466%)
      ideal mu1:      -0.725406970966
             Q0:  -11662.833458945970
             G0:      -9.841411464055
   RMS gradient:       0.000482260169
MG BCs: +ve charge blocks (gridpoints):     25065 (   17060943).
MG BCs: -ve charge blocks (gridpoints):      8457 (    1072046).
MG BCs:     Elided blocks (gridpoints):    168849 (  172837636).
MG BCs: Computational effort saved:  99.9824%.
MG BCs: Charge after coarse-graining:           -9.0006879.
MG DL_MG: Calling solver with defect correction order = 8
MG DL_MG: Solver finished
MG Hartree energy from (\int phi*rho dr):              1263.041540
MG Hartree energy from (\int eps (grad phi)^2 dr):     1262.385107
MG Discrepancy due to finite box and discretization:     -0.656433 (  -0.05197%)
MG Correction to account for finite box:                  0.468016
MG Remaining discrepancy, due to discretization:         -0.188418 (  -0.01492%)
     Trial step:       0.904183876895
             Q1:  -11659.678281069500
 Quadratic coef:      12.053623448161
 Linear coef   :      -8.898445571692
           Qmin:  -11664.475752110613
Quadratic minimum step length (  0.333751549895) accepted
    Initial Ne1:    7191.99957074
      Final Ne1:    7192.00000000

=================== Penalty functional idempotency correction ==================
 RMS occupancy error at iteration   1:  0.000363 (step -0.4985 Ne1=   7192.0000)
 RMS occupancy error at iteration   2:  0.000000 (step -0.5000 Ne1=   7192.0000)
            Final RMS occupancy error   :  0.000000 (Ne1=   7192.0000)
               Final occupancy bounds   : [  0.0000,  1.0000]
================================================================================

    1        -1.166283345895E+04     4.8226E-04     4.3619E-04
MG BCs: +ve charge blocks (gridpoints):     24998 (   17041268).
MG BCs: -ve charge blocks (gridpoints):      8479 (    1077689).
MG BCs:     Elided blocks (gridpoints):    168916 (  172851668).
MG BCs: Computational effort saved:  99.9825%.
MG BCs: Charge after coarse-graining:           -9.0006927.
MG DL_MG: Calling solver with defect correction order = 8
MG DL_MG: Solver finished
MG Hartree energy from (\int phi*rho dr):              1244.759839
MG Hartree energy from (\int eps (grad phi)^2 dr):     1244.107660
MG Discrepancy due to finite box and discretization:     -0.652179 (  -0.05239%)
MG Correction to account for finite box:                  0.468411
MG Remaining discrepancy, due to discretization:         -0.183768 (  -0.01476%)
      ideal mu1:      -0.733620837176
             Q0:  -11664.435108036501
             G0:      -0.998109749621
   RMS gradient:       0.000154954384
MG BCs: +ve charge blocks (gridpoints):     25005 (   17042541).
MG BCs: -ve charge blocks (gridpoints):      8480 (    1078010).
MG BCs:     Elided blocks (gridpoints):    168909 (  172850074).
MG BCs: Computational effort saved:  99.9825%.
MG BCs: Charge after coarse-graining:           -9.0006922.
MG DL_MG: Calling solver with defect correction order = 8
MG DL_MG: Solver finished
MG Hartree energy from (\int phi*rho dr):              1246.641564
MG Hartree energy from (\int eps (grad phi)^2 dr):     1245.989105
MG Discrepancy due to finite box and discretization:     -0.652459 (  -0.05234%)
MG Correction to account for finite box:                  0.468390
MG Remaining discrepancy, due to discretization:         -0.184069 (  -0.01477%)
     Trial step:       0.549338484274
             Q1:  -11664.627974002040
 Quadratic coef:       0.355434131458
 Linear coef   :      -0.548300096995
           Qmin:  -11664.646562824997
Quadratic minimum step length (  0.423710495916) accepted
    Initial Ne1:    7191.99994373
      Final Ne1:    7192.00000000

=================== Penalty functional idempotency correction ==================
 RMS occupancy error at iteration   1:  0.000144 (step -0.4994 Ne1=   7192.0000)
            Final RMS occupancy error   :  0.000000 (Ne1=   7192.0000)
               Final occupancy bounds   : [ -0.0000,  1.0000]
================================================================================

    2        -1.166443510804E+04     1.5495E-04     1.4015E-04    -1.6016E+00
MG BCs: +ve charge blocks (gridpoints):     25002 (   17042263).
MG BCs: -ve charge blocks (gridpoints):      8480 (    1077902).
MG BCs:     Elided blocks (gridpoints):    168912 (  172850460).
MG BCs: Computational effort saved:  99.9825%.
MG BCs: Charge after coarse-graining:           -9.0006923.
MG DL_MG: Calling solver with defect correction order = 8
MG DL_MG: Solver finished
MG Hartree energy from (\int phi*rho dr):              1246.210041
MG Hartree energy from (\int eps (grad phi)^2 dr):     1245.557649
MG Discrepancy due to finite box and discretization:     -0.652392 (  -0.05235%)
MG Correction to account for finite box:                  0.468394
MG Remaining discrepancy, due to discretization:         -0.183997 (  -0.01476%)
      ideal mu1:      -0.734909309195
             Q0:  -11664.647080261959
             G0:      -0.154979108882
   RMS gradient:       0.000060449326
MG BCs: +ve charge blocks (gridpoints):     25002 (   17041271).
MG BCs: -ve charge blocks (gridpoints):      8482 (    1078405).
MG BCs:     Elided blocks (gridpoints):    168912 (  172850949).
MG BCs: Computational effort saved:  99.9825%.
MG BCs: Charge after coarse-graining:           -9.0006924.
MG DL_MG: Calling solver with defect correction order = 8
MG DL_MG: Solver finished
MG Hartree energy from (\int phi*rho dr):              1245.558624
MG Hartree energy from (\int eps (grad phi)^2 dr):     1244.906289
MG Discrepancy due to finite box and discretization:     -0.652334 (  -0.05237%)
MG Correction to account for finite box:                  0.468375
MG Remaining discrepancy, due to discretization:         -0.183959 (  -0.01477%)
     Trial step:       0.482452569272
             Q1:  -11664.695040645776
 Quadratic coef:       0.026809685447
 Linear coef   :      -0.074770069264
           Qmin:  -11664.699212198277
Quadratic minimum step length (  0.672760821686) accepted
    Initial Ne1:    7192.00064983
      Final Ne1:    7192.00000000

=================== Penalty functional idempotency correction ==================
 RMS occupancy error at iteration   1:  0.000067 (step -0.4998 Ne1=   7192.0000)
            Final RMS occupancy error   :  0.000000 (Ne1=   7192.0000)
               Final occupancy bounds   : [ -0.0000,  1.0000]
================================================================================

    3        -1.166464708026E+04     6.0449E-05     5.4675E-05    -2.1197E-01
MG BCs: +ve charge blocks (gridpoints):     25001 (   17040834).
MG BCs: -ve charge blocks (gridpoints):      8483 (    1078689).
MG BCs:     Elided blocks (gridpoints):    168913 (  172851102).
MG BCs: Computational effort saved:  99.9825%.
MG BCs: Charge after coarse-graining:           -9.0006924.
MG DL_MG: Calling solver with defect correction order = 8
MG DL_MG: Solver finished
MG Hartree energy from (\int phi*rho dr):              1245.301572
MG Hartree energy from (\int eps (grad phi)^2 dr):     1244.649260
MG Discrepancy due to finite box and discretization:     -0.652313 (  -0.05238%)
MG Correction to account for finite box:                  0.468368
MG Remaining discrepancy, due to discretization:         -0.183945 (  -0.01477%)
      ideal mu1:      -0.733821100912
             Q0:  -11664.699312977260
             G0:      -0.035803266542
   RMS gradient:       0.000029043665
MG BCs: +ve charge blocks (gridpoints):     24999 (   17040956).
MG BCs: -ve charge blocks (gridpoints):      8482 (    1078602).
MG BCs:     Elided blocks (gridpoints):    168915 (  172851067).
MG BCs: Computational effort saved:  99.9825%.
MG BCs: Charge after coarse-graining:           -9.0006924.
MG DL_MG: Calling solver with defect correction order = 8
MG DL_MG: Solver finished
MG Hartree energy from (\int phi*rho dr):              1245.441067
MG Hartree energy from (\int eps (grad phi)^2 dr):     1244.788861
MG Discrepancy due to finite box and discretization:     -0.652205 (  -0.05237%)
MG Correction to account for finite box:                  0.468369
MG Remaining discrepancy, due to discretization:         -0.183836 (  -0.01476%)
     Trial step:       0.569715005005
             Q1:  -11664.708323782892
 Quadratic coef:       0.011386852546
 Linear coef   :      -0.020397658177
           Qmin:  -11664.708447732835
Quadratic minimum step length (  0.510274980891) accepted
    Initial Ne1:    7192.00024422
      Final Ne1:    7192.00000000

=================== Penalty functional idempotency correction ==================
 RMS occupancy error at iteration   1:  0.000018 (step -0.4999 Ne1=   7192.0000)
            Final RMS occupancy error   :  0.000000 (Ne1=   7192.0000)
               Final occupancy bounds   : [ -0.0000,  1.0000]
================================================================================

    4        -1.166469931298E+04     2.9044E-05     2.6269E-05    -5.2233E-02
MG BCs: +ve charge blocks (gridpoints):     24999 (   17040932).
MG BCs: -ve charge blocks (gridpoints):      8482 (    1078612).
MG BCs:     Elided blocks (gridpoints):    168915 (  172851081).
MG BCs: Computational effort saved:  99.9825%.
MG BCs: Charge after coarse-graining:           -9.0006924.
MG DL_MG: Calling solver with defect correction order = 8
MG DL_MG: Solver finished
MG Hartree energy from (\int phi*rho dr):              1245.426341
MG Hartree energy from (\int eps (grad phi)^2 dr):     1244.774124
MG Discrepancy due to finite box and discretization:     -0.652216 (  -0.05237%)
MG Correction to account for finite box:                  0.468369
MG Remaining discrepancy, due to discretization:         -0.183847 (  -0.01476%)
      ideal mu1:      -0.733905844054
             Q0:  -11664.708452758961
             G0:      -0.011872085502
   RMS gradient:       0.000016746264
MG BCs: +ve charge blocks (gridpoints):     24999 (   17041510).
MG BCs: -ve charge blocks (gridpoints):      8481 (    1078386).
MG BCs:     Elided blocks (gridpoints):    168915 (  172850729).
MG BCs: Computational effort saved:  99.9825%.
MG BCs: Charge after coarse-graining:           -9.0006923.
MG DL_MG: Calling solver with defect correction order = 8
MG DL_MG: Solver finished
MG Hartree energy from (\int phi*rho dr):              1245.843139
MG Hartree energy from (\int eps (grad phi)^2 dr):     1245.190960
MG Discrepancy due to finite box and discretization:     -0.652179 (  -0.05235%)
MG Correction to account for finite box:                  0.468366
MG Remaining discrepancy, due to discretization:         -0.183813 (  -0.01475%)
     Trial step:       0.539176514040
             Q1:  -11664.711714337580
 Quadratic coef:       0.003139571058
 Linear coef   :      -0.006401149676
           Qmin:  -11664.711715522921
Quadratic minimum step length (  0.549653042511) accepted
    Initial Ne1:    7192.00009982
      Final Ne1:    7192.00000000

=================== Penalty functional idempotency correction ==================
 RMS occupancy error at iteration   1:  0.000009 (step -0.5000 Ne1=   7192.0000)
            Final RMS occupancy error   :  0.000000 (Ne1=   7192.0000)
               Final occupancy bounds   : [ -0.0000,  1.0000]
================================================================================

    5        -1.166470845276E+04     1.6746E-05     1.5147E-05    -9.1398E-03
MG BCs: +ve charge blocks (gridpoints):     24999 (   17041523).
MG BCs: -ve charge blocks (gridpoints):      8481 (    1078381).
MG BCs:     Elided blocks (gridpoints):    168915 (  172850721).
MG BCs: Computational effort saved:  99.9825%.
MG BCs: Charge after coarse-graining:           -9.0006923.
MG DL_MG: Calling solver with defect correction order = 8
MG DL_MG: Solver finished
MG Hartree energy from (\int phi*rho dr):              1245.851247
MG Hartree energy from (\int eps (grad phi)^2 dr):     1245.199069
MG Discrepancy due to finite box and discretization:     -0.652178 (  -0.05235%)
MG Correction to account for finite box:                  0.468366
MG Remaining discrepancy, due to discretization:         -0.183812 (  -0.01475%)
      ideal mu1:      -0.734281650461
             Q0:  -11664.711716520716
             G0:      -0.003504210955
   RMS gradient:       0.000009098348
MG BCs: +ve charge blocks (gridpoints):     24999 (   17041398).
MG BCs: -ve charge blocks (gridpoints):      8481 (    1078449).
MG BCs:     Elided blocks (gridpoints):    168915 (  172850778).
MG BCs: Computational effort saved:  99.9825%.
MG BCs: Charge after coarse-graining:           -9.0006923.
MG DL_MG: Calling solver with defect correction order = 8
MG DL_MG: Solver finished
MG Hartree energy from (\int phi*rho dr):              1245.767804
MG Hartree energy from (\int eps (grad phi)^2 dr):     1245.115634
MG Discrepancy due to finite box and discretization:     -0.652170 (  -0.05235%)
MG Correction to account for finite box:                  0.468361
MG Remaining discrepancy, due to discretization:         -0.183809 (  -0.01475%)
     Trial step:       0.544389576859
             Q1:  -11664.712882579770
 Quadratic coef:       0.000741596865
 Linear coef   :      -0.001907655919
           Qmin:  -11664.712943316325
Quadratic minimum step length (  0.700183649415) accepted
    Initial Ne1:    7192.00004372
      Final Ne1:    7192.00000000

=================== Penalty functional idempotency correction ==================
 RMS occupancy error at iteration   1:  0.000005 (step -0.5000 Ne1=   7192.0000)
            Final RMS occupancy error   :  0.000000 (Ne1=   7192.0000)
               Final occupancy bounds   : [ -0.0000,  1.0000]
================================================================================

    6        -1.166471171652E+04     9.0983E-06     8.2292E-06    -3.2638E-03
MG BCs: +ve charge blocks (gridpoints):     24999 (   17041364).
MG BCs: -ve charge blocks (gridpoints):      8481 (    1078462).
MG BCs:     Elided blocks (gridpoints):    168915 (  172850799).
MG BCs: Computational effort saved:  99.9825%.
MG BCs: Charge after coarse-graining:           -9.0006923.
MG DL_MG: Calling solver with defect correction order = 8
MG DL_MG: Solver finished
MG Hartree energy from (\int phi*rho dr):              1245.743909
MG Hartree energy from (\int eps (grad phi)^2 dr):     1245.091741
MG Discrepancy due to finite box and discretization:     -0.652167 (  -0.05235%)
MG Correction to account for finite box:                  0.468359
MG Remaining discrepancy, due to discretization:         -0.183808 (  -0.01475%)
      ideal mu1:      -0.734188875235
             Q0:  -11664.712943434133
             G0:      -0.001735444616
   RMS gradient:       0.000006404100
MG BCs: +ve charge blocks (gridpoints):     24999 (   17041254).
MG BCs: -ve charge blocks (gridpoints):      8481 (    1078502).
MG BCs:     Elided blocks (gridpoints):    168915 (  172850869).
MG BCs: Computational effort saved:  99.9825%.
MG BCs: Charge after coarse-graining:           -9.0006923.
MG DL_MG: Calling solver with defect correction order = 8
MG DL_MG: Solver finished
MG Hartree energy from (\int phi*rho dr):              1245.694820
MG Hartree energy from (\int eps (grad phi)^2 dr):     1245.042638
MG Discrepancy due to finite box and discretization:     -0.652182 (  -0.05235%)
MG Correction to account for finite box:                  0.468366
MG Remaining discrepancy, due to discretization:         -0.183816 (  -0.01476%)
     Trial step:       0.617391837190
             Q1:  -11664.713317856309
 Quadratic coef:       0.000697027164
 Linear coef   :      -0.001071449340
           Qmin:  -11664.713355184114
Quadratic minimum step length (  0.474518146743) accepted
    Initial Ne1:    7192.00000448
      Final Ne1:    7192.00000000

=================== Penalty functional idempotency correction ==================
 RMS occupancy error at iteration   1:  0.000000 (step -0.5000 Ne1=   7192.0000)
            Final RMS occupancy error   :  0.000000 (Ne1=   7192.0000)
               Final occupancy bounds   : [  0.0000,  1.0000]
================================================================================

    7        -1.166471294343E+04     6.4041E-06     5.7924E-06    -1.2269E-03
MG BCs: +ve charge blocks (gridpoints):     24999 (   17041279).
MG BCs: -ve charge blocks (gridpoints):      8481 (    1078491).
MG BCs:     Elided blocks (gridpoints):    168915 (  172850855).
MG BCs: Computational effort saved:  99.9825%.
MG BCs: Charge after coarse-graining:           -9.0006923.
MG DL_MG: Calling solver with defect correction order = 8
MG DL_MG: Solver finished
MG Hartree energy from (\int phi*rho dr):              1245.706142
MG Hartree energy from (\int eps (grad phi)^2 dr):     1245.053963
MG Discrepancy due to finite box and discretization:     -0.652179 (  -0.05235%)
MG Correction to account for finite box:                  0.468364
MG Remaining discrepancy, due to discretization:         -0.183815 (  -0.01476%)
      ideal mu1:      -0.734125277547
             Q0:  -11664.713355172076
             G0:      -0.000985099248
   RMS gradient:       0.000004824835
MG BCs: +ve charge blocks (gridpoints):     24999 (   17041243).
MG BCs: -ve charge blocks (gridpoints):      8481 (    1078507).
MG BCs:     Elided blocks (gridpoints):    168915 (  172850875).
MG BCs: Computational effort saved:  99.9825%.
MG BCs: Charge after coarse-graining:           -9.0006923.
MG DL_MG: Calling solver with defect correction order = 8
MG DL_MG: Solver finished
MG Hartree energy from (\int phi*rho dr):              1245.675312
MG Hartree energy from (\int eps (grad phi)^2 dr):     1245.023127
MG Discrepancy due to finite box and discretization:     -0.652185 (  -0.05236%)
MG Correction to account for finite box:                  0.468365
MG Remaining discrepancy, due to discretization:         -0.183820 (  -0.01476%)
     Trial step:       0.541261148058
             Q1:  -11664.713764496613
 Quadratic coef:       0.000123871412
 Linear coef   :      -0.000533195950
           Qmin:  -11664.713928948373
Quadratic minimum step length (  1.164910639752) accepted
    Initial Ne1:    7192.00000623
      Final Ne1:    7192.00000000

=================== Penalty functional idempotency correction ==================
 RMS occupancy error at iteration   1:  0.000005 (step -0.5000 Ne1=   7192.0000)
            Final RMS occupancy error   :  0.000000 (Ne1=   7192.0000)
               Final occupancy bounds   : [  0.0000,  1.0000]
================================================================================

    8        -1.166471335517E+04     4.8248E-06     4.3640E-06    -4.1174E-04
MG BCs: +ve charge blocks (gridpoints):     24999 (   17041222).
MG BCs: -ve charge blocks (gridpoints):      8481 (    1078507).
MG BCs:     Elided blocks (gridpoints):    168915 (  172850896).
[...]
MG Hartree energy from (\int phi*rho dr):              1202.662272
MG Hartree energy from (\int eps (grad phi)^2 dr):     1202.473244
MG Discrepancy due to finite box and discretization:     -0.189027 (  -0.01572%)
MG Correction to account for finite box:                  0.006331
MG Remaining discrepancy, due to discretization:         -0.182696 (  -0.01519%)
             Q2:  -11698.150466603809
  Cubic LS coeff:       1.311212388409
Predicted energy:  -11698.150466604462
Cubic minimum step length accepted
    Initial Ne1:    7192.00000000
      Final Ne1:    7192.00000000

=================== Penalty functional idempotency correction ==================
 RMS occupancy error at iteration   1:  0.000000 (step -0.5000 Ne1=   7192.0000)
            Final RMS occupancy error   :  0.000000 (Ne1=   7192.0000)
               Final occupancy bounds   : [ -0.0000,  1.0000]
================================================================================

    7        -1.169815046660E+04     7.3564E-09     6.6537E-09    -1.1642E-09

Reusing previously generated solute cavity.
MG BCs: +ve charge blocks (gridpoints):     29165 (   19252508).
MG BCs: -ve charge blocks (gridpoints):      8461 (    1048236).
MG BCs:     Elided blocks (gridpoints):    164749 (  170669881).
MG BCs: Computational effort saved:  99.9803%.
MG BCs: Charge after coarse-graining:           -9.0009802.
MG DL_MG: Calling solver with defect correction order = 8
MG DL_MG: Solver finished
MG Hartree energy from (\int phi*rho dr):              1202.662252
MG Hartree energy from (\int eps (grad phi)^2 dr):     1202.473224
MG Discrepancy due to finite box and discretization:     -0.189027 (  -0.01572%)
MG Correction to account for finite box:                  0.006331
MG Remaining discrepancy, due to discretization:         -0.182696 (  -0.01519%)
      ideal mu1:      -0.485677116298
             Q0:  -11698.150466604391
             G0:      -0.000000002863
   RMS gradient:       0.000000008563

Reusing previously generated solute cavity.
MG BCs: +ve charge blocks (gridpoints):     29165 (   19252508).
MG BCs: -ve charge blocks (gridpoints):      8461 (    1048236).
MG BCs:     Elided blocks (gridpoints):    164749 (  170669881).
MG BCs: Computational effort saved:  99.9803%.
MG BCs: Charge after coarse-graining:           -9.0009802.
MG DL_MG: Calling solver with defect correction order = 8
MG DL_MG: Solver finished
MG Hartree energy from (\int phi*rho dr):              1202.662218
MG Hartree energy from (\int eps (grad phi)^2 dr):     1202.473190
MG Discrepancy due to finite box and discretization:     -0.189027 (  -0.01572%)
MG Correction to account for finite box:                  0.006331
MG Remaining discrepancy, due to discretization:         -0.182696 (  -0.01519%)
     Trial step:       0.721740607488
             Q1:  -11698.150466603809
 Quadratic coef:       0.000000002648
 Linear coef   :      -0.000000002066
           Qmin:  -11698.150466604795
Quadratic minimum step length (  0.281560641576) accepted
    Initial Ne1:    7192.00000000
      Final Ne1:    7192.00000000

=================== Penalty functional idempotency correction ==================
 RMS occupancy error at iteration   1:  0.000000 (step -0.5000 Ne1=   7192.0000)
            Final RMS occupancy error   :  0.000000 (Ne1=   7192.0000)
               Final occupancy bounds   : [  0.0000,  1.0000]
================================================================================

    8        -1.169815046660E+04     8.5633E-09     7.7453E-09    -2.6776E-09

Reusing previously generated solute cavity.
MG BCs: +ve charge blocks (gridpoints):     29165 (   19252508).
MG BCs: -ve charge blocks (gridpoints):      8461 (    1048236).
MG BCs:     Elided blocks (gridpoints):    164749 (  170669881).
MG BCs: Computational effort saved:  99.9803%.
MG BCs: Charge after coarse-graining:           -9.0009802.
MG DL_MG: Calling solver with defect correction order = 8
MG DL_MG: Solver finished
MG Hartree energy from (\int phi*rho dr):              1202.662238
MG Hartree energy from (\int eps (grad phi)^2 dr):     1202.473211
MG Discrepancy due to finite box and discretization:     -0.189027 (  -0.01572%)
MG Correction to account for finite box:                  0.006331
MG Remaining discrepancy, due to discretization:         -0.182696 (  -0.01519%)
      ideal mu1:      -0.485677098884
             Q0:  -11698.150466604508
             G0:      -0.000000001876
   RMS gradient:       0.000000005420

Reusing previously generated solute cavity.
MG BCs: +ve charge blocks (gridpoints):     29165 (   19252508).
MG BCs: -ve charge blocks (gridpoints):      8461 (    1048236).
MG BCs:     Elided blocks (gridpoints):    164749 (  170669881).
MG BCs: Computational effort saved:  99.9803%.
MG BCs: Charge after coarse-graining:           -9.0009802.
MG DL_MG: Calling solver with defect correction order = 8
MG DL_MG: Solver finished
MG Hartree energy from (\int phi*rho dr):              1202.662243
MG Hartree energy from (\int eps (grad phi)^2 dr):     1202.473215
MG Discrepancy due to finite box and discretization:     -0.189027 (  -0.01572%)
MG Correction to account for finite box:                  0.006331
MG Remaining discrepancy, due to discretization:         -0.182696 (  -0.01519%)
     Trial step:       0.450792356297
             Q1:  -11698.150466603460
 Quadratic coef:       0.000000001894
 Linear coef   :      -0.000000000846
           Qmin:  -11698.150466604602
Quadratic minimum step length (  0.100660440375) accepted
    Initial Ne1:    7192.00000000
      Final Ne1:    7192.00000000

=================== Penalty functional idempotency correction ==================
 RMS occupancy error at iteration   1:  0.000000 (step -0.5000 Ne1=   7192.0000)
            Final RMS occupancy error   :  0.000000 (Ne1=   7192.0000)
               Final occupancy bounds   : [  0.0000,  1.0000]
================================================================================

    9        -1.169815046660E+04     5.4203E-09     4.9025E-09    -1.1642E-10

Reusing previously generated solute cavity.
MG BCs: +ve charge blocks (gridpoints):     29165 (   19252508).
MG BCs: -ve charge blocks (gridpoints):      8461 (    1048236).
MG BCs:     Elided blocks (gridpoints):    164749 (  170669881).
MG BCs: Computational effort saved:  99.9803%.
MG BCs: Charge after coarse-graining:           -9.0009802.
MG DL_MG: Calling solver with defect correction order = 8
MG DL_MG: Solver finished
MG Hartree energy from (\int phi*rho dr):              1202.662239
MG Hartree energy from (\int eps (grad phi)^2 dr):     1202.473212
MG Discrepancy due to finite box and discretization:     -0.189027 (  -0.01572%)
MG Correction to account for finite box:                  0.006331
MG Remaining discrepancy, due to discretization:         -0.182696 (  -0.01519%)
      ideal mu1:      -0.485677096516
   10        -1.169815046660E+04     4.0717E-09     3.6828E-09     1.1642E-10
Finished density kernel iterations (  10)

Writing density kernel to file "host_8081.dkn" ... done


>>> Density kernel optimised for the current NGWF basis:
     ~~~~~~~~~~~~~~~~~~~~~~~~~~~~~~~~~~~~~~~~~~~~~~~~~~~~~~~~~~~
     Total energy                =  -1.16981504666044E+04  Eh
     Estimated bandgap           =   9.7334E-02  Eh
     RMS occupancy error         =   4.7577E-16
     [H,K] commutator            =   3.6828E-09
     Occupancy bounds            = [  0.000:  1.000]
     ~~~~~~~~~~~~~~~~~~~~~~~~~~~~~~~~~~~~~~~~~~~~~~~~~~~~~~~~~~~




################################################################################
########################### NGWF CG iteration  004 #############################
################################################################################
****** Reciprocal space K.E. preconditioning with k_zero =  3.5000 a0^-1 *******

>>> Checking for convergence of NGWFs: 
           ........................................................
           |         *** NGWF optimisation converged ***          |
           | RMS NGWF gradient =    0.00000192044174              |
           | Criteria satisfied:                                  |
           | -> RMS NGWF gradient lower than set threshold.       |
           ========================================================

Reusing previously generated solute cavity.
MG BCs: +ve charge blocks (gridpoints):     29165 (   19252508).
MG BCs: -ve charge blocks (gridpoints):      8461 (    1048236).
MG BCs:     Elided blocks (gridpoints):    164749 (  170669881).
MG BCs: Computational effort saved:  99.9803%.
MG BCs: Charge after coarse-graining:           -9.0009802.
MG DL_MG: Calling solver with defect correction order = 8
MG DL_MG: Solver finished
MG Hartree energy from (\int phi*rho dr):              1202.662239
MG Hartree energy from (\int eps (grad phi)^2 dr):     1202.473212
MG Discrepancy due to finite box and discretization:     -0.189027 (  -0.01572%)
MG Correction to account for finite box:                  0.006331
MG Remaining discrepancy, due to discretization:         -0.182696 (  -0.01519%)

================================================================================
           ---------------- ENERGY COMPONENTS (Eh) ----------------
           | Kinetic                    :     8558.23983324378059 |
           | Pseudo. (local,OBC,corr'd) :    -5072.72594983873933 |
           | Pseudopotential (non-local):     1404.24659680183868 |
           | Hartree (molecular)        :     1202.66223932547769 |
           | Exchange-correlation       :    -3382.00386049484587 |
           | Ion-ion (open BC)          :   822720.42876925552264 |
           | Smeared ion non-self corr. :  -822672.46892500331160 |
           | Smeared ion self corr.     :   -14457.16956389741972 |
           | Solvent cavitation energy  :        2.27837411119386 |
           | Solute-solvent dis-rep en. :       -1.63798010789004 |
           | Total                      :   -11698.15046660433291 |
           --------------------------------------------------------
           ------ LOCAL ENERGY COMPONENTS FROM MATRIX TRACES ------
           | Pseudopotential (local)    :    -5072.72594983873387 |
           | Hartree                    :    -2003.23782764796124 |
           --------------------------------------------------------
           Integrated density           :     7191.99999999899956
           Integrated density tr(KS)    :     7192.00000000000000
================================================================================


                        <<<<< CALCULATION SUMMARY >>>>>                         
|ITER|    RMS GRADIENT   |     TOTAL ENERGY    |   step   |     Epredicted              
   0     0.00003827927105 -11698.09387995849829   0.609874 -11698.14267747588565        
   1     0.00001024872778 -11698.14982174814213   0.094299 -11698.15036259729459        
   2     0.00000441238931 -11698.15044669318013   0.016409 -11698.15046413780874        
   3     0.00000192044174 -11698.15046660439111  <-- CG                                 

=================== Finished the calculation in solvent ========================
= Adjusting the following parameters: 
= read_denskern: F
= read_tightbox_ngwfs: F
= maxit_pen: 0 (restored to user-specified value)
= restart read filename prefix: ""
= restart write filename prefix: ""
================================================================================

================================================================================
IS: Calculation in solvent completed (NGWFs converged).      

Individual components of total energy in solvent:     hartree           kcal/mol
- Usual non-electrostatic DFT terms:    -12901.45309993317460    -8095783.873750
- Electrostatic fixed charge energy:      1202.66223932547769      754681.932902
- Apolar cavitation energy:                  2.27837411119386        1429.701309
- Apolar dispersion-repulsion energy:       -1.63798010789004       -1027.848014
 -------------------------------------------------------------------------------
- Total energy in solvent:              -11698.15046660439111    -7340700.087553

Components of total energy in solvent:                hartree           kcal/mol
- Usual non-electrostatic DFT terms:    -12901.45309993317460    -8095783.873750
- Electrostatic energy:                   1202.66223932547769      754681.932902
- Apolar energy terms:                       0.64039400330381         401.853295
 -------------------------------------------------------------------------------
- Total energy in solvent:              -11698.15046660439111    -7340700.087553

Calculation of free energy of solvation:              hartree           kcal/mol
- Total energy in solvent:         (+)  -11698.15046660439111    -7340700.087553
- Total energy in vacuum:          (-)  -11694.39800957927946    -7338345.385270
 -------------------------------------------------------------------------------
- Total free energy of solvation:           -3.75245702511165       -2354.702283

Components of polar term in f.e. of solvation:        hartree           kcal/mol
- Electrostatic:                            -4.53946462209819       -2848.556996
- Change in nonelectrostatic DFT terms:      0.14661359368074          92.001417
 -------------------------------------------------------------------------------
- Polar term in f.e. of solvation:          -4.39285102841745       -2756.555579

Components of free energy of solvation:               hartree           kcal/mol
- Polar term in f.e. of solvation: (+)      -4.39285102841745       -2756.555579
- Apolar (cavitation, dis., rep.): (+)       0.64039400330381         401.853295
 -------------------------------------------------------------------------------
- Total free energy of solvation:           -3.75245702511364       -2354.702283
================================================================================


------------------------------ TIMING INFORMATION ------------------------------
AVERAGE TIME:   36659.845s on     60 node(s)                                    
TOTAL TIME:     36659.846s on     60 node(s)                                    
================= AVERAGE TIMINGS FROM ALL NODES (CUMULATIVE) ==================
|| TAG                                    #calls    cpu time   %total  Gflops ||
|| work_imbalance                       :     1        0.00s   0.000%  ------ ||
|| sparse_set_to_garbage                :   188        0.03s   0.000%  ------ ||
|| parallel_prepare_fd_halos_request    :  2067        0.04s   0.000%  ------ ||
|| ngwfs_initialise_from_radial         :     1        0.11s   0.000%  ------ ||
|| parallel_prepare_fd_halos_alloc      :  2067        0.16s   0.000%  ------ ||
|| basis_extract_function_from_box      :  3794        0.17s   0.000%  ------ ||
|| parallel_prepare_fd_halos_satisfy    :  2067        0.70s   0.002%  ------ ||
|| pseudopotentials_nonlocal_mat        :    32        2.57s   0.007%  ------ ||
|| openbc_locps_radial                  :     1        2.94s   0.008%  ------ ||
|| density_init_guess_real              :     1        5.03s   0.014%  ------ ||
|| restart_kernel_read                  :     1        5.81s   0.016%  ------ ||
|| restart_ngwfs_tightbox_input         :     1        7.28s   0.020%  ------ ||
|| parallel_prepare_fd_halos_comms_imbal:  2067       11.52s   0.031%  ------ ||
|| parallel_prepare_fd_halos_clear      :  2067       19.91s   0.054%  ------ ||
|| sparse_init                          :     2       22.22s   0.061%  ------ ||
|| parallel_prepare_fd_halos_comms_wait :  2067       25.25s   0.069%  ------ ||
|| projectors_func_ovlp_box             :    32       29.23s   0.080%  ------ ||
|| palser_mano_kernel_optimise          :     1       32.19s   0.088%  ------ ||
|| function_ops_brappd_ketppd           :    32       33.84s   0.092%  ------ ||
|| projectors_init_fftbox_recip         :   151       37.07s   0.101%  ------ ||
|| basis_copy_function_to_box           : 61689       49.44s   0.135%  ------ ||
|| pseudo_make_structure_factor         :     2       51.77s   0.141%  ------ ||
|| ngwf_gradient_coeffs                 :    17       52.91s   0.144%  ------ ||
|| parallel_prepare_fd_halos            :  2067       57.59s   0.157%  ------ ||
|| fourier_apply_box_pair               :  5427       57.95s   0.158% 577.500 ||
|| sparse_embed_hotelling_invert_embed  :    32       81.36s   0.222%  ------ ||
|| restart_kernel_write                 :    18      108.78s   0.297%  ------ ||
|| finite_difference_derivative         :  2067      132.15s   0.360%  ------ ||
|| integrals_kinetic                    :    32      162.42s   0.443%  ------ ||
|| basis_dot_function_with_box          : 9.316M     188.41s   0.514%  ------ ||
|| projectors_gradient_batch            :   119      194.86s   0.532%  ------ ||
|| sparse_trace                         :  5323      208.86s   0.570%  ------ ||
|| openbc_locps_on_grid                 :     2      260.38s   0.710%  ------ ||
|| kernel_purify                        :   526      312.81s   0.853%  ------ ||
|| basis_add_function_to_box            : 19.46M     447.87s   1.222%  ------ ||
|| lnv_gradient_norm                    :   170      469.25s   1.280%  ------ ||
|| kernel_fix                           :   170      505.52s   1.379%  ------ ||
|| hamiltonian_energy_components        :     4      541.52s   1.477%  ------ ||
|| integrals_locpot_mat_els_batch       :  1253      830.56s   2.266%  ------ ||
|| ngwf_gradient_build_batch            :   119      850.65s   2.320%  ------ ||
|| restart_ngwfs_tightbox_output        :    15     1047.95s   2.859%  ------ ||
|| ngwf_gradient_batch                  :   119     1168.44s   3.187%  ------ ||
|| density_batch_row_sums               :  2401     1227.04s   3.347%  ------ ||
|| ngwf_gradient_lnv                    :    17     1314.55s   3.586%  ------ ||
|| cell_grid_deposit_box_real           : 39497     1442.86s   3.936%  ------ ||
|| fourier_apply_cell_forward           :  9633     1534.64s   4.186%  84.295 ||
|| fourier_apply_cell_backward          : 10323     1738.91s   4.743%  79.721 ||
|| cell_grid_extract_box_real           : 43215     1748.94s   4.771%  ------ ||
|| sparse_product                       :  6885     1937.34s   5.285%  ------ ||
|| density_fftbox_deposit_to_cell       : 37387     2138.98s   5.835%  ------ ||
|| potential_apply_to_ngwf_batch        :  1253     4021.88s  10.971%  ------ ||
|| xc_energy_potential                  :   344     4258.65s  11.617%  ------ ||
|| density_fftbox_interpolate_multiply  : 37387     4293.82s  11.713%  ------ ||
|| integrals_locpot_dbl_grid            :   179     4872.57s  13.291%  ------ ||
|| multigrid_prepare_bound_cond         :   344     4914.22s  13.405%  ------ ||
|| fourier_apply_box                    : 128.7k    5248.63s  14.317% 732.738 ||
|| nlxc_vdw_energy                      :   688     6882.63s  18.774%  ------ ||
|| dl_mg_solver_calls                   :   344     7366.90s  20.095%  ------ ||
|| density_batch_interp_deposit         :  2401     7376.98s  20.123%  ------ ||
|| density_on_dbl_grid                  :   343     8961.40s  24.445%  ------ ||
|| multigrid_calculate_hartree          :   344    12462.98s  33.996%  ------ ||
|| hamiltonian_lhxc_calculate           :   339    25616.22s  69.875%  ------ ||
|| lnv_denskernel_optimise_cg           :    17    31277.79s  85.319%  ------ ||
|| ngwf_cg_optimise                     :     2    35747.06s  97.510%  ------ ||
|| total_time                           :     1    36659.84s 100.000%  ------ ||
================================================================================
Overhead of generating timer report: 
- 0 ms averaging over threads,
- 15 ms ensuring consistency across MPI ranks,
- 0 ms printing in order.

Job completed: 26-01-2020 04:04 (-0000)

Application 38678794 resources: utime ~7355163s, stime ~254718s, Rss ~3907728, inblocks ~360669159, outblocks ~71824218
