 +---------------------------------------------------------------+
 |                                                               |
 |        ####### #     # ####### ####### ####### ######         |
 |        #     # ##    # #          #    #       #     #        |
 |        #     # # #   # #          #    #       #     #        |
 |        #     # #  #  # #####      #    #####   ######         |
 |        #     # #   # # #          #    #       #              |
 |        #     # #    ## #          #    #       #              |
 |        ####### #     # #######    #    ####### #              |
 |                                                               |
 |        Linear-Scaling Ab Initio Total Energy Program          |
 |                                                               |
 |          Release for academic collaborators of ODG            |
 |                                             Version 5.3.2.6.  |
 |                                                               |
 +---------------------------------------------------------------+
 |                                                               |
 |  Authors:                                                     |
 |  Jacek Dziedzic, Peter D. Haynes, Nicholas D. M. Hine,        |
 |  Arash. A. Mostofi, Mike C. Payne and Chris-Kriton Skylaris   |
 |                                                               |
 |  Contributors:                                                |
 |  J. Aarons, L. Andrinopoulos, P. W. Avraam, R. A. Bell,       |
 |  A. Bhandari, G. A. Bramley, R. J. Charlton, S. J. Clark,     |
 |  R. J. Clements, G. C. Constantinescu, F. Corsetti,           |
 |  N. Corsini, O. Dieguez, S. M. M. Dubois, K. K. B. Duff,      |
 |  J. M. Escartin, A. Greco, H. Helal, Q. O. Hill, L. P. Lee,   |
 |  J.-H. Li, E. B. Linscott, G. Moynihan, D. D. O`Regan,        |
 |  O. K. Okan, M. J. S. Phipps, C. J. Pickard,                  |
 |  J. C. A. Prentice, M. I. J. Probert, L. E. Ratcliff,         |
 |  M. Robinson, A. Ruiz Serrano, J. S. Spencer, E. W. Tait,     |
 |  G. Teobaldi, D. Turban, V. Vitale, K. A. Wilkinson,          |
 |  C. Weber, J. C. Womack, N. Yeung and T. J. Zuehlsdorff       |
 |                                                               |
 |                                   Copyright (c) 2004-2019     |
 |                                                               |
 |  Please cite:                                                 |
 |  "Introducing ONETEP: Linear-scaling density functional       |
 |   simulations on parallel computers".                         |
 |   C.-K. Skylaris, P. D. Haynes, A. A. Mostofi, M. C. Payne.   |
 |   J. Chem. Phys. 122 084119 (2005).                           |
 |                                                               |
 |          in all publications arising from your use of ONETEP. |
 |                                                               |
 +---------------------------------------------------------------+
 |                                                               |
 |   ONETEP is based on developments described in the following  |
 |   publications:                                               |
 |                                                               |
 |  "Nonorthogonal generalized Wannier function pseudopotential  |
 |   plane-wave method".                                         |
 |   C.-K. Skylaris, A. A. Mostofi, P. D. Haynes, O. Dieguez,    |
 |   M. C. Payne.                                                |
 |   Phys. Rev. B 66 035119 (2002).                              |
 |                                                               |
 |  "Preconditioned iterative minimization for linear-scaling    |
 |   electronic structure calculations".                         |
 |   A. A. Mostofi, P. D. Haynes, C.-K. Skylaris, M. C. Payne.   |
 |   J. Chem. Phys. 119(17), pp.8842-8848 (2003).                |
 |                                                               |
 |  "Total-energy calculations on a real space grid with         |
 |   localized functions and a plane-wave basis".                |
 |   A. A. Mostofi, C.-K. Skylaris, P. D. Haynes, M. C. Payne.   |
 |   Comput. Phys. Commun. 147, pp.788-802 (2002).               |
 |                                                               |
 |  "Accurate kinetic energy evaluation in electronic structure  |
 |   calculations with localized functions on real space grids"  |
 |   C.-K. Skylaris, A. A. Mostofi, P. D. Haynes, C. J. Pickard, |
 |   M. C. Payne.                                                |
 |   Comput. Phys. Commun. 140, pp.315-322 (2001).               |
 |                                                               |
 |  "Accurate ionic forces and geometry optimization in linear-  |
 |   scaling density-functional theory with local orbitals"      |
 |   N. D. M. Hine, M. Robinson, P. D. Haynes, C.-K. Skylaris,   |
 |   M. C. Payne, and A. A. Mostofi.                             |
 |   Phys. Rev. B 83 195102 (2011).                              |
 |                                                               |
 +---------------------------------------------------------------+

Job started: 15-02-2020 08:51 (-0000)
 
Reading parameters from file "host_21761.dat" ...... done

If your calculation crashes here, before "Checking processes and threads..."
is displayed, then your stack size is insufficient.
If so, use "ulimit -s unlimited" at runtime.
You can disable this check with "check_stack_size F".

Checking processes and threads...
   Determining the default number of threads...
      No default threads set at compilation time: defaulting to 1.
      OpenMP library call suggests 4 threads.
      Hybrid MPI-OpenMP compilation detected.
      Number of MPI processes > 1.
      OMP_NUM_THREADS environment variable present and
      its value matches the one obtained from the OpenMP library call.
      Using this value as default.
      Default threads: 4
      Default applies to threads_max and threads_num_fftboxes.
      Settings in the input file override this default.
   ... done

   Running with 60 MPI processes.
   There are 6 MPI processes running on the same node as the root process.
   Each MPI process is using: 
               1 threads for simulation cell FFTs.
               1 threads for parallel FFT box operations.
               4 threads for loops over batched FFT box operations.
               4 threads in other parallel regions.
... done

Basic input checks...... done

Reading geometry and species blocks from file "host_21761.dat" ...
  <species_atomic_set> block not found: NGWF initialisation set to SOLVE
IS: Dielectric excluded regions:
    - NONE.
    
  Number of PPD points along a3 set to 1.  This is 
  the default value, it may have been provided also in the input file.
... done
 Writing xyz coordinates to file "host_21761.xyz" ... done


--------------------------------------------------------------------------------
---------------------------------- INPUT FILE ----------------------------------
--------------------------------------------------------------------------------

cutoff_energy       : 800 eV                                                    
xc_functional VV10                                                              
task SINGLEPOINT                                                                
write_xyz true                                                                  
output_detail VERBOSE                                                           
ngwf_threshold_orig : 0.000002                                                  
kernel_cutoff       : 1000                                                      
k_zero              : 3.5                                                       
elec_cg_max 0                                                                   
occ_mix 1.0                                                                     
dispersion 0                                                                    
maxit_ngwf_cg 40                                                                
minit_lnv 10                                                                    
maxit_lnv 10                                                                    
write_denskern T                                                                
write_tightbox_ngwfs T                                                          
charge 9                                                                        
is_implicit_solvent T                                                           
is_auto_solvation T                                                             
is_include_apolar T                                                             
is_smeared_ion_rep T                                                            
is_solvent_surf_tension 4.7624E-5 Ha/bohr**2                                    
is_apolar_scaling_factor 0.281075                                               
is_solvation_beta 1.3                                                           
is_density_threshold 0.00035                                                    
is_bulk_permittivity 78.54                                                      
is_dielectric_model fix_initial                                                 
is_smeared_ion_width 0.8                                                        
mg_defco_fd_order 8                                                             
is_bc_coarseness 10                                                             
is_bc_surface_coarseness 1                                                      
fine_grid_scale 2.0                                                             
%block species                                                                  
N   N   7 4 8.0                                                                 
H   H   1 1 8.0                                                                 
C   C   6 4 8.0                                                                 
S   S  16 9 8.0                                                                 
O   O   8 4 8.0                                                                 
%endblock species                                                               
%block species_pot                                                              
N   N_00.recpot                                                                 
H   H_04.recpot                                                                 
C   C_01.recpot                                                                 
S   S_00.recpot                                                                 
O   O_02.recpot                                                                 
%endblock species_pot                                                           
%block lattice_cart                                                             
135.996   0.000   0.000                                                         
0.000 142.663   0.000                                                           
0.000   0.000   160.158                                                         
%endblock lattice_cart                                                          
%block positions_abs                                                            
     Hash =  -000004239006469547491566
%endblock positions_abs                                                         

--------------------------------------------------------------------------------
-------------------------------- END INPUT FILE --------------------------------
--------------------------------------------------------------------------------


 
 ESDF WARNING(1): "kernelcutoff" (esdf_physical) has no units. Assume "bohr".
 ESDF WARNING(2): "kzero" (esdf_physical) has no units. Assume "1/bohr".
 ESDF WARNING(3
 ): "issmearedionwidth" (esdf_physical) has no units. Assume "bohr".
<<<<<<<<<<<<<<<<<<<<<<<<<<<<<<<<< Full system >>>>>>>>>>>>>>>>>>>>>>>>>>>>>>>>>>
<<<<<<<<<<<<<<<<<<<<<<<<< Pseudopotential information >>>>>>>>>>>>>>>>>>>>>>>>>>
File: N_00.recpot [ 2001 points up to Gmax=  52.9 (1/bohr)]
  Atomic number:  7;  ionic charge:  5.000000
    Shell 1: l = 0; rc = 1.48 bohr
File: H_04.recpot [ 2001 points up to Gmax=  52.9 (1/bohr)]
  Atomic number:  1;  ionic charge:  1.000000
    Local potential
File: C_01.recpot [ 2001 points up to Gmax=  52.9 (1/bohr)]
  Atomic number:  6;  ionic charge:  4.000000
    Shell 1: l = 0; rc = 1.48 bohr
File: S_00.recpot [ 2001 points up to Gmax=  52.9 (1/bohr)]
  Atomic number: 16;  ionic charge:  6.000000
    Shell 1: l = 0; rc = 1.90 bohr
    Shell 2: l = 2; rc = 1.84 bohr
File: O_02.recpot [ 2001 points up to Gmax=  52.9 (1/bohr)]
  Atomic number:  8;  ionic charge:  6.000000
    Shell 1: l = 0; rc = 1.31 bohr
<<<<<<<<<<<<<<<<<<<<<<<<<<<<<<<<<<<<<<<<>>>>>>>>>>>>>>>>>>>>>>>>>>>>>>>>>>>>>>>>

-------------------------- Atom counting information ---------------------------
Symbol    Natoms    Nngwfs    Nprojs
  N        236       944       236
  H       1311      1311         0
  C        810      3240       810
  S          6        54        36
  O        239       956       239
.......   ......    ......    ......
Totals:   2602      6505      1321
--------------------------------------------------------------------------------

=============================== PSINC grid sizes ===============================
                      Simulation cell:  270 x 286 x 315
                              FFT-box:   99 x 105 x  99
                                  PPD:    5 x  11 x   1
Grid space d1=  0.503688888889a0 (KE cutoff=  29.94189Eh = 814.76038eV)
Grid space d2=  0.498821678322a0 (KE cutoff=  30.52906Eh = 830.73786eV)
Grid space d3=  0.508438095238a0 (KE cutoff=  29.38514Eh = 799.61048eV)
================================================================================

********************* Fourier parallelisation information **********************
       Coarse grid (whole simulation cell) dimensions:    270   286   315
          Real-space ('12') slabs/node (min max mean):      5     6     5
         Recip-space ('23') slabs/node (min max mean):      2     3     2
********************************************************************************

********************* Fourier parallelisation information **********************
       Double grid (whole simulation cell) dimensions:    540   572   630
          Real-space ('12') slabs/node (min max mean):     10    11    10
         Recip-space ('23') slabs/node (min max mean):      4     5     4
********************************************************************************
ONETEP fine grid is 540 x 572 x 630 gridpoints, 135.9960 x 142.6630 x 160.1580 bohr.
FD multigrid is     537 x 569 x 625 gridpoints, 135.2405 x 141.9148 x 158.8869 bohr.


Calculating local pseudopotential in open BC on a radial grid ...
Discrepancy between calculated realspace psloc and -Z/x on [5a0,253.965a0]:
max |rel. diff| # avg |rel. diff| #  avg rel. diff #  f # pseudopotential file
 0.000259282084    0.000004141996   0.000000074978   54  'N_00.recpot'
 0.000405386992    0.000016970607  -0.000000075982   54  'H_04.recpot'
 0.000371694516    0.000017434762   0.000000149329   54  'C_01.recpot'
 0.000461642895    0.000020341726   0.000000491514   54  'S_00.recpot'
 0.000682525123    0.000027368244   0.000000159803   54  'O_02.recpot'
... done

Atom SCF Calculation for N  : Z (AE atom) =   7 : Z (PS atom) =   5
Config String:
Orbitals (num,occ):  2     2.00 3.00
Orbitals   (num,l):  2        0    1
Real-space Grid (nr,dr,rmax): 1203    0.0066555740    8.0000000000
Spherical Bessel Basis (nsws,lmax,cutoff):   47    1  176.3951722778
Confining potential (l,width,scale):  0    3.0000000000  100.0000000000
Confining potential (l,width,scale):  1    3.0000000000  100.0000000000
  1         -4.7366890484   -3.4501654188    7.0523828109   -1.9619316308
  2         -9.7225420322   -2.0763080851    8.3068355706   -2.2908832437
  3         -9.7134243553   -2.1270543915    8.2534567806   -2.2819809971
  4         -9.7235185949   -2.1427582218    8.2369947390   -2.2802814234
  5         -9.7258373845   -2.1477905863    8.2317116314   -2.2798536235
  6         -9.7268932325   -2.1503512400    8.2290229806   -2.2796830099
  7         -9.7273189469   -2.1516634231    8.2276451699   -2.2796169657
  8         -9.7274675212   -2.1523365544    8.2269384796   -2.2795940092
  9         -9.7275041773   -2.1526817003    8.2265762312   -2.2795881371
 10         -9.7275008637   -2.1528585007    8.2263907413   -2.2795884060
 11         -9.7274868305   -2.1529489544    8.2262958841   -2.2795903922
 12         -9.7274755655   -2.1529859230    8.2262571347   -2.2795920452
 13         -9.7274662327   -2.1530083995    8.2262335832   -2.2795934369
 14         -9.7274589439   -2.1530220534    8.2262192809   -2.2795945372
 15         -9.7274534633   -2.1530303399    8.2262106039   -2.2795953734
 16         -9.7274494492   -2.1530353634    8.2262053452   -2.2795959920
 17         -9.7274465654   -2.1530384053    8.2262021621   -2.2795964406
 18         -9.7274445237   -2.1530402447    8.2262002378   -2.2795967611
 19         -9.7274430947   -2.1530413553    8.2261990762   -2.2795969874
 20         -9.7274421038   -2.1530420249    8.2261983762   -2.2795971458
 21         -9.7274414219   -2.1530424277    8.2261979551   -2.2795972557
 22         -9.7274409555   -2.1530426696    8.2261977024   -2.2795973315
 23         -9.7274406382   -2.1530428144    8.2261975510   -2.2795973835
 24         -9.7274404232   -2.1530429010    8.2261974606   -2.2795974190
 25         -9.7274402783   -2.1530429525    8.2261974067   -2.2795974432
 26         -9.7274401808   -2.1530429831    8.2261973748   -2.2795974596
Atom SCF converged after  26 iterations to a total energy of     -9.72744018

Atom SCF Calculation for H  : Z (AE atom) =   1 : Z (PS atom) =   1
Config String:
Orbitals (num,occ):  1     1.00
Orbitals   (num,l):  1        0
Real-space Grid (nr,dr,rmax): 1203    0.0066555740    8.0000000000
Spherical Bessel Basis (nsws,lmax,cutoff):   47    0  176.3951722778
Confining potential (l,width,scale):  0    3.0000000000  100.0000000000
  1         -0.3178661827   -0.2469879004    0.2820953124   -0.2487802071
  2         -0.3961824611   -0.2455070831    0.2902209900   -0.2567664324
  3         -0.4406462424   -0.2424227551    0.2948173255   -0.2622129794
  4         -0.4569739054   -0.2416771342    0.2960118236   -0.2639986016
  5         -0.4627745219   -0.2416114401    0.2961916694   -0.2644992007
  6         -0.4648634749   -0.2416666130    0.2961598921   -0.2646237065
  7         -0.4656347011   -0.2417155160    0.2961132802   -0.2646490719
  8         -0.4659271144   -0.2417438448    0.2960836537   -0.2646515522
  9         -0.4660407254   -0.2417580788    0.2960682004   -0.2646501482
 10         -0.4660857867   -0.2417647566    0.2960608087   -0.2646488305
 11         -0.4661039568   -0.2417677717    0.2960574330   -0.2646480606
 12         -0.4661113773   -0.2417691018    0.2960559329   -0.2646476727
 13         -0.4661144368   -0.2417696800    0.2960552775   -0.2646474903
 14         -0.4661157072   -0.2417699291    0.2960549942   -0.2646474079
 15         -0.4661162374   -0.2417700356    0.2960548727   -0.2646473715
 16         -0.4661164596   -0.2417700810    0.2960548208   -0.2646473556
 17         -0.4661165529   -0.2417701003    0.2960547987   -0.2646473488
Atom SCF converged after  17 iterations to a total energy of     -0.46611655

Atom SCF Calculation for C  : Z (AE atom) =   6 : Z (PS atom) =   4
Config String:
Orbitals (num,occ):  2     2.00 2.00
Orbitals   (num,l):  2        0    1
Real-space Grid (nr,dr,rmax): 1203    0.0066555740    8.0000000000
Spherical Bessel Basis (nsws,lmax,cutoff):   47    1  176.3951722778
Confining potential (l,width,scale):  0    3.0000000000  100.0000000000
Confining potential (l,width,scale):  1    3.0000000000  100.0000000000
  1         -5.2812238291   -1.3293161250    4.5135249990   -1.4716766231
  2         -5.3996591362   -1.3542148509    4.4876064308   -1.4645117417
  3         -5.4111847148   -1.3757224423    4.4645718036   -1.4593107263
  4         -5.4199203659   -1.3833334895    4.4563636676   -1.4579885221
  5         -5.4226876204   -1.3865104950    4.4529090432   -1.4575385943
  6         -5.4235070726   -1.3878131251    4.4514866831   -1.4573882877
  7         -5.4237271252   -1.3883401868    4.4509094528   -1.4573411661
  8         -5.4237693051   -1.3885521813    4.4506766230   -1.4573281030
  9         -5.4237656430   -1.3886371046    4.4505830704   -1.4573255254
 10         -5.4237547927   -1.3886709976    4.4505456041   -1.4573257244
 11         -5.4237478594   -1.3886817763    4.4505336403   -1.4573262476
 12         -5.4237429748   -1.3886873440    4.4505274417   -1.4573266921
 13         -5.4237397042   -1.3886902144    4.4505242350   -1.4573270222
 14         -5.4237375865   -1.3886916908    4.4505225792   -1.4573272507
 15         -5.4237362473   -1.3886924482    4.4505217259   -1.4573274021
 16         -5.4237354152   -1.3886928356    4.4505212873   -1.4573274996
 17         -5.4237349050   -1.3886930331    4.4505210623   -1.4573275610
 18         -5.4237345954   -1.3886931333    4.4505209473   -1.4573275991
 19         -5.4237344092   -1.3886931840    4.4505208887   -1.4573276224
 20         -5.4237342980   -1.3886932094    4.4505208590   -1.4573276366
 21         -5.4237342320   -1.3886932221    4.4505208440   -1.4573276451
Atom SCF converged after  21 iterations to a total energy of     -5.42373423

Atom SCF Calculation for S  : Z (AE atom) =  16 : Z (PS atom) =   6
Config String:
Orbitals (num,occ):  3     2.00 4.00 0.00
Orbitals   (num,l):  3        0    1    2
Real-space Grid (nr,dr,rmax): 1203    0.0066555740    8.0000000000
Spherical Bessel Basis (nsws,lmax,cutoff):   47    2  176.3951722778
Confining potential (l,width,scale):  0    3.0000000000  100.0000000000
Confining potential (l,width,scale):  1    3.0000000000  100.0000000000
Confining potential (l,width,scale):  2    3.0000000000  100.0000000000
  1        -12.4916237786   -1.0485914554   10.1554312477   -2.4822447765
  2         -9.9747083603   -2.4807597367    8.3138131863   -2.0618837268
  3        -10.1811370131   -2.3153496392    8.4906092179   -2.1137756843
  4        -10.1856385898   -2.2984912006    8.5093862195   -2.1218167101
  5        -10.1891317560   -2.2894783333    8.5195006030   -2.1261392389
  6        -10.1911142562   -2.2849160124    8.5246320974   -2.1283733378
  7        -10.1921506977   -2.2826473329    8.5271859473   -2.1295140514
  8        -10.1926851273   -2.2815219985    8.5284534218   -2.1300957983
  9        -10.1929632671   -2.2809620806    8.5290843811   -2.1303933136
 10        -10.1931100895   -2.2806822783    8.5293998452   -2.1305460626
 11        -10.1931885828   -2.2805418782    8.5295582201   -2.1306248009
 12        -10.1932309625   -2.2804711729    8.5296380158   -2.1306655459
 13        -10.1932540142   -2.2804354512    8.5296783476   -2.1306867097
 14        -10.1932666242   -2.2804173494    8.5296987927   -2.1306977435
 15        -10.1932735535   -2.2804081489    8.5297091868   -2.1307035175
 16        -10.1932773756   -2.2804034581    8.5297144867   -2.1307065505
 17        -10.1932794908   -2.2804010586    8.5297171976   -2.1307081499
 18        -10.1932806648   -2.2803998268    8.5297185890   -2.1307089965
 19        -10.1932813181   -2.2803991920    8.5297193057   -2.1307094466
 20        -10.1932816826   -2.2803988634    8.5297196763   -2.1307096867
 21        -10.1932818864   -2.2803986926    8.5297198688   -2.1307098154
 22        -10.1932820006   -2.2803986034    8.5297199692   -2.1307098847
 23        -10.1932820648   -2.2803985565    8.5297200219   -2.1307099221
Atom SCF converged after  23 iterations to a total energy of    -10.19328206

Atom SCF Calculation for O  : Z (AE atom) =   8 : Z (PS atom) =   6
Config String:
Orbitals (num,occ):  2     2.00 4.00
Orbitals   (num,l):  2        0    1
Real-space Grid (nr,dr,rmax): 1203    0.0066555740    8.0000000000
Spherical Bessel Basis (nsws,lmax,cutoff):   47    1  176.3951722778
Confining potential (l,width,scale):  0    3.0000000000  100.0000000000
Confining potential (l,width,scale):  1    3.0000000000  100.0000000000
  1         -1.9497477053   -7.5870966769   10.1554312477   -2.4822447765
  2        -15.9466298225   -3.1778351734   13.6353006614   -3.2931224232
  3        -16.0387051750   -3.0909030611   13.7305651010   -3.3194522996
  4        -15.9025031450   -3.1083023605   13.7128101414   -3.3180850501
  5        -15.8912953362   -3.1033022259   13.7185404266   -3.3206942093
  6        -15.8793912992   -3.1043100674   13.7175820250   -3.3209366960
  7        -15.8748748605   -3.1043975610   13.7175531476   -3.3211845618
  8        -15.8725354084   -3.1044655610   13.7175148333   -3.3213149154
  9        -15.8713193866   -3.1045129589   13.7174824743   -3.3213832909
 10        -15.8706863385   -3.1045436851   13.7174593895   -3.3214192053
 11        -15.8703562731   -3.1045627330   13.7174442347   -3.3214381098
 12        -15.8701839150   -3.1045741887   13.7174347673   -3.3214480859
 13        -15.8700937727   -3.1045809294   13.7174290448   -3.3214533647
 14        -15.8700465571   -3.1045848305   13.7174256662   -3.3214561658
 15        -15.8700217888   -3.1045870593   13.7174237063   -3.3214576563
 16        -15.8700087767   -3.1045883194   13.7174225849   -3.3214584516
 17        -15.8700019307   -3.1045890258   13.7174219502   -3.3214588771
 18        -15.8699983237   -3.1045894190   13.7174215942   -3.3214591053
 19        -15.8699964206   -3.1045896366   13.7174213960   -3.3214592281
 20        -15.8699954151   -3.1045897563   13.7174212864   -3.3214592942
 21        -15.8699948832   -3.1045898219   13.7174212260   -3.3214593299
 22        -15.8699946014   -3.1045898577   13.7174211930   -3.3214593493
 23        -15.8699944520   -3.1045898771   13.7174211750   -3.3214593597
 24        -15.8699943726   -3.1045898877   13.7174211652   -3.3214593654
Atom SCF converged after  24 iterations to a total energy of    -15.86999437

========================== Calculation in vacuum ==============================
= Adjusting the following parameters: 
= is_implicit_solvent: F
= is_include_apolar: F
= write_denskern: T
= write_tightbox_ngwfs: T
= restart read filename prefix: ""
= restart write filename prefix: "vacuum_"
===============================================================================

Determining parallel strategy ...
... using space-filling curve
... NGWF load balancing: max    109;  min    108;  average    108
... Projector load balancing: max     25;  min     21;  average     22
... done
Calculating direct Ion-Ion energy ...
Ion-Ion Energy        :    828227.76505750475917
Basis initialisation ...... NGWF spheres initialised
... Projector spheres initialised
... NGWF tight boxes initialised
... Tight-boxes gathered
... NGWF basis size (local,global):    1031052  62172499
... Nonlocal pseudopotential projector initialisation
... done

========================== Sparse matrix information ===========================
                        Overlap matrix filling:   6.75%
                        Density kernel filling: 100.00%
              NGWF-Proj overlap matrix filling:   1.78%
                    Hamiltonian matrix filling:   7.65%
                  NGWF diagonal matrix filling:   0.05%
                             KS matrix filling: 100.00% 
                           KSKS matrix filling: 100.00% 
================================================================================

Sparse matrix initialisation ... done

Generating smeared ion density ... done
Smeared ion self correction:     -14457.169564
Smeared ion non-self correction: -828179.877941
NGWF initialisation ...... done
============ Calculation of NGWF S^-1 using Hotelling algorithm ================ 
         Iteration  |  Frobenius norm and Maximum abs value    (of I-S*S_n^-1)   
               1       0.78683160E+02     0.98439720E+00
               2       0.76976122E+02     0.96912424E+00
               3       0.74158096E+02     0.93952684E+00
               4       0.70057292E+02     0.88386805E+00
               5       0.64853595E+02     0.78586465E+00
               6       0.58929998E+02     0.71231008E+00
               7       0.52875775E+02     0.67502606E+00
               8       0.47267902E+02     0.64830795E+00
               9       0.41366895E+02     0.61011657E+00
              10       0.33440121E+02     0.54339606E+00
              11       0.23091458E+02     0.43961808E+00
              12       0.12316662E+02     0.29848075E+00
              13       0.43560395E+01     0.14840109E+00
              14       0.77028062E+00     0.42321746E-01
              15       0.43015754E-01     0.42154305E-02
              16       0.33026003E-03     0.51988612E-04
              17       0.46290613E-07     0.98425559E-08
              18       0.10607654E-12     0.54400928E-14
================================================================================
Calculating local pseudopotential in open BC on the fine real space grid ...
... done

MG BCs: +ve charge blocks (gridpoints):     20325 (   16010511).
MG BCs: -ve charge blocks (gridpoints):      8071 (    1085277).
MG BCs:     Elided blocks (gridpoints):    173589 (  173874837).
MG BCs: Computational effort saved:  99.9851%.
MG BCs: Charge after coarse-graining:           -9.0002228.
MG DL_MG: Calling solver with defect correction order = 8
MG DL_MG: Solver finished
MG Hartree energy from (\int phi*rho dr):              1452.426370
MG Hartree energy from (\int eps (grad phi)^2 dr):     1451.806071
MG Discrepancy due to finite box and discretization:     -0.620298 (  -0.04271%)
MG Correction to account for finite box:                  0.466595
MG Remaining discrepancy, due to discretization:         -0.153703 (  -0.01058%)
Up spin density kernel initialisation ... 
======= Optimisation of K by Palser-Manolopoulos canonical purification ======== 
         Iteration  |  Band structure energy |    c_n   
               1       -2580.17781388714729    0.5266515
               2       -2755.95104476631468    0.5170668
               3       -2935.75469462576439    0.5160376
               4       -3085.16630325762526    0.5307592
               5       -3176.18396602983012    0.5683712
               6       -3213.85999605099005    0.6131612
               7       -3226.73318583033506    0.6225300
               8       -3232.44903816987517    0.6187812
               9       -3235.25354888574475    0.6299919
              10       -3236.42370828584035    0.6582927
              11       -3236.86484995734281    0.6909287
              12       -3237.04110451794577    0.7090505
              13       -3237.12458168133162    0.6800983
              14       -3237.17877373707051    0.6128366
              15       -3237.21799506553543    0.5359647
              16       -3237.23925208022683    0.4986374
              17       -3237.24420309847756    0.5427287
              18       -3237.24522331413937    0.5572593
              19       -3237.24579419175825    0.5270464
              20       -3237.24611397849958    0.5055639
              21       -3237.24619217351074    0.5002441
              22       -3237.24619580770059    0.5000013
              23       -3237.24619581503885    0.5000013
Termination criterion satisfied: band energy change below threshold.
Final occupancy bounds: [    0.00000000000000:    1.00000000000000]
Closest occupancy to 0.5:     1.00000000000000
================================================================================
... done

Writing density kernel to file "host_21761.vacuum_dkn" ... done

>>> Optimising kernel for current NGWFs:
   Initial electron number for spin 1:    7192.00000000
     Final electron number for spin 1:    7192.00000000

=================== Penalty functional idempotency correction ==================
 RMS occupancy error at iteration   1:  0.000000 (step -0.5000 Ne1=   7192.0000)
            Final RMS occupancy error   :  0.000000 (Ne1=   7192.0000)
               Final occupancy bounds   : [  0.0000,  1.0000]
================================================================================

................................................................................
<<<<<<<<<<<<<< LNV (Original version) density kernel optimisation >>>>>>>>>>>>>>
~~~~~~~~~~~~~~~~~~~~~~~~~~~~~~~~~~~~~~~~~~~~~~~~~~~~~~~~~~~~~~~~~~~~~~~~~~~~~~~~
   iter  |      energy (Eh)       | rms gradient |  commutator  |   dE (Eh)
MG BCs: +ve charge blocks (gridpoints):     31068 (   17149486).
MG BCs: -ve charge blocks (gridpoints):      8348 (    1113086).
MG BCs:     Elided blocks (gridpoints):    162842 (  172708053).
MG BCs: Computational effort saved:  99.9794%.
MG BCs: Charge after coarse-graining:           -9.0009741.
MG DL_MG: Calling solver with defect correction order = 8
MG DL_MG: Solver finished
MG Hartree energy from (\int phi*rho dr):              1415.471812
MG Hartree energy from (\int eps (grad phi)^2 dr):     1414.802808
MG Discrepancy due to finite box and discretization:     -0.669004 (  -0.04726%)
MG Correction to account for finite box:                  0.472332
MG Remaining discrepancy, due to discretization:         -0.196672 (  -0.01389%)
      ideal mu1:      -0.728532734693
             Q0:  -11525.935272695962
             G0:    -147.099041570601
   RMS gradient:       0.001864479534
MG BCs: +ve charge blocks (gridpoints):     31103 (   17224548).
MG BCs: -ve charge blocks (gridpoints):      8288 (    1096320).
MG BCs:     Elided blocks (gridpoints):    162807 (  172649757).
MG BCs: Computational effort saved:  99.9794%.
MG BCs: Charge after coarse-graining:           -9.0009968.
MG DL_MG: Calling solver with defect correction order = 8
MG DL_MG: Solver finished
MG Hartree energy from (\int phi*rho dr):              1435.106680
MG Hartree energy from (\int eps (grad phi)^2 dr):     1434.455225
MG Discrepancy due to finite box and discretization:     -0.651455 (  -0.04539%)
MG Correction to account for finite box:                  0.471277
MG Remaining discrepancy, due to discretization:         -0.180178 (  -0.01256%)
     Trial step:       0.500000000000
             Q1:  -11537.347837398876
 Quadratic coef:      62.136956082386
 Linear coef   :     -73.549520785301
           Qmin:  -11547.699824537603
Quadratic minimum step length (  0.295916976878) accepted
    Initial Ne1:    7192.00000000
      Final Ne1:    7192.00000000

=================== Penalty functional idempotency correction ==================
 RMS occupancy error at iteration   1:  0.003517 (step -0.4880 Ne1=   7192.0000)
 RMS occupancy error at iteration   2:  0.000026 (step -0.5000 Ne1=   7192.0000)
            Final RMS occupancy error   :  0.000000 (Ne1=   7192.0000)
               Final occupancy bounds   : [  0.0000,  1.0000]
================================================================================

    1        -1.152593527270E+04     1.8645E-03     1.6864E-03
MG BCs: +ve charge blocks (gridpoints):     31092 (   17194536).
MG BCs: -ve charge blocks (gridpoints):      8317 (    1103691).
MG BCs:     Elided blocks (gridpoints):    162818 (  172672398).
MG BCs: Computational effort saved:  99.9794%.
MG BCs: Charge after coarse-graining:           -9.0009880.
MG DL_MG: Calling solver with defect correction order = 8
MG DL_MG: Solver finished
MG Hartree energy from (\int phi*rho dr):              1418.919055
MG Hartree energy from (\int eps (grad phi)^2 dr):     1418.261411
MG Discrepancy due to finite box and discretization:     -0.657644 (  -0.04635%)
MG Correction to account for finite box:                  0.471620
MG Remaining discrepancy, due to discretization:         -0.186024 (  -0.01311%)
      ideal mu1:      -0.766848675154
             Q0:  -11548.144168749917
             G0:     -11.874628964617
   RMS gradient:       0.000525910182
MG BCs: +ve charge blocks (gridpoints):     31092 (   17211002).
MG BCs: -ve charge blocks (gridpoints):      8294 (    1098974).
MG BCs:     Elided blocks (gridpoints):    162818 (  172660649).
MG BCs: Computational effort saved:  99.9794%.
MG BCs: Charge after coarse-graining:           -9.0009921.
MG DL_MG: Calling solver with defect correction order = 8
MG DL_MG: Solver finished
MG Hartree energy from (\int phi*rho dr):              1423.384644
MG Hartree energy from (\int eps (grad phi)^2 dr):     1422.730910
MG Discrepancy due to finite box and discretization:     -0.653734 (  -0.04593%)
MG Correction to account for finite box:                  0.471072
MG Remaining discrepancy, due to discretization:         -0.182662 (  -0.01283%)
     Trial step:       0.384653725368
             Q1:  -11550.962778376881
 Quadratic coef:       1.749010641635
 Linear coef   :      -4.567620268598
           Qmin:  -11551.126305396410
Quadratic minimum step length (  0.502270286571) accepted
    Initial Ne1:    7191.99990961
      Final Ne1:    7192.00000000

=================== Penalty functional idempotency correction ==================
 RMS occupancy error at iteration   1:  0.001862 (step -0.4930 Ne1=   7192.0000)
 RMS occupancy error at iteration   2:  0.000010 (step -0.5001 Ne1=   7192.0000)
            Final RMS occupancy error   :  0.000000 (Ne1=   7192.0000)
               Final occupancy bounds   : [  0.0000,  1.0000]
================================================================================

    2        -1.154814416875E+04     5.2591E-04     4.7567E-04    -2.2209E+01
MG BCs: +ve charge blocks (gridpoints):     31096 (   17215985).
MG BCs: -ve charge blocks (gridpoints):      8289 (    1097641).
MG BCs:     Elided blocks (gridpoints):    162814 (  172656999).
MG BCs: Computational effort saved:  99.9794%.
MG BCs: Charge after coarse-graining:           -9.0009934.
MG DL_MG: Calling solver with defect correction order = 8
MG DL_MG: Solver finished
MG Hartree energy from (\int phi*rho dr):              1424.793836
MG Hartree energy from (\int eps (grad phi)^2 dr):     1424.141215
MG Discrepancy due to finite box and discretization:     -0.652621 (  -0.04580%)
MG Correction to account for finite box:                  0.470915
MG Remaining discrepancy, due to discretization:         -0.181706 (  -0.01275%)
      ideal mu1:      -0.787825521464
             Q0:  -11551.162696549785
             G0:      -1.893114499559
   RMS gradient:       0.000210289083
MG BCs: +ve charge blocks (gridpoints):     31098 (   17215641).
MG BCs: -ve charge blocks (gridpoints):      8292 (    1098366).
MG BCs:     Elided blocks (gridpoints):    162812 (  172656618).
MG BCs: Computational effort saved:  99.9794%.
MG BCs: Charge after coarse-graining:           -9.0009930.
MG DL_MG: Calling solver with defect correction order = 8
MG DL_MG: Solver finished
MG Hartree energy from (\int phi*rho dr):              1423.306534
MG Hartree energy from (\int eps (grad phi)^2 dr):     1422.654275
MG Discrepancy due to finite box and discretization:     -0.652260 (  -0.04583%)
MG Correction to account for finite box:                  0.470707
MG Remaining discrepancy, due to discretization:         -0.181553 (  -0.01276%)
     Trial step:       0.439545375213
             Q1:  -11551.638302874635
 Quadratic coef:       0.356503398179
 Linear coef   :      -0.832109723030
           Qmin:  -11551.648250540782
Quadratic minimum step length (  0.512968434937) accepted
    Initial Ne1:    7191.99996108
      Final Ne1:    7192.00000000

=================== Penalty functional idempotency correction ==================
 RMS occupancy error at iteration   1:  0.000611 (step -0.4976 Ne1=   7192.0000)
 RMS occupancy error at iteration   2:  0.000001 (step -0.5000 Ne1=   7192.0000)
            Final RMS occupancy error   :  0.000000 (Ne1=   7192.0000)
               Final occupancy bounds   : [  0.0000,  1.0000]
================================================================================

    3        -1.155116269655E+04     2.1029E-04     1.9020E-04    -3.0185E+00
MG BCs: +ve charge blocks (gridpoints):     31096 (   17215599).
MG BCs: -ve charge blocks (gridpoints):      8290 (    1098483).
MG BCs:     Elided blocks (gridpoints):    162814 (  172656543).
MG BCs: Computational effort saved:  99.9794%.
MG BCs: Charge after coarse-graining:           -9.0009930.
MG DL_MG: Calling solver with defect correction order = 8
MG DL_MG: Solver finished
MG Hartree energy from (\int phi*rho dr):              1423.065069
MG Hartree energy from (\int eps (grad phi)^2 dr):     1422.412860
MG Discrepancy due to finite box and discretization:     -0.652209 (  -0.04583%)
MG Correction to account for finite box:                  0.470673
MG Remaining discrepancy, due to discretization:         -0.181536 (  -0.01276%)
      ideal mu1:      -0.789087056180
             Q0:  -11551.652984378627
             G0:      -0.475819050717
   RMS gradient:       0.000105457243
MG BCs: +ve charge blocks (gridpoints):     31099 (   17216416).
MG BCs: -ve charge blocks (gridpoints):      8292 (    1098370).
MG BCs:     Elided blocks (gridpoints):    162811 (  172655839).
MG BCs: Computational effort saved:  99.9794%.
MG BCs: Charge after coarse-graining:           -9.0009929.
MG DL_MG: Calling solver with defect correction order = 8
MG DL_MG: Solver finished
MG Hartree energy from (\int phi*rho dr):              1424.021424
MG Hartree energy from (\int eps (grad phi)^2 dr):     1423.369247
MG Discrepancy due to finite box and discretization:     -0.652177 (  -0.04580%)
MG Correction to account for finite box:                  0.470563
MG Remaining discrepancy, due to discretization:         -0.181614 (  -0.01275%)
     Trial step:       0.474839871121
             Q1:  -11551.758437928162
 Quadratic coef:       0.120484307185
 Linear coef   :      -0.225937856720
           Qmin:  -11551.758906710529
Quadratic minimum step length (  0.445221063528) accepted
    Initial Ne1:    7191.99999136
      Final Ne1:    7192.00000000

=================== Penalty functional idempotency correction ==================
 RMS occupancy error at iteration   1:  0.000204 (step -0.4992 Ne1=   7192.0000)
 RMS occupancy error at iteration   2:  0.000000 (step -0.5000 Ne1=   7192.0000)
            Final RMS occupancy error   :  0.000000 (Ne1=   7192.0000)
               Final occupancy bounds   : [  0.0000,  1.0000]
================================================================================

    4        -1.155165298438E+04     1.0546E-04     9.5384E-05    -4.9029E-01
MG BCs: +ve charge blocks (gridpoints):     31099 (   17216387).
MG BCs: -ve charge blocks (gridpoints):      8292 (    1098360).
MG BCs:     Elided blocks (gridpoints):    162811 (  172655878).
MG BCs: Computational effort saved:  99.9794%.
MG BCs: Charge after coarse-graining:           -9.0009929.
MG DL_MG: Calling solver with defect correction order = 8
MG DL_MG: Solver finished
MG Hartree energy from (\int phi*rho dr):              1423.961587
MG Hartree energy from (\int eps (grad phi)^2 dr):     1423.309409
MG Discrepancy due to finite box and discretization:     -0.652178 (  -0.04580%)
MG Correction to account for finite box:                  0.470570
MG Remaining discrepancy, due to discretization:         -0.181608 (  -0.01275%)
      ideal mu1:      -0.789143739551
             Q0:  -11551.759428637219
             G0:      -0.109431376602
   RMS gradient:       0.000050736321
MG BCs: +ve charge blocks (gridpoints):     31099 (   17216593).
MG BCs: -ve charge blocks (gridpoints):      8290 (    1098218).
MG BCs:     Elided blocks (gridpoints):    162811 (  172655814).
MG BCs: Computational effort saved:  99.9794%.
MG BCs: Charge after coarse-graining:           -9.0009929.
MG DL_MG: Calling solver with defect correction order = 8
MG DL_MG: Solver finished
MG Hartree energy from (\int phi*rho dr):              1424.372002
MG Hartree energy from (\int eps (grad phi)^2 dr):     1423.719685
MG Discrepancy due to finite box and discretization:     -0.652317 (  -0.04580%)
MG Correction to account for finite box:                  0.470563
MG Remaining discrepancy, due to discretization:         -0.181755 (  -0.01276%)
     Trial step:       0.459792031712
             Q1:  -11551.786401645048
 Quadratic coef:       0.023342667153
 Linear coef   :      -0.050315674981
           Qmin:  -11551.786542796155
Quadratic minimum step length (  0.495546337420) accepted
    Initial Ne1:    7191.99999777
      Final Ne1:    7192.00000000

=================== Penalty functional idempotency correction ==================
 RMS occupancy error at iteration   1:  0.000070 (step -0.4997 Ne1=   7192.0000)
            Final RMS occupancy error   :  0.000000 (Ne1=   7192.0000)
               Final occupancy bounds   : [ -0.0000,  1.0000]
================================================================================

    5        -1.155175942864E+04     5.0736E-05     4.5890E-05    -1.0644E-01
MG BCs: +ve charge blocks (gridpoints):     31099 (   17216647).
MG BCs: -ve charge blocks (gridpoints):      8290 (    1098186).
MG BCs:     Elided blocks (gridpoints):    162811 (  172655792).
MG BCs: Computational effort saved:  99.9794%.
MG BCs: Charge after coarse-graining:           -9.0009929.
MG DL_MG: Calling solver with defect correction order = 8
MG DL_MG: Solver finished
MG Hartree energy from (\int phi*rho dr):              1424.403937
MG Hartree energy from (\int eps (grad phi)^2 dr):     1423.751609
MG Discrepancy due to finite box and discretization:     -0.652328 (  -0.04580%)
MG Correction to account for finite box:                  0.470562
MG Remaining discrepancy, due to discretization:         -0.181766 (  -0.01276%)
      ideal mu1:      -0.789099372435
             Q0:  -11551.786600983934
             G0:      -0.030498719781
   RMS gradient:       0.000026809774
MG BCs: +ve charge blocks (gridpoints):     31098 (   17216269).
MG BCs: -ve charge blocks (gridpoints):      8290 (    1098372).
MG BCs:     Elided blocks (gridpoints):    162812 (  172655984).
MG BCs: Computational effort saved:  99.9794%.
MG BCs: Charge after coarse-graining:           -9.0009927.
MG DL_MG: Calling solver with defect correction order = 8
MG DL_MG: Solver finished
MG Hartree energy from (\int phi*rho dr):              1423.770518
MG Hartree energy from (\int eps (grad phi)^2 dr):     1423.118190
MG Discrepancy due to finite box and discretization:     -0.652328 (  -0.04582%)
MG Correction to account for finite box:                  0.470560
MG Remaining discrepancy, due to discretization:         -0.181768 (  -0.01277%)
     Trial step:       0.477334533938
             Q1:  -11551.795958906761
 Quadratic coef:       0.005200169366
 Linear coef   :      -0.014558092192
           Qmin:  -11551.796789981319
Quadratic minimum step length (  0.668159021653) accepted
    Initial Ne1:    7192.00033232
      Final Ne1:    7192.00000000

=================== Penalty functional idempotency correction ==================
 RMS occupancy error at iteration   1:  0.000036 (step -0.4998 Ne1=   7192.0000)
            Final RMS occupancy error   :  0.000000 (Ne1=   7192.0000)
               Final occupancy bounds   : [ -0.0000,  1.0000]
================================================================================

    6        -1.155178660098E+04     2.6810E-05     2.4249E-05    -2.7172E-02
MG BCs: +ve charge blocks (gridpoints):     31098 (   17216120).
MG BCs: -ve charge blocks (gridpoints):      8291 (    1098449).
MG BCs:     Elided blocks (gridpoints):    162812 (  172656056).
MG BCs: Computational effort saved:  99.9794%.
MG BCs: Charge after coarse-graining:           -9.0009927.
MG DL_MG: Calling solver with defect correction order = 8
MG DL_MG: Solver finished
MG Hartree energy from (\int phi*rho dr):              1423.516760
MG Hartree energy from (\int eps (grad phi)^2 dr):     1422.864432
MG Discrepancy due to finite box and discretization:     -0.652328 (  -0.04583%)
MG Correction to account for finite box:                  0.470560
MG Remaining discrepancy, due to discretization:         -0.181768 (  -0.01277%)
      ideal mu1:      -0.788811852001
             Q0:  -11551.796799817123
             G0:      -0.015102057321
   RMS gradient:       0.000018891688
MG BCs: +ve charge blocks (gridpoints):     31098 (   17216503).
MG BCs: -ve charge blocks (gridpoints):      8290 (    1098236).
MG BCs:     Elided blocks (gridpoints):    162812 (  172655886).
MG BCs: Computational effort saved:  99.9794%.
MG BCs: Charge after coarse-graining:           -9.0009928.
MG DL_MG: Calling solver with defect correction order = 8
MG DL_MG: Solver finished
MG Hartree energy from (\int phi*rho dr):              1424.060038
MG Hartree energy from (\int eps (grad phi)^2 dr):     1423.407748
MG Discrepancy due to finite box and discretization:     -0.652290 (  -0.04580%)
MG Correction to account for finite box:                  0.470547
MG Remaining discrepancy, due to discretization:         -0.181743 (  -0.01276%)
     Trial step:       0.564743636703
             Q1:  -11551.800470450893
 Quadratic coef:       0.004858157003
 Linear coef   :      -0.008528790773
           Qmin:  -11551.800543020152
Quadratic minimum step length (  0.495720940608) accepted
    Initial Ne1:    7192.00010944
      Final Ne1:    7192.00000000

=================== Penalty functional idempotency correction ==================
 RMS occupancy error at iteration   1:  0.000002 (step -0.5000 Ne1=   7192.0000)
            Final RMS occupancy error   :  0.000000 (Ne1=   7192.0000)
               Final occupancy bounds   : [  0.0000,  1.0000]
================================================================================

    7        -1.155179679982E+04     1.8892E-05     1.7087E-05    -1.0199E-02
MG BCs: +ve charge blocks (gridpoints):     31098 (   17216431).
MG BCs: -ve charge blocks (gridpoints):      8290 (    1098288).
MG BCs:     Elided blocks (gridpoints):    162812 (  172655906).
MG BCs: Computational effort saved:  99.9794%.
MG BCs: Charge after coarse-graining:           -9.0009928.
MG DL_MG: Calling solver with defect correction order = 8
MG DL_MG: Solver finished
MG Hartree energy from (\int phi*rho dr):              1423.993528
MG Hartree energy from (\int eps (grad phi)^2 dr):     1423.341233
MG Discrepancy due to finite box and discretization:     -0.652295 (  -0.04581%)
MG Correction to account for finite box:                  0.470549
MG Remaining discrepancy, due to discretization:         -0.181746 (  -0.01276%)
      ideal mu1:      -0.789096586145
             Q0:  -11551.800543228281
             G0:      -0.008592147155
   RMS gradient:       0.000014250276
MG BCs: +ve charge blocks (gridpoints):     31098 (   17216547).
MG BCs: -ve charge blocks (gridpoints):      8290 (    1098235).
MG BCs:     Elided blocks (gridpoints):    162812 (  172655843).
MG BCs: Computational effort saved:  99.9794%.
MG BCs: Charge after coarse-graining:           -9.0009928.
MG DL_MG: Calling solver with defect correction order = 8
MG DL_MG: Solver finished
MG Hartree energy from (\int phi*rho dr):              1424.084136
MG Hartree energy from (\int eps (grad phi)^2 dr):     1423.431876
MG Discrepancy due to finite box and discretization:     -0.652260 (  -0.04580%)
MG Correction to account for finite box:                  0.470537
MG Remaining discrepancy, due to discretization:         -0.181723 (  -0.01276%)
     Trial step:       0.529107972713
             Q1:  -11551.803909471724
 Quadratic coef:       0.001179930119
 Linear coef   :      -0.004546173562
           Qmin:  -11551.804922236352
Quadratic minimum step length (  1.019304719010) accepted
    Initial Ne1:    7192.00012711
      Final Ne1:    7192.00000000

=================== Penalty functional idempotency correction ==================
 RMS occupancy error at iteration   1:  0.000022 (step -0.4994 Ne1=   7192.0000)
            Final RMS occupancy error   :  0.000000 (Ne1=   7192.0000)
               Final occupancy bounds   : [ -0.0000,  1.0000]
================================================================================

    8        -1.155180054323E+04     1.4250E-05     1.2889E-05    -3.7434E-03
MG BCs: +ve charge blocks (gridpoints):     31097 (   17216666).
MG BCs: -ve charge blocks (gridpoints):      8290 (    1098189).
MG BCs:     Elided blocks (gridpoints):    162813 (  172655770).
MG BCs: Computational effort saved:  99.9794%.
MG BCs: Charge after coarse-graining:           -9.0009929.
MG DL_MG: Calling solver with defect correction order = 8
MG DL_MG: Solver finished
MG Hartree energy from (\int phi*rho dr):              1424.166636
MG Hartree energy from (\int eps (grad phi)^2 dr):     1423.514409
MG Discrepancy due to finite box and discretization:     -0.652227 (  -0.04580%)
MG Correction to account for finite box:                  0.470525
MG Remaining discrepancy, due to discretization:         -0.181701 (  -0.01276%)
      ideal mu1:      -0.789245336465
             Q0:  -11551.804914188688
             G0:      -0.012249514603
   RMS gradient:       0.000017044959
MG BCs: +ve charge blocks (gridpoints):     31097 (   17216523).
MG BCs: -ve charge blocks (gridpoints):      8290 (    1098319).
MG BCs:     Elided blocks (gridpoints):    162813 (  172655783).
MG BCs: Computational effort saved:  99.9794%.
MG BCs: Charge after coarse-graining:           -9.0009928.
MG DL_MG: Calling solver with defect correction order = 8
MG DL_MG: Solver finished
MG Hartree energy from (\int phi*rho dr):              1423.845691
MG Hartree energy from (\int eps (grad phi)^2 dr):     1423.193532
MG Discrepancy due to finite box and discretization:     -0.652159 (  -0.04580%)
MG Correction to account for finite box:                  0.470497
MG Remaining discrepancy, due to discretization:         -0.181662 (  -0.01276%)
     Trial step:       0.734385629933
             Q1:  -11551.810562817031
 Quadratic coef:       0.003347239155
 Linear coef   :      -0.008995867498
           Qmin:  -11551.810958396189
Quadratic minimum step length (  0.986848491124) accepted
    Initial Ne1:    7192.00035066
      Final Ne1:    7192.00000000

=================== Penalty functional idempotency correction ==================
 RMS occupancy error at iteration   1:  0.000122 (step -0.4962 Ne1=   7192.0000)
 RMS occupancy error at iteration   2:  0.000000 (step -0.5000 Ne1=   7192.0000)
            Final RMS occupancy error   :  0.000000 (Ne1=   7192.0000)
               Final occupancy bounds   : [  0.0000,  1.0000]
================================================================================

    9        -1.155180491419E+04     1.7045E-05     1.5417E-05    -4.3710E-03
MG BCs: +ve charge blocks (gridpoints):     31097 (   17216443).
MG BCs: -ve charge blocks (gridpoints):      8290 (    1098367).
MG BCs:     Elided blocks (gridpoints):    162813 (  172655815).
MG BCs: Computational effort saved:  99.9794%.
MG BCs: Charge after coarse-graining:           -9.0009928.
MG DL_MG: Calling solver with defect correction order = 8
MG DL_MG: Solver finished
MG Hartree energy from (\int phi*rho dr):              1423.732691
MG Hartree energy from (\int eps (grad phi)^2 dr):     1423.080558
MG Discrepancy due to finite box and discretization:     -0.652133 (  -0.04580%)
MG Correction to account for finite box:                  0.470485
MG Remaining discrepancy, due to discretization:         -0.181647 (  -0.01276%)
      ideal mu1:      -0.788805724348
   10        -1.155181091416E+04     1.9608E-05     1.7735E-05    -6.0000E-03
Finished density kernel iterations (  10)

Writing density kernel to file "host_21761.vacuum_dkn" ... done


>>> Density kernel optimised for the current NGWF basis:
     ~~~~~~~~~~~~~~~~~~~~~~~~~~~~~~~~~~~~~~~~~~~~~~~~~~~~~~~~~~~
     Total energy                =  -1.15518109141605E+04  Eh
     Estimated bandgap           =  -2.5723E-01  Eh
     RMS occupancy error         =   4.1434E-12
     [H,K] commutator            =   1.7735E-05
     Occupancy bounds            = [  0.000:  1.000]
     ~~~~~~~~~~~~~~~~~~~~~~~~~~~~~~~~~~~~~~~~~~~~~~~~~~~~~~~~~~~




################################################################################
########################### NGWF CG iteration  001 #############################
################################################################################
****** Reciprocal space K.E. preconditioning with k_zero =  3.5000 a0^-1 *******

>>> Checking for convergence of NGWFs:   NOT CONVERGED
  ========================================================================
         NGWF RMS gradient =  1.5979E-03 >  2.0000E-06  | above tolerance
  ========================================================================

>>> Improving NGWFs using line search:
============ Calculation of NGWF S^-1 using Hotelling algorithm ================ 
         Iteration  |  Frobenius norm and Maximum abs value    (of I-S*S_n^-1)   
               1       0.19818715E+00     0.52576631E-02
               2       0.89998067E-03     0.42082122E-04
               3       0.31539077E-07     0.26751074E-08
               4       0.12446900E-12     0.62172489E-14
================================================================================
MG BCs: +ve charge blocks (gridpoints):     30594 (   17158133).
MG BCs: -ve charge blocks (gridpoints):      8303 (    1097955).
MG BCs:     Elided blocks (gridpoints):    163318 (  172714537).
MG BCs: Computational effort saved:  99.9796%.
MG BCs: Charge after coarse-graining:           -9.0009934.
MG DL_MG: Calling solver with defect correction order = 8
MG DL_MG: Solver finished
MG Hartree energy from (\int phi*rho dr):              1391.714499
MG Hartree energy from (\int eps (grad phi)^2 dr):     1391.063221
MG Discrepancy due to finite box and discretization:     -0.651278 (  -0.04680%)
MG Correction to account for finite box:                  0.470438
MG Remaining discrepancy, due to discretization:         -0.180840 (  -0.01299%)
============ Calculation of NGWF S^-1 using Hotelling algorithm ================ 
         Iteration  |  Frobenius norm and Maximum abs value    (of I-S*S_n^-1)   
               1       0.18699191E+01     0.42672592E-01
               2       0.72464721E-01     0.25012582E-02
               3       0.14625265E-03     0.95259626E-05
               4       0.11933787E-08     0.17067841E-09
               5       0.10954949E-12     0.53290705E-14
================================================================================
------------------------------- NGWF line search -------------------------------
RMS gradient                =       0.00159793394347
Trial step length           =               0.122474
Gradient along search dir.  =       -278.85455374402
Functional at step 0        =  -11551.81091416045092
Functional at step 1        =  -11583.35842206282541
Functional predicted        =  -11663.74669339172578
Selected quadratic step     =               0.802826
--------------------------- NGWF line search finished --------------------------
                                               
Writing NGWFs to file "host_21761.vacuum_tightbox_ngwfs"....  done

>>> Optimising kernel for current NGWFs:
   Initial electron number for spin 1:    7227.70041324
     Final electron number for spin 1:    7192.00000000

=================== Penalty functional idempotency correction ==================
 RMS occupancy error at iteration   1:  0.004312 (step -0.4861 Ne1=   7192.0000)
 RMS occupancy error at iteration   2:  0.000069 (step -0.5002 Ne1=   7192.0000)
            Final RMS occupancy error   :  0.000000 (Ne1=   7192.0000)
               Final occupancy bounds   : [  0.0000,  1.0000]
================================================================================

................................................................................
<<<<<<<<<<<<<< LNV (Original version) density kernel optimisation >>>>>>>>>>>>>>
~~~~~~~~~~~~~~~~~~~~~~~~~~~~~~~~~~~~~~~~~~~~~~~~~~~~~~~~~~~~~~~~~~~~~~~~~~~~~~~~
   iter  |      energy (Eh)       | rms gradient |  commutator  |   dE (Eh)
MG BCs: +ve charge blocks (gridpoints):     24584 (   16882545).
MG BCs: -ve charge blocks (gridpoints):      8453 (    1080128).
MG BCs:     Elided blocks (gridpoints):    169330 (  173007952).
MG BCs: Computational effort saved:  99.9827%.
MG BCs: Charge after coarse-graining:           -9.0006707.
MG DL_MG: Calling solver with defect correction order = 8
MG DL_MG: Solver finished
MG Hartree energy from (\int phi*rho dr):              1236.681266
MG Hartree energy from (\int eps (grad phi)^2 dr):     1236.030227
MG Discrepancy due to finite box and discretization:     -0.651039 (  -0.05264%)
MG Correction to account for finite box:                  0.470211
MG Remaining discrepancy, due to discretization:         -0.180828 (  -0.01462%)
      ideal mu1:      -0.727528995210
             Q0:  -11662.789060586481
             G0:      -9.783100642845
   RMS gradient:       0.000480829339
MG BCs: +ve charge blocks (gridpoints):     24660 (   16910400).
MG BCs: -ve charge blocks (gridpoints):      8434 (    1072276).
MG BCs:     Elided blocks (gridpoints):    169254 (  172987949).
MG BCs: Computational effort saved:  99.9827%.
MG BCs: Charge after coarse-graining:           -9.0006639.
MG DL_MG: Calling solver with defect correction order = 8
MG DL_MG: Solver finished
MG Hartree energy from (\int phi*rho dr):              1261.419703
MG Hartree energy from (\int eps (grad phi)^2 dr):     1260.762070
MG Discrepancy due to finite box and discretization:     -0.657633 (  -0.05213%)
MG Correction to account for finite box:                  0.470050
MG Remaining discrepancy, due to discretization:         -0.187583 (  -0.01487%)
     Trial step:       0.851309198119
             Q1:  -11660.424142863252
 Quadratic coef:      10.693361286611
 Linear coef   :      -8.328443563381
           Qmin:  -11664.410696906654
Quadratic minimum step length (  0.331517865220) accepted
    Initial Ne1:    7191.99960541
      Final Ne1:    7192.00000000

=================== Penalty functional idempotency correction ==================
 RMS occupancy error at iteration   1:  0.000357 (step -0.4986 Ne1=   7192.0000)
 RMS occupancy error at iteration   2:  0.000000 (step -0.5000 Ne1=   7192.0000)
            Final RMS occupancy error   :  0.000000 (Ne1=   7192.0000)
               Final occupancy bounds   : [  0.0000,  1.0000]
================================================================================

    1        -1.166278906059E+04     4.8083E-04     4.3490E-04
MG BCs: +ve charge blocks (gridpoints):     24620 (   16893753).
MG BCs: -ve charge blocks (gridpoints):      8444 (    1076938).
MG BCs:     Elided blocks (gridpoints):    169294 (  172999934).
MG BCs: Computational effort saved:  99.9827%.
MG BCs: Charge after coarse-graining:           -9.0006679.
MG DL_MG: Calling solver with defect correction order = 8
MG DL_MG: Solver finished
MG Hartree energy from (\int phi*rho dr):              1245.042422
MG Hartree energy from (\int eps (grad phi)^2 dr):     1244.388935
MG Discrepancy due to finite box and discretization:     -0.653487 (  -0.05249%)
MG Correction to account for finite box:                  0.470130
MG Remaining discrepancy, due to discretization:         -0.183357 (  -0.01473%)
      ideal mu1:      -0.735529939517
             Q0:  -11664.375126386527
             G0:      -0.990303358187
   RMS gradient:       0.000154135692
MG BCs: +ve charge blocks (gridpoints):     24623 (   16894677).
MG BCs: -ve charge blocks (gridpoints):      8444 (    1077469).
MG BCs:     Elided blocks (gridpoints):    169291 (  172998479).
MG BCs: Computational effort saved:  99.9827%.
MG BCs: Charge after coarse-graining:           -9.0006674.
MG DL_MG: Calling solver with defect correction order = 8
MG DL_MG: Solver finished
MG Hartree energy from (\int phi*rho dr):              1246.862335
MG Hartree energy from (\int eps (grad phi)^2 dr):     1246.208544
MG Discrepancy due to finite box and discretization:     -0.653791 (  -0.05243%)
MG Correction to account for finite box:                  0.470134
MG Remaining discrepancy, due to discretization:         -0.183657 (  -0.01473%)
     Trial step:       0.531247783998
             Q1:  -11664.574304502923
 Quadratic coef:       0.326918348126
 Linear coef   :      -0.526096464522
           Qmin:  -11664.586782822736
Quadratic minimum step length (  0.427457777376) accepted
    Initial Ne1:    7191.99994771
      Final Ne1:    7192.00000000

=================== Penalty functional idempotency correction ==================
 RMS occupancy error at iteration   1:  0.000145 (step -0.4994 Ne1=   7192.0000)
            Final RMS occupancy error   :  0.000000 (Ne1=   7192.0000)
               Final occupancy bounds   : [ -0.0000,  1.0000]
================================================================================

    2        -1.166437512639E+04     1.5414E-04     1.3941E-04    -1.5861E+00
MG BCs: +ve charge blocks (gridpoints):     24623 (   16894498).
MG BCs: -ve charge blocks (gridpoints):      8448 (    1077362).
MG BCs:     Elided blocks (gridpoints):    169291 (  172998765).
MG BCs: Computational effort saved:  99.9827%.
MG BCs: Charge after coarse-graining:           -9.0006675.
MG DL_MG: Calling solver with defect correction order = 8
MG DL_MG: Solver finished
MG Hartree energy from (\int phi*rho dr):              1246.506118
MG Hartree energy from (\int eps (grad phi)^2 dr):     1245.852389
MG Discrepancy due to finite box and discretization:     -0.653729 (  -0.05244%)
MG Correction to account for finite box:                  0.470133
MG Remaining discrepancy, due to discretization:         -0.183596 (  -0.01473%)
      ideal mu1:      -0.736842303669
             Q0:  -11664.587274122634
             G0:      -0.155499557496
   RMS gradient:       0.000060553027
MG BCs: +ve charge blocks (gridpoints):     24622 (   16893566).
MG BCs: -ve charge blocks (gridpoints):      8446 (    1077892).
MG BCs:     Elided blocks (gridpoints):    169292 (  172999167).
MG BCs: Computational effort saved:  99.9827%.
MG BCs: Charge after coarse-graining:           -9.0006676.
MG DL_MG: Calling solver with defect correction order = 8
MG DL_MG: Solver finished
MG Hartree energy from (\int phi*rho dr):              1245.877400
MG Hartree energy from (\int eps (grad phi)^2 dr):     1245.223716
MG Discrepancy due to finite box and discretization:     -0.653684 (  -0.05247%)
MG Correction to account for finite box:                  0.470126
MG Remaining discrepancy, due to discretization:         -0.183558 (  -0.01473%)
     Trial step:       0.476535409999
             Q1:  -11664.635158717516
 Quadratic coef:       0.026216450504
 Linear coef   :      -0.074101045386
           Qmin:  -11664.639635949099
Quadratic minimum step length (  0.673465922462) accepted
    Initial Ne1:    7192.00065032
      Final Ne1:    7192.00000000

=================== Penalty functional idempotency correction ==================
 RMS occupancy error at iteration   1:  0.000068 (step -0.4997 Ne1=   7192.0000)
            Final RMS occupancy error   :  0.000000 (Ne1=   7192.0000)
               Final occupancy bounds   : [ -0.0000,  1.0000]
================================================================================

    3        -1.166458727412E+04     6.0553E-05     5.4769E-05    -2.1215E-01
MG BCs: +ve charge blocks (gridpoints):     24622 (   16893177).
MG BCs: -ve charge blocks (gridpoints):      8447 (    1078115).
MG BCs:     Elided blocks (gridpoints):    169292 (  172999333).
MG BCs: Computational effort saved:  99.9827%.
MG BCs: Charge after coarse-graining:           -9.0006676.
MG DL_MG: Calling solver with defect correction order = 8
MG DL_MG: Solver finished
MG Hartree energy from (\int phi*rho dr):              1245.617495
MG Hartree energy from (\int eps (grad phi)^2 dr):     1244.963829
MG Discrepancy due to finite box and discretization:     -0.653666 (  -0.05248%)
MG Correction to account for finite box:                  0.470123
MG Remaining discrepancy, due to discretization:         -0.183543 (  -0.01474%)
      ideal mu1:      -0.735713292880
             Q0:  -11664.639739312464
             G0:      -0.036583766791
   RMS gradient:       0.000029357738
MG BCs: +ve charge blocks (gridpoints):     24619 (   16893239).
MG BCs: -ve charge blocks (gridpoints):      8450 (    1078058).
MG BCs:     Elided blocks (gridpoints):    169295 (  172999328).
MG BCs: Computational effort saved:  99.9827%.
MG BCs: Charge after coarse-graining:           -9.0006676.
MG DL_MG: Calling solver with defect correction order = 8
MG DL_MG: Solver finished
MG Hartree energy from (\int phi*rho dr):              1245.741863
MG Hartree energy from (\int eps (grad phi)^2 dr):     1245.088305
MG Discrepancy due to finite box and discretization:     -0.653558 (  -0.05246%)
MG Correction to account for finite box:                  0.470125
MG Remaining discrepancy, due to discretization:         -0.183434 (  -0.01472%)
     Trial step:       0.566507157485
             Q1:  -11664.648855675361
 Quadratic coef:       0.011608602837
 Linear coef   :      -0.020724965735
           Qmin:  -11664.648989439520
Quadratic minimum step length (  0.505695715139) accepted
    Initial Ne1:    7192.00025129
      Final Ne1:    7192.00000000

=================== Penalty functional idempotency correction ==================
 RMS occupancy error at iteration   1:  0.000019 (step -0.4999 Ne1=   7192.0000)
            Final RMS occupancy error   :  0.000000 (Ne1=   7192.0000)
               Final occupancy bounds   : [ -0.0000,  1.0000]
================================================================================

    4        -1.166463973931E+04     2.9358E-05     2.6553E-05    -5.2465E-02
MG BCs: +ve charge blocks (gridpoints):     24620 (   16893222).
MG BCs: -ve charge blocks (gridpoints):      8450 (    1078073).
MG BCs:     Elided blocks (gridpoints):    169294 (  172999330).
MG BCs: Computational effort saved:  99.9827%.
MG BCs: Charge after coarse-graining:           -9.0006676.
MG DL_MG: Calling solver with defect correction order = 8
MG DL_MG: Solver finished
MG Hartree energy from (\int phi*rho dr):              1245.728330
MG Hartree energy from (\int eps (grad phi)^2 dr):     1245.074761
MG Discrepancy due to finite box and discretization:     -0.653570 (  -0.05246%)
MG Correction to account for finite box:                  0.470124
MG Remaining discrepancy, due to discretization:         -0.183445 (  -0.01473%)
      ideal mu1:      -0.735792542020
             Q0:  -11664.648994929623
             G0:      -0.012462518673
   RMS gradient:       0.000017157641
MG BCs: +ve charge blocks (gridpoints):     24620 (   16893723).
MG BCs: -ve charge blocks (gridpoints):      8448 (    1077894).
MG BCs:     Elided blocks (gridpoints):    169294 (  172999008).
MG BCs: Computational effort saved:  99.9827%.
MG BCs: Charge after coarse-graining:           -9.0006675.
MG DL_MG: Calling solver with defect correction order = 8
MG DL_MG: Solver finished
MG Hartree energy from (\int phi*rho dr):              1246.138478
MG Hartree energy from (\int eps (grad phi)^2 dr):     1245.484956
MG Discrepancy due to finite box and discretization:     -0.653523 (  -0.05244%)
MG Correction to account for finite box:                  0.470113
MG Remaining discrepancy, due to discretization:         -0.183410 (  -0.01472%)
     Trial step:       0.535238490895
             Q1:  -11664.652447344619
 Quadratic coef:       0.003218004691
 Linear coef   :      -0.006670419687
           Qmin:  -11664.652451613429
Quadratic minimum step length (  0.554732778534) accepted
    Initial Ne1:    7192.00011131
      Final Ne1:    7192.00000000

=================== Penalty functional idempotency correction ==================
 RMS occupancy error at iteration   1:  0.000011 (step -0.4999 Ne1=   7192.0000)
            Final RMS occupancy error   :  0.000000 (Ne1=   7192.0000)
               Final occupancy bounds   : [ -0.0000,  1.0000]
================================================================================

    5        -1.166464899493E+04     1.7158E-05     1.5519E-05    -9.2556E-03
MG BCs: +ve charge blocks (gridpoints):     24620 (   16893743).
MG BCs: -ve charge blocks (gridpoints):      8448 (    1077886).
MG BCs:     Elided blocks (gridpoints):    169294 (  172998996).
MG BCs: Computational effort saved:  99.9827%.
MG BCs: Charge after coarse-graining:           -9.0006675.
MG DL_MG: Calling solver with defect correction order = 8
MG DL_MG: Solver finished
MG Hartree energy from (\int phi*rho dr):              1246.153433
MG Hartree energy from (\int eps (grad phi)^2 dr):     1245.499912
MG Discrepancy due to finite box and discretization:     -0.653521 (  -0.05244%)
MG Correction to account for finite box:                  0.470112
MG Remaining discrepancy, due to discretization:         -0.183409 (  -0.01472%)
      ideal mu1:      -0.736140063916
             Q0:  -11664.652452861075
             G0:      -0.004142601220
   RMS gradient:       0.000009892441
MG BCs: +ve charge blocks (gridpoints):     24620 (   16893646).
MG BCs: -ve charge blocks (gridpoints):      8448 (    1077965).
MG BCs:     Elided blocks (gridpoints):    169294 (  172999014).
MG BCs: Computational effort saved:  99.9827%.
MG BCs: Charge after coarse-graining:           -9.0006675.
MG DL_MG: Calling solver with defect correction order = 8
MG DL_MG: Solver finished
MG Hartree energy from (\int phi*rho dr):              1246.086031
MG Hartree energy from (\int eps (grad phi)^2 dr):     1245.432524
MG Discrepancy due to finite box and discretization:     -0.653507 (  -0.05244%)
MG Correction to account for finite box:                  0.470102
MG Remaining discrepancy, due to discretization:         -0.183405 (  -0.01472%)
     Trial step:       0.544898463232
             Q1:  -11664.653910659137
 Quadratic coef:       0.000799498977
 Linear coef   :      -0.002257297038
           Qmin:  -11664.654046168280
Quadratic minimum step length (  0.769230306828) accepted
    Initial Ne1:    7192.00007179
      Final Ne1:    7192.00000000

=================== Penalty functional idempotency correction ==================
 RMS occupancy error at iteration   1:  0.000009 (step -0.4998 Ne1=   7192.0000)
            Final RMS occupancy error   :  0.000000 (Ne1=   7192.0000)
               Final occupancy bounds   : [ -0.0000,  1.0000]
================================================================================

    6        -1.166465245286E+04     9.8924E-06     8.9475E-06    -3.4579E-03
MG BCs: +ve charge blocks (gridpoints):     24620 (   16893636).
MG BCs: -ve charge blocks (gridpoints):      8448 (    1077976).
MG BCs:     Elided blocks (gridpoints):    169294 (  172999013).
MG BCs: Computational effort saved:  99.9827%.
MG BCs: Charge after coarse-graining:           -9.0006675.
MG DL_MG: Calling solver with defect correction order = 8
MG DL_MG: Solver finished
MG Hartree energy from (\int phi*rho dr):              1246.058211
MG Hartree energy from (\int eps (grad phi)^2 dr):     1245.404709
MG Discrepancy due to finite box and discretization:     -0.653501 (  -0.05245%)
MG Correction to account for finite box:                  0.470097
MG Remaining discrepancy, due to discretization:         -0.183404 (  -0.01472%)
      ideal mu1:      -0.736060595259
             Q0:  -11664.654045872041
             G0:      -0.002869743102
   RMS gradient:       0.000008235201
MG BCs: +ve charge blocks (gridpoints):     24620 (   16893456).
MG BCs: -ve charge blocks (gridpoints):      8449 (    1078005).
MG BCs:     Elided blocks (gridpoints):    169294 (  172999164).
MG BCs: Computational effort saved:  99.9827%.
MG BCs: Charge after coarse-graining:           -9.0006675.
MG DL_MG: Calling solver with defect correction order = 8
MG DL_MG: Solver finished
MG Hartree energy from (\int phi*rho dr):              1245.979656
MG Hartree energy from (\int eps (grad phi)^2 dr):     1245.326146
MG Discrepancy due to finite box and discretization:     -0.653510 (  -0.05245%)
MG Correction to account for finite box:                  0.470098
MG Remaining discrepancy, due to discretization:         -0.183412 (  -0.01472%)
     Trial step:       0.647419811299
             Q1:  -11664.654660283122
 Quadratic coef:       0.001243517456
 Linear coef   :      -0.001857928538
           Qmin:  -11664.654739850730
Quadratic minimum step length (  0.483652134424) accepted
    Initial Ne1:    7192.00004034
      Final Ne1:    7192.00000000

=================== Penalty functional idempotency correction ==================
 RMS occupancy error at iteration   1:  0.000001 (step -0.5000 Ne1=   7192.0000)
            Final RMS occupancy error   :  0.000000 (Ne1=   7192.0000)
               Final occupancy bounds   : [  0.0000,  1.0000]
================================================================================

    7        -1.166465404587E+04     8.2352E-06     7.4486E-06    -1.5930E-03
MG BCs: +ve charge blocks (gridpoints):     24620 (   16893496).
MG BCs: -ve charge blocks (gridpoints):      8449 (    1077998).
MG BCs:     Elided blocks (gridpoints):    169294 (  172999131).
MG BCs: Computational effort saved:  99.9827%.
MG BCs: Charge after coarse-graining:           -9.0006675.
MG DL_MG: Calling solver with defect correction order = 8
MG DL_MG: Solver finished
MG Hartree energy from (\int phi*rho dr):              1245.999458
MG Hartree energy from (\int eps (grad phi)^2 dr):     1245.345950
MG Discrepancy due to finite box and discretization:     -0.653508 (  -0.05245%)
MG Correction to account for finite box:                  0.470098
MG Remaining discrepancy, due to discretization:         -0.183410 (  -0.01472%)
      ideal mu1:      -0.735952357230
             Q0:  -11664.654739815160
             G0:      -0.001923316868
   RMS gradient:       0.000006741631
MG BCs: +ve charge blocks (gridpoints):     24620 (   16893475).
MG BCs: -ve charge blocks (gridpoints):      8449 (    1077997).
MG BCs:     Elided blocks (gridpoints):    169294 (  172999153).
MG BCs: Computational effort saved:  99.9827%.
MG BCs: Charge after coarse-graining:           -9.0006675.
MG DL_MG: Calling solver with defect correction order = 8
MG DL_MG: Solver finished
MG Hartree energy from (\int phi*rho dr):              1245.959739
MG Hartree energy from (\int eps (grad phi)^2 dr):     1245.306229
MG Discrepancy due to finite box and discretization:     -0.653511 (  -0.05245%)
MG Correction to account for finite box:                  0.470093
MG Remaining discrepancy, due to discretization:         -0.183417 (  -0.01472%)
     Trial step:       0.559576602087
             Q1:  -11664.655604148633
 Quadratic coef:       0.000211909644
 Linear coef   :      -0.001076243118
           Qmin:  -11664.656106316495
Quadratic minimum step length (  1.420984091340) accepted
    Initial Ne1:    7192.00007919
      Final Ne1:    7192.00000000

=================== Penalty functional idempotency correction ==================
 RMS occupancy error at iteration   1:  0.000022 (step -0.4988 Ne1=   7192.0000)
            Final RMS occupancy error   :  0.000000 (Ne1=   7192.0000)
               Final occupancy bounds   : [ -0.0000,  1.0000]
================================================================================

    8        -1.166465473982E+04     6.7416E-06     6.0977E-06    -6.9394E-04
MG BCs: +ve charge blocks (gridpoints):     24620 (   16893404).
MG BCs: -ve charge blocks (gridpoints):      8449 (    1078018).
MG BCs:     Elided blocks (gridpoints):    169294 (  172999203).
[...]
MG Hartree energy from (\int phi*rho dr):              1202.870079
MG Hartree energy from (\int eps (grad phi)^2 dr):     1202.680963
MG Discrepancy due to finite box and discretization:     -0.189116 (  -0.01572%)
MG Correction to account for finite box:                  0.006410
MG Remaining discrepancy, due to discretization:         -0.182706 (  -0.01519%)
             Q2:  -11698.084760286380
  Cubic LS coeff:       1.019804404088
Predicted energy:  -11698.084760286409
Cubic minimum step length accepted
    Initial Ne1:    7192.00000000
      Final Ne1:    7192.00000000

=================== Penalty functional idempotency correction ==================
 RMS occupancy error at iteration   1:  0.000000 (step -0.5000 Ne1=   7192.0000)
            Final RMS occupancy error   :  0.000000 (Ne1=   7192.0000)
               Final occupancy bounds   : [  0.0000,  1.0000]
================================================================================

    7        -1.169808476028E+04     9.4246E-09     8.5243E-09    -2.9104E-09

Reusing previously generated solute cavity.
MG BCs: +ve charge blocks (gridpoints):     28719 (   19029457).
MG BCs: -ve charge blocks (gridpoints):      8446 (    1047464).
MG BCs:     Elided blocks (gridpoints):    165195 (  170893704).
MG BCs: Computational effort saved:  99.9805%.
MG BCs: Charge after coarse-graining:           -9.0009616.
MG DL_MG: Calling solver with defect correction order = 8
MG DL_MG: Solver finished
MG Hartree energy from (\int phi*rho dr):              1202.870077
MG Hartree energy from (\int eps (grad phi)^2 dr):     1202.680961
MG Discrepancy due to finite box and discretization:     -0.189116 (  -0.01572%)
MG Correction to account for finite box:                  0.006410
MG Remaining discrepancy, due to discretization:         -0.182706 (  -0.01519%)
      ideal mu1:      -0.485045077967
             Q0:  -11698.084760286380
             G0:      -0.000000004608
   RMS gradient:       0.000000012455

Reusing previously generated solute cavity.
MG BCs: +ve charge blocks (gridpoints):     28719 (   19029457).
MG BCs: -ve charge blocks (gridpoints):      8446 (    1047464).
MG BCs:     Elided blocks (gridpoints):    165195 (  170893704).
MG BCs: Computational effort saved:  99.9805%.
MG BCs: Charge after coarse-graining:           -9.0009616.
MG DL_MG: Calling solver with defect correction order = 8
MG DL_MG: Solver finished
MG Hartree energy from (\int phi*rho dr):              1202.870054
MG Hartree energy from (\int eps (grad phi)^2 dr):     1202.680938
MG Discrepancy due to finite box and discretization:     -0.189116 (  -0.01572%)
MG Correction to account for finite box:                  0.006410
MG Remaining discrepancy, due to discretization:         -0.182706 (  -0.01519%)
     Trial step:       0.739617036254
             Q1:  -11698.084760287893
 Quadratic coef:       0.000000001895
 Linear coef   :      -0.000000003408
           Qmin:  -11698.084760287911
Quadratic minimum step length (  0.664943832763) accepted
    Initial Ne1:    7192.00000000
      Final Ne1:    7192.00000000

=================== Penalty functional idempotency correction ==================
 RMS occupancy error at iteration   1:  0.000000 (step -0.5000 Ne1=   7192.0000)
            Final RMS occupancy error   :  0.000000 (Ne1=   7192.0000)
               Final occupancy bounds   : [  0.0000,  1.0000]
================================================================================

    8        -1.169808476029E+04     1.2455E-08     1.1265E-08    -3.0268E-09

Reusing previously generated solute cavity.
MG BCs: +ve charge blocks (gridpoints):     28719 (   19029457).
MG BCs: -ve charge blocks (gridpoints):      8446 (    1047464).
MG BCs:     Elided blocks (gridpoints):    165195 (  170893704).
MG BCs: Computational effort saved:  99.9805%.
MG BCs: Charge after coarse-graining:           -9.0009616.
MG DL_MG: Calling solver with defect correction order = 8
MG DL_MG: Solver finished
MG Hartree energy from (\int phi*rho dr):              1202.870057
MG Hartree energy from (\int eps (grad phi)^2 dr):     1202.680940
MG Discrepancy due to finite box and discretization:     -0.189116 (  -0.01572%)
MG Correction to account for finite box:                  0.006410
MG Remaining discrepancy, due to discretization:         -0.182706 (  -0.01519%)
      ideal mu1:      -0.485045043428
             Q0:  -11698.084760287777
             G0:      -0.000000004846
   RMS gradient:       0.000000009829

Reusing previously generated solute cavity.
MG BCs: +ve charge blocks (gridpoints):     28719 (   19029457).
MG BCs: -ve charge blocks (gridpoints):      8446 (    1047464).
MG BCs:     Elided blocks (gridpoints):    165195 (  170893704).
MG BCs: Computational effort saved:  99.9805%.
MG BCs: Charge after coarse-graining:           -9.0009616.
MG DL_MG: Calling solver with defect correction order = 8
MG DL_MG: Solver finished
MG Hartree energy from (\int phi*rho dr):              1202.869985
MG Hartree energy from (\int eps (grad phi)^2 dr):     1202.680869
MG Discrepancy due to finite box and discretization:     -0.189116 (  -0.01572%)
MG Correction to account for finite box:                  0.006410
MG Remaining discrepancy, due to discretization:         -0.182706 (  -0.01519%)
     Trial step:       0.701287235634
             Q1:  -11698.084760287311
 Quadratic coef:       0.000000003864
 Linear coef   :      -0.000000003398
           Qmin:  -11698.084760288524
Quadratic minimum step length (  0.308404249049) accepted
    Initial Ne1:    7192.00000000
      Final Ne1:    7192.00000000

=================== Penalty functional idempotency correction ==================
 RMS occupancy error at iteration   1:  0.000000 (step -0.5000 Ne1=   7192.0000)
            Final RMS occupancy error   :  0.000000 (Ne1=   7192.0000)
               Final occupancy bounds   : [ -0.0000,  1.0000]
================================================================================

    9        -1.169808476029E+04     9.8286E-09     8.8897E-09    -1.3970E-09

Reusing previously generated solute cavity.
MG BCs: +ve charge blocks (gridpoints):     28719 (   19029457).
MG BCs: -ve charge blocks (gridpoints):      8446 (    1047464).
MG BCs:     Elided blocks (gridpoints):    165195 (  170893704).
MG BCs: Computational effort saved:  99.9805%.
MG BCs: Charge after coarse-graining:           -9.0009616.
MG DL_MG: Calling solver with defect correction order = 8
MG DL_MG: Solver finished
MG Hartree energy from (\int phi*rho dr):              1202.870025
MG Hartree energy from (\int eps (grad phi)^2 dr):     1202.680909
MG Discrepancy due to finite box and discretization:     -0.189116 (  -0.01572%)
MG Correction to account for finite box:                  0.006410
MG Remaining discrepancy, due to discretization:         -0.182706 (  -0.01519%)
      ideal mu1:      -0.485045008924
   10        -1.169808476029E+04     5.4742E-09     4.9513E-09    -4.6566E-10
Finished density kernel iterations (  10)

Writing density kernel to file "host_21761.dkn" ... done


>>> Density kernel optimised for the current NGWF basis:
     ~~~~~~~~~~~~~~~~~~~~~~~~~~~~~~~~~~~~~~~~~~~~~~~~~~~~~~~~~~~
     Total energy                =  -1.16980847602882E+04  Eh
     Estimated bandgap           =   8.5360E-02  Eh
     RMS occupancy error         =   6.6837E-16
     [H,K] commutator            =   4.9513E-09
     Occupancy bounds            = [ -0.000:  1.000]
     ~~~~~~~~~~~~~~~~~~~~~~~~~~~~~~~~~~~~~~~~~~~~~~~~~~~~~~~~~~~




################################################################################
########################### NGWF CG iteration  004 #############################
################################################################################
****** Reciprocal space K.E. preconditioning with k_zero =  3.5000 a0^-1 *******

>>> Checking for convergence of NGWFs: 
           ........................................................
           |         *** NGWF optimisation converged ***          |
           | RMS NGWF gradient =    0.00000191625987              |
           | Criteria satisfied:                                  |
           | -> RMS NGWF gradient lower than set threshold.       |
           ========================================================

Reusing previously generated solute cavity.
MG BCs: +ve charge blocks (gridpoints):     28719 (   19029457).
MG BCs: -ve charge blocks (gridpoints):      8446 (    1047464).
MG BCs:     Elided blocks (gridpoints):    165195 (  170893704).
MG BCs: Computational effort saved:  99.9805%.
MG BCs: Charge after coarse-graining:           -9.0009616.
MG DL_MG: Calling solver with defect correction order = 8
MG DL_MG: Solver finished
MG Hartree energy from (\int phi*rho dr):              1202.870025
MG Hartree energy from (\int eps (grad phi)^2 dr):     1202.680909
MG Discrepancy due to finite box and discretization:     -0.189116 (  -0.01572%)
MG Correction to account for finite box:                  0.006410
MG Remaining discrepancy, due to discretization:         -0.182706 (  -0.01519%)

================================================================================
           ---------------- ENERGY COMPONENTS (Eh) ----------------
           | Kinetic                    :     8557.28247677246327 |
           | Pseudo. (local,OBC,corr'd) :    -5072.21772758024144 |
           | Pseudopotential (non-local):     1404.36166132886092 |
           | Hartree (molecular)        :     1202.87002509307945 |
           | Exchange-correlation       :    -3381.73734919082062 |
           | Ion-ion (open BC)          :   828227.76505750475917 |
           | Smeared ion non-self corr. :  -828179.87794109433889 |
           | Smeared ion self corr.     :   -14457.16956389741972 |
           | Solvent cavitation energy  :        2.27199422024556 |
           | Solute-solvent dis-rep en. :       -1.63339344479004 |
           | Total                      :   -11698.08476028829318 |
           --------------------------------------------------------
           ------ LOCAL ENERGY COMPONENTS FROM MATRIX TRACES ------
           | Pseudopotential (local)    :    -5072.21772758024690 |
           | Hartree                    :    -2000.97050143282968 |
           --------------------------------------------------------
           Integrated density           :     7191.99999999898773
           Integrated density tr(KS)    :     7191.99999999999909
================================================================================


                        <<<<< CALCULATION SUMMARY >>>>>                         
|ITER|    RMS GRADIENT   |     TOTAL ENERGY    |   step   |     Epredicted              
   0     0.00003923442272 -11698.02530214469880   0.610617 -11698.07662771026662        
   1     0.00000987506409 -11698.08420623734128   0.086729 -11698.08466806164324        
   2     0.00000432652296 -11698.08474202267826   0.015663 -11698.08475803199508        
   3     0.00000191625987 -11698.08476028824225  <-- CG                                 

=================== Finished the calculation in solvent ========================
= Adjusting the following parameters: 
= read_denskern: F
= read_tightbox_ngwfs: F
= maxit_pen: 0 (restored to user-specified value)
= restart read filename prefix: ""
= restart write filename prefix: ""
================================================================================

================================================================================
IS: Calculation in solvent completed (NGWFs converged).      

Individual components of total energy in solvent:     hartree           kcal/mol
- Usual non-electrostatic DFT terms:    -12901.59338615677734    -8095871.904682
- Electrostatic fixed charge energy:      1202.87002509307945      754812.320437
- Apolar cavitation energy:                  2.27199422024556        1425.697867
- Apolar dispersion-repulsion energy:       -1.63339344479004       -1024.969839
 -------------------------------------------------------------------------------
- Total energy in solvent:              -11698.08476028824225    -7340658.856218

Components of total energy in solvent:                hartree           kcal/mol
- Usual non-electrostatic DFT terms:    -12901.59338615677734    -8095871.904682
- Electrostatic energy:                   1202.87002509307945      754812.320437
- Apolar energy terms:                       0.63860077545552         400.728028
 -------------------------------------------------------------------------------
- Total energy in solvent:              -11698.08476028824225    -7340658.856218

Calculation of free energy of solvation:              hartree           kcal/mol
- Total energy in solvent:         (+)  -11698.08476028824225    -7340658.856218
- Total energy in vacuum:          (-)  -11694.37398098397534    -7338330.307099
 -------------------------------------------------------------------------------
- Total free energy of solvation:           -3.71077930426691       -2328.549119

Components of polar term in f.e. of solvation:        hartree           kcal/mol
- Electrostatic:                            -4.44583135439325       -2789.801234
- Change in nonelectrostatic DFT terms:      0.09645127467047          60.524087
 -------------------------------------------------------------------------------
- Polar term in f.e. of solvation:          -4.34938007972278       -2729.277147

Components of free energy of solvation:               hartree           kcal/mol
- Polar term in f.e. of solvation: (+)      -4.34938007972278       -2729.277147
- Apolar (cavitation, dis., rep.): (+)       0.63860077545552         400.728028
 -------------------------------------------------------------------------------
- Total free energy of solvation:           -3.71077930426726       -2328.549119
================================================================================


------------------------------ TIMING INFORMATION ------------------------------
AVERAGE TIME:   39488.953s on     60 node(s)                                    
TOTAL TIME:     39488.953s on     60 node(s)                                    
================= AVERAGE TIMINGS FROM ALL NODES (CUMULATIVE) ==================
|| TAG                                    #calls    cpu time   %total  Gflops ||
|| work_imbalance                       :     1        0.00s   0.000%  ------ ||
|| sparse_set_to_garbage                :   200        0.04s   0.000%  ------ ||
|| parallel_prepare_fd_halos_request    :  2187        0.04s   0.000%  ------ ||
|| ngwfs_initialise_from_radial         :     1        0.11s   0.000%  ------ ||
|| parallel_prepare_fd_halos_alloc      :  2187        0.17s   0.000%  ------ ||
|| basis_extract_function_from_box      :  4011        0.18s   0.000%  ------ ||
|| parallel_prepare_fd_halos_satisfy    :  2187        0.73s   0.002%  ------ ||
|| openbc_locps_radial                  :     1        3.00s   0.008%  ------ ||
|| pseudopotentials_nonlocal_mat        :    34        3.08s   0.008%  ------ ||
|| density_init_guess_real              :     1        5.03s   0.013%  ------ ||
|| restart_kernel_read                  :     1        5.78s   0.015%  ------ ||
|| parallel_prepare_fd_halos_comms_imbal:  2187       12.20s   0.031%  ------ ||
|| parallel_prepare_fd_halos_clear      :  2187       20.89s   0.053%  ------ ||
|| sparse_init                          :     2       22.22s   0.056%  ------ ||
|| restart_ngwfs_tightbox_input         :     1       22.63s   0.057%  ------ ||
|| parallel_prepare_fd_halos_comms_wait :  2187       25.86s   0.065%  ------ ||
|| projectors_func_ovlp_box             :    34       30.70s   0.078%  ------ ||
|| palser_mano_kernel_optimise          :     1       31.57s   0.080%  ------ ||
|| function_ops_brappd_ketppd           :    34       35.23s   0.089%  ------ ||
|| projectors_init_fftbox_recip         :   160       39.36s   0.100%  ------ ||
|| basis_copy_function_to_box           : 65266       50.74s   0.128%  ------ ||
|| pseudo_make_structure_factor         :     2       50.96s   0.129%  ------ ||
|| parallel_prepare_fd_halos            :  2187       59.91s   0.152%  ------ ||
|| fourier_apply_box_pair               :  5753       60.40s   0.153% 587.383 ||
|| ngwf_gradient_coeffs                 :    18       60.83s   0.154%  ------ ||
|| sparse_embed_hotelling_invert_embed  :    34       91.84s   0.233%  ------ ||
|| restart_kernel_write                 :    19      119.95s   0.304%  ------ ||
|| finite_difference_derivative         :  2187      147.63s   0.374%  ------ ||
|| integrals_kinetic                    :    34      169.20s   0.428%  ------ ||
|| basis_dot_function_with_box          : 9.894M     199.69s   0.506%  ------ ||
|| projectors_gradient_batch            :   126      200.71s   0.508%  ------ ||
|| sparse_trace                         :  5719      219.90s   0.557%  ------ ||
|| openbc_locps_on_grid                 :     2      260.48s   0.660%  ------ ||
|| kernel_purify                        :   557      366.93s   0.929%  ------ ||
|| basis_add_function_to_box            : 20.71M     473.10s   1.198%  ------ ||
|| hamiltonian_energy_components        :     4      534.67s   1.354%  ------ ||
|| lnv_gradient_norm                    :   180      548.15s   1.388%  ------ ||
|| kernel_fix                           :   180      592.62s   1.501%  ------ ||
|| integrals_locpot_mat_els_batch       :  1323      869.37s   2.202%  ------ ||
|| ngwf_gradient_build_batch            :   126      885.03s   2.241%  ------ ||
|| ngwf_gradient_batch                  :   126     1206.89s   3.056%  ------ ||
|| density_batch_row_sums               :  2541     1278.63s   3.238%  ------ ||
|| ngwf_gradient_lnv                    :    18     1360.73s   3.446%  ------ ||
|| restart_ngwfs_tightbox_output        :    16     1433.14s   3.629%  ------ ||
|| cell_grid_deposit_box_real           : 41797     1508.07s   3.819%  ------ ||
|| fourier_apply_cell_forward           : 10193     1643.78s   4.163%  83.273 ||
|| fourier_apply_cell_backward          : 10923     1832.22s   4.640%  80.059 ||
|| cell_grid_extract_box_real           : 45684     1839.83s   4.659%  ------ ||
|| sparse_product                       :  7317     2206.94s   5.589%  ------ ||
|| density_fftbox_deposit_to_cell       : 39567     2219.00s   5.619%  ------ ||
|| potential_apply_to_ngwf_batch        :  1323     4192.95s  10.618%  ------ ||
|| density_fftbox_interpolate_multiply  : 39567     4443.25s  11.252%  ------ ||
|| xc_energy_potential                  :   364     4527.11s  11.464%  ------ ||
|| integrals_locpot_dbl_grid            :   189     5081.72s  12.869%  ------ ||
|| multigrid_prepare_bound_cond         :   364     5149.70s  13.041%  ------ ||
|| fourier_apply_box                    : 136.1k    5440.12s  13.776% 747.654 ||
|| nlxc_vdw_energy                      :   728     7315.84s  18.526%  ------ ||
|| density_batch_interp_deposit         :  2541     7660.47s  19.399%  ------ ||
|| dl_mg_solver_calls                   :   364     8252.82s  20.899%  ------ ||
|| density_on_dbl_grid                  :   363     9301.73s  23.555%  ------ ||
|| multigrid_calculate_hartree          :   364    13603.88s  34.450%  ------ ||
|| hamiltonian_lhxc_calculate           :   359    27379.93s  69.336%  ------ ||
|| lnv_denskernel_optimise_cg           :    18    33476.24s  84.774%  ------ ||
|| ngwf_cg_optimise                     :     2    38506.19s  97.511%  ------ ||
|| total_time                           :     1    39488.95s 100.000%  ------ ||
================================================================================
Overhead of generating timer report: 
- 0 ms averaging over threads,
- 15 ms ensuring consistency across MPI ranks,
- 1 ms printing in order.

Job completed: 15-02-2020 19:50 (-0000)

Application 38987563 resources: utime ~7848628s, stime ~270516s, Rss ~3905564, inblocks ~380583713, outblocks ~76243509
