 +---------------------------------------------------------------+
 |                                                               |
 |        ####### #     # ####### ####### ####### ######         |
 |        #     # ##    # #          #    #       #     #        |
 |        #     # # #   # #          #    #       #     #        |
 |        #     # #  #  # #####      #    #####   ######         |
 |        #     # #   # # #          #    #       #              |
 |        #     # #    ## #          #    #       #              |
 |        ####### #     # #######    #    ####### #              |
 |                                                               |
 |        Linear-Scaling Ab Initio Total Energy Program          |
 |                                                               |
 |          Release for academic collaborators of ODG            |
 |                                             Version 5.3.2.6.  |
 |                                                               |
 +---------------------------------------------------------------+
 |                                                               |
 |  Authors:                                                     |
 |  Jacek Dziedzic, Peter D. Haynes, Nicholas D. M. Hine,        |
 |  Arash. A. Mostofi, Mike C. Payne and Chris-Kriton Skylaris   |
 |                                                               |
 |  Contributors:                                                |
 |  J. Aarons, L. Andrinopoulos, P. W. Avraam, R. A. Bell,       |
 |  A. Bhandari, G. A. Bramley, R. J. Charlton, S. J. Clark,     |
 |  R. J. Clements, G. C. Constantinescu, F. Corsetti,           |
 |  N. Corsini, O. Dieguez, S. M. M. Dubois, K. K. B. Duff,      |
 |  J. M. Escartin, A. Greco, H. Helal, Q. O. Hill, L. P. Lee,   |
 |  J.-H. Li, E. B. Linscott, G. Moynihan, D. D. O`Regan,        |
 |  O. K. Okan, M. J. S. Phipps, C. J. Pickard,                  |
 |  J. C. A. Prentice, M. I. J. Probert, L. E. Ratcliff,         |
 |  M. Robinson, A. Ruiz Serrano, J. S. Spencer, E. W. Tait,     |
 |  G. Teobaldi, D. Turban, V. Vitale, K. A. Wilkinson,          |
 |  C. Weber, J. C. Womack, N. Yeung and T. J. Zuehlsdorff       |
 |                                                               |
 |                                   Copyright (c) 2004-2019     |
 |                                                               |
 |  Please cite:                                                 |
 |  "Introducing ONETEP: Linear-scaling density functional       |
 |   simulations on parallel computers".                         |
 |   C.-K. Skylaris, P. D. Haynes, A. A. Mostofi, M. C. Payne.   |
 |   J. Chem. Phys. 122 084119 (2005).                           |
 |                                                               |
 |          in all publications arising from your use of ONETEP. |
 |                                                               |
 +---------------------------------------------------------------+
 |                                                               |
 |   ONETEP is based on developments described in the following  |
 |   publications:                                               |
 |                                                               |
 |  "Nonorthogonal generalized Wannier function pseudopotential  |
 |   plane-wave method".                                         |
 |   C.-K. Skylaris, A. A. Mostofi, P. D. Haynes, O. Dieguez,    |
 |   M. C. Payne.                                                |
 |   Phys. Rev. B 66 035119 (2002).                              |
 |                                                               |
 |  "Preconditioned iterative minimization for linear-scaling    |
 |   electronic structure calculations".                         |
 |   A. A. Mostofi, P. D. Haynes, C.-K. Skylaris, M. C. Payne.   |
 |   J. Chem. Phys. 119(17), pp.8842-8848 (2003).                |
 |                                                               |
 |  "Total-energy calculations on a real space grid with         |
 |   localized functions and a plane-wave basis".                |
 |   A. A. Mostofi, C.-K. Skylaris, P. D. Haynes, M. C. Payne.   |
 |   Comput. Phys. Commun. 147, pp.788-802 (2002).               |
 |                                                               |
 |  "Accurate kinetic energy evaluation in electronic structure  |
 |   calculations with localized functions on real space grids"  |
 |   C.-K. Skylaris, A. A. Mostofi, P. D. Haynes, C. J. Pickard, |
 |   M. C. Payne.                                                |
 |   Comput. Phys. Commun. 140, pp.315-322 (2001).               |
 |                                                               |
 |  "Accurate ionic forces and geometry optimization in linear-  |
 |   scaling density-functional theory with local orbitals"      |
 |   N. D. M. Hine, M. Robinson, P. D. Haynes, C.-K. Skylaris,   |
 |   M. C. Payne, and A. A. Mostofi.                             |
 |   Phys. Rev. B 83 195102 (2011).                              |
 |                                                               |
 +---------------------------------------------------------------+

Job started: 22-03-2020 07:30 (-0000)
 
Reading parameters from file "host_27081.dat" ...... done

If your calculation crashes here, before "Checking processes and threads..."
is displayed, then your stack size is insufficient.
If so, use "ulimit -s unlimited" at runtime.
You can disable this check with "check_stack_size F".

Checking processes and threads...
   Determining the default number of threads...
      No default threads set at compilation time: defaulting to 1.
      OpenMP library call suggests 4 threads.
      Hybrid MPI-OpenMP compilation detected.
      Number of MPI processes > 1.
      OMP_NUM_THREADS environment variable present and
      its value matches the one obtained from the OpenMP library call.
      Using this value as default.
      Default threads: 4
      Default applies to threads_max and threads_num_fftboxes.
      Settings in the input file override this default.
   ... done

   Running with 60 MPI processes.
   There are 6 MPI processes running on the same node as the root process.
   Each MPI process is using: 
               1 threads for simulation cell FFTs.
               1 threads for parallel FFT box operations.
               4 threads for loops over batched FFT box operations.
               4 threads in other parallel regions.
... done

Basic input checks...... done

Reading geometry and species blocks from file "host_27081.dat" ...
  <species_atomic_set> block not found: NGWF initialisation set to SOLVE
IS: Dielectric excluded regions:
    - NONE.
    
  Number of PPD points along a3 set to 1.  This is 
  the default value, it may have been provided also in the input file.
... done
 Writing xyz coordinates to file "host_27081.xyz" ... done


--------------------------------------------------------------------------------
---------------------------------- INPUT FILE ----------------------------------
--------------------------------------------------------------------------------

cutoff_energy       : 800 eV                                                    
xc_functional VV10                                                              
task SINGLEPOINT                                                                
write_xyz true                                                                  
output_detail VERBOSE                                                           
ngwf_threshold_orig : 0.000002                                                  
kernel_cutoff       : 1000                                                      
k_zero              : 3.5                                                       
elec_cg_max 0                                                                   
occ_mix 1.0                                                                     
dispersion 0                                                                    
maxit_ngwf_cg 40                                                                
minit_lnv 10                                                                    
maxit_lnv 10                                                                    
write_denskern T                                                                
write_tightbox_ngwfs T                                                          
charge 9                                                                        
is_implicit_solvent T                                                           
is_auto_solvation T                                                             
is_include_apolar T                                                             
is_smeared_ion_rep T                                                            
is_solvent_surf_tension 4.7624E-5 Ha/bohr**2                                    
is_apolar_scaling_factor 0.281075                                               
is_solvation_beta 1.3                                                           
is_density_threshold 0.00035                                                    
is_bulk_permittivity 78.54                                                      
is_dielectric_model fix_initial                                                 
is_smeared_ion_width 0.8                                                        
mg_defco_fd_order 8                                                             
is_bc_coarseness 10                                                             
is_bc_surface_coarseness 1                                                      
fine_grid_scale 2.0                                                             
%block species                                                                  
N   N   7 4 8.0                                                                 
H   H   1 1 8.0                                                                 
C   C   6 4 8.0                                                                 
S   S  16 9 8.0                                                                 
O   O   8 4 8.0                                                                 
%endblock species                                                               
%block species_pot                                                              
N   N_00.recpot                                                                 
H   H_04.recpot                                                                 
C   C_01.recpot                                                                 
S   S_00.recpot                                                                 
O   O_02.recpot                                                                 
%endblock species_pot                                                           
%block lattice_cart                                                             
135.996   0.000   0.000                                                         
0.000 142.663   0.000                                                           
0.000   0.000   160.158                                                         
%endblock lattice_cart                                                          
%block positions_abs                                                            
     Hash =   000003679875566179381775
%endblock positions_abs                                                         

--------------------------------------------------------------------------------
-------------------------------- END INPUT FILE --------------------------------
--------------------------------------------------------------------------------


 
 ESDF WARNING(1): "kernelcutoff" (esdf_physical) has no units. Assume "bohr".
 ESDF WARNING(2): "kzero" (esdf_physical) has no units. Assume "1/bohr".
 ESDF WARNING(3
 ): "issmearedionwidth" (esdf_physical) has no units. Assume "bohr".
<<<<<<<<<<<<<<<<<<<<<<<<<<<<<<<<< Full system >>>>>>>>>>>>>>>>>>>>>>>>>>>>>>>>>>
<<<<<<<<<<<<<<<<<<<<<<<<< Pseudopotential information >>>>>>>>>>>>>>>>>>>>>>>>>>
File: N_00.recpot [ 2001 points up to Gmax=  52.9 (1/bohr)]
  Atomic number:  7;  ionic charge:  5.000000
    Shell 1: l = 0; rc = 1.48 bohr
File: H_04.recpot [ 2001 points up to Gmax=  52.9 (1/bohr)]
  Atomic number:  1;  ionic charge:  1.000000
    Local potential
File: C_01.recpot [ 2001 points up to Gmax=  52.9 (1/bohr)]
  Atomic number:  6;  ionic charge:  4.000000
    Shell 1: l = 0; rc = 1.48 bohr
File: S_00.recpot [ 2001 points up to Gmax=  52.9 (1/bohr)]
  Atomic number: 16;  ionic charge:  6.000000
    Shell 1: l = 0; rc = 1.90 bohr
    Shell 2: l = 2; rc = 1.84 bohr
File: O_02.recpot [ 2001 points up to Gmax=  52.9 (1/bohr)]
  Atomic number:  8;  ionic charge:  6.000000
    Shell 1: l = 0; rc = 1.31 bohr
<<<<<<<<<<<<<<<<<<<<<<<<<<<<<<<<<<<<<<<<>>>>>>>>>>>>>>>>>>>>>>>>>>>>>>>>>>>>>>>>

-------------------------- Atom counting information ---------------------------
Symbol    Natoms    Nngwfs    Nprojs
  N        236       944       236
  H       1311      1311         0
  C        810      3240       810
  S          6        54        36
  O        239       956       239
.......   ......    ......    ......
Totals:   2602      6505      1321
--------------------------------------------------------------------------------

=============================== PSINC grid sizes ===============================
                      Simulation cell:  270 x 286 x 315
                              FFT-box:   99 x 105 x  99
                                  PPD:    5 x  11 x   1
Grid space d1=  0.503688888889a0 (KE cutoff=  29.94189Eh = 814.76038eV)
Grid space d2=  0.498821678322a0 (KE cutoff=  30.52906Eh = 830.73786eV)
Grid space d3=  0.508438095238a0 (KE cutoff=  29.38514Eh = 799.61048eV)
================================================================================

********************* Fourier parallelisation information **********************
       Coarse grid (whole simulation cell) dimensions:    270   286   315
          Real-space ('12') slabs/node (min max mean):      5     6     5
         Recip-space ('23') slabs/node (min max mean):      2     3     2
********************************************************************************

********************* Fourier parallelisation information **********************
       Double grid (whole simulation cell) dimensions:    540   572   630
          Real-space ('12') slabs/node (min max mean):     10    11    10
         Recip-space ('23') slabs/node (min max mean):      4     5     4
********************************************************************************
ONETEP fine grid is 540 x 572 x 630 gridpoints, 135.9960 x 142.6630 x 160.1580 bohr.
FD multigrid is     537 x 569 x 625 gridpoints, 135.2405 x 141.9148 x 158.8869 bohr.


Calculating local pseudopotential in open BC on a radial grid ...
Discrepancy between calculated realspace psloc and -Z/x on [5a0,253.965a0]:
max |rel. diff| # avg |rel. diff| #  avg rel. diff #  f # pseudopotential file
 0.000259282084    0.000004141996   0.000000074978   54  'N_00.recpot'
 0.000405386992    0.000016970607  -0.000000075982   54  'H_04.recpot'
 0.000371694516    0.000017434762   0.000000149329   54  'C_01.recpot'
 0.000461642895    0.000020341726   0.000000491514   54  'S_00.recpot'
 0.000682525123    0.000027368244   0.000000159803   54  'O_02.recpot'
... done

Atom SCF Calculation for N  : Z (AE atom) =   7 : Z (PS atom) =   5
Config String:
Orbitals (num,occ):  2     2.00 3.00
Orbitals   (num,l):  2        0    1
Real-space Grid (nr,dr,rmax): 1203    0.0066555740    8.0000000000
Spherical Bessel Basis (nsws,lmax,cutoff):   47    1  176.3951722778
Confining potential (l,width,scale):  0    3.0000000000  100.0000000000
Confining potential (l,width,scale):  1    3.0000000000  100.0000000000
  1         -4.7366890484   -3.4501654188    7.0523828109   -1.9619316308
  2         -9.7225420322   -2.0763080851    8.3068355706   -2.2908832437
  3         -9.7134243553   -2.1270543915    8.2534567806   -2.2819809971
  4         -9.7235185949   -2.1427582218    8.2369947390   -2.2802814234
  5         -9.7258373845   -2.1477905863    8.2317116314   -2.2798536235
  6         -9.7268932325   -2.1503512400    8.2290229806   -2.2796830099
  7         -9.7273189469   -2.1516634231    8.2276451699   -2.2796169657
  8         -9.7274675212   -2.1523365544    8.2269384796   -2.2795940092
  9         -9.7275041773   -2.1526817003    8.2265762312   -2.2795881371
 10         -9.7275008637   -2.1528585007    8.2263907413   -2.2795884060
 11         -9.7274868305   -2.1529489544    8.2262958841   -2.2795903922
 12         -9.7274755655   -2.1529859230    8.2262571347   -2.2795920452
 13         -9.7274662327   -2.1530083995    8.2262335832   -2.2795934369
 14         -9.7274589439   -2.1530220534    8.2262192809   -2.2795945372
 15         -9.7274534633   -2.1530303399    8.2262106039   -2.2795953734
 16         -9.7274494492   -2.1530353634    8.2262053452   -2.2795959920
 17         -9.7274465654   -2.1530384053    8.2262021621   -2.2795964406
 18         -9.7274445237   -2.1530402447    8.2262002378   -2.2795967611
 19         -9.7274430947   -2.1530413553    8.2261990762   -2.2795969874
 20         -9.7274421038   -2.1530420249    8.2261983762   -2.2795971458
 21         -9.7274414219   -2.1530424277    8.2261979551   -2.2795972557
 22         -9.7274409555   -2.1530426696    8.2261977024   -2.2795973315
 23         -9.7274406382   -2.1530428144    8.2261975510   -2.2795973835
 24         -9.7274404232   -2.1530429010    8.2261974606   -2.2795974190
 25         -9.7274402783   -2.1530429525    8.2261974067   -2.2795974432
 26         -9.7274401808   -2.1530429831    8.2261973748   -2.2795974596
Atom SCF converged after  26 iterations to a total energy of     -9.72744018

Atom SCF Calculation for H  : Z (AE atom) =   1 : Z (PS atom) =   1
Config String:
Orbitals (num,occ):  1     1.00
Orbitals   (num,l):  1        0
Real-space Grid (nr,dr,rmax): 1203    0.0066555740    8.0000000000
Spherical Bessel Basis (nsws,lmax,cutoff):   47    0  176.3951722778
Confining potential (l,width,scale):  0    3.0000000000  100.0000000000
  1         -0.3178661827   -0.2469879004    0.2820953124   -0.2487802071
  2         -0.3961824611   -0.2455070831    0.2902209900   -0.2567664324
  3         -0.4406462424   -0.2424227551    0.2948173255   -0.2622129794
  4         -0.4569739054   -0.2416771342    0.2960118236   -0.2639986016
  5         -0.4627745219   -0.2416114401    0.2961916694   -0.2644992007
  6         -0.4648634749   -0.2416666130    0.2961598921   -0.2646237065
  7         -0.4656347011   -0.2417155160    0.2961132802   -0.2646490719
  8         -0.4659271144   -0.2417438448    0.2960836537   -0.2646515522
  9         -0.4660407254   -0.2417580788    0.2960682004   -0.2646501482
 10         -0.4660857867   -0.2417647566    0.2960608087   -0.2646488305
 11         -0.4661039568   -0.2417677717    0.2960574330   -0.2646480606
 12         -0.4661113773   -0.2417691018    0.2960559329   -0.2646476727
 13         -0.4661144368   -0.2417696800    0.2960552775   -0.2646474903
 14         -0.4661157072   -0.2417699291    0.2960549942   -0.2646474079
 15         -0.4661162374   -0.2417700356    0.2960548727   -0.2646473715
 16         -0.4661164596   -0.2417700810    0.2960548208   -0.2646473556
 17         -0.4661165529   -0.2417701003    0.2960547987   -0.2646473488
Atom SCF converged after  17 iterations to a total energy of     -0.46611655

Atom SCF Calculation for C  : Z (AE atom) =   6 : Z (PS atom) =   4
Config String:
Orbitals (num,occ):  2     2.00 2.00
Orbitals   (num,l):  2        0    1
Real-space Grid (nr,dr,rmax): 1203    0.0066555740    8.0000000000
Spherical Bessel Basis (nsws,lmax,cutoff):   47    1  176.3951722778
Confining potential (l,width,scale):  0    3.0000000000  100.0000000000
Confining potential (l,width,scale):  1    3.0000000000  100.0000000000
  1         -5.2812238291   -1.3293161250    4.5135249990   -1.4716766231
  2         -5.3996591362   -1.3542148509    4.4876064308   -1.4645117417
  3         -5.4111847148   -1.3757224423    4.4645718036   -1.4593107263
  4         -5.4199203659   -1.3833334895    4.4563636676   -1.4579885221
  5         -5.4226876204   -1.3865104950    4.4529090432   -1.4575385943
  6         -5.4235070726   -1.3878131251    4.4514866831   -1.4573882877
  7         -5.4237271252   -1.3883401868    4.4509094528   -1.4573411661
  8         -5.4237693051   -1.3885521813    4.4506766230   -1.4573281030
  9         -5.4237656430   -1.3886371046    4.4505830704   -1.4573255254
 10         -5.4237547927   -1.3886709976    4.4505456041   -1.4573257244
 11         -5.4237478594   -1.3886817763    4.4505336403   -1.4573262476
 12         -5.4237429748   -1.3886873440    4.4505274417   -1.4573266921
 13         -5.4237397042   -1.3886902144    4.4505242350   -1.4573270222
 14         -5.4237375865   -1.3886916908    4.4505225792   -1.4573272507
 15         -5.4237362473   -1.3886924482    4.4505217259   -1.4573274021
 16         -5.4237354152   -1.3886928356    4.4505212873   -1.4573274996
 17         -5.4237349050   -1.3886930331    4.4505210623   -1.4573275610
 18         -5.4237345954   -1.3886931333    4.4505209473   -1.4573275991
 19         -5.4237344092   -1.3886931840    4.4505208887   -1.4573276224
 20         -5.4237342980   -1.3886932094    4.4505208590   -1.4573276366
 21         -5.4237342320   -1.3886932221    4.4505208440   -1.4573276451
Atom SCF converged after  21 iterations to a total energy of     -5.42373423

Atom SCF Calculation for S  : Z (AE atom) =  16 : Z (PS atom) =   6
Config String:
Orbitals (num,occ):  3     2.00 4.00 0.00
Orbitals   (num,l):  3        0    1    2
Real-space Grid (nr,dr,rmax): 1203    0.0066555740    8.0000000000
Spherical Bessel Basis (nsws,lmax,cutoff):   47    2  176.3951722778
Confining potential (l,width,scale):  0    3.0000000000  100.0000000000
Confining potential (l,width,scale):  1    3.0000000000  100.0000000000
Confining potential (l,width,scale):  2    3.0000000000  100.0000000000
  1        -12.4916237786   -1.0485914554   10.1554312477   -2.4822447765
  2         -9.9747083603   -2.4807597367    8.3138131863   -2.0618837268
  3        -10.1811370131   -2.3153496392    8.4906092179   -2.1137756843
  4        -10.1856385898   -2.2984912006    8.5093862195   -2.1218167101
  5        -10.1891317560   -2.2894783333    8.5195006030   -2.1261392389
  6        -10.1911142562   -2.2849160124    8.5246320974   -2.1283733378
  7        -10.1921506977   -2.2826473329    8.5271859473   -2.1295140514
  8        -10.1926851273   -2.2815219985    8.5284534218   -2.1300957983
  9        -10.1929632671   -2.2809620806    8.5290843811   -2.1303933136
 10        -10.1931100895   -2.2806822783    8.5293998452   -2.1305460626
 11        -10.1931885828   -2.2805418782    8.5295582201   -2.1306248009
 12        -10.1932309625   -2.2804711729    8.5296380158   -2.1306655459
 13        -10.1932540142   -2.2804354512    8.5296783476   -2.1306867097
 14        -10.1932666242   -2.2804173494    8.5296987927   -2.1306977435
 15        -10.1932735535   -2.2804081489    8.5297091868   -2.1307035175
 16        -10.1932773756   -2.2804034581    8.5297144867   -2.1307065505
 17        -10.1932794908   -2.2804010586    8.5297171976   -2.1307081499
 18        -10.1932806648   -2.2803998268    8.5297185890   -2.1307089965
 19        -10.1932813181   -2.2803991920    8.5297193057   -2.1307094466
 20        -10.1932816826   -2.2803988634    8.5297196763   -2.1307096867
 21        -10.1932818864   -2.2803986926    8.5297198688   -2.1307098154
 22        -10.1932820006   -2.2803986034    8.5297199692   -2.1307098847
 23        -10.1932820648   -2.2803985565    8.5297200219   -2.1307099221
Atom SCF converged after  23 iterations to a total energy of    -10.19328206

Atom SCF Calculation for O  : Z (AE atom) =   8 : Z (PS atom) =   6
Config String:
Orbitals (num,occ):  2     2.00 4.00
Orbitals   (num,l):  2        0    1
Real-space Grid (nr,dr,rmax): 1203    0.0066555740    8.0000000000
Spherical Bessel Basis (nsws,lmax,cutoff):   47    1  176.3951722778
Confining potential (l,width,scale):  0    3.0000000000  100.0000000000
Confining potential (l,width,scale):  1    3.0000000000  100.0000000000
  1         -1.9497477053   -7.5870966769   10.1554312477   -2.4822447765
  2        -15.9466298225   -3.1778351734   13.6353006614   -3.2931224232
  3        -16.0387051750   -3.0909030611   13.7305651010   -3.3194522996
  4        -15.9025031450   -3.1083023605   13.7128101414   -3.3180850501
  5        -15.8912953362   -3.1033022259   13.7185404266   -3.3206942093
  6        -15.8793912992   -3.1043100674   13.7175820250   -3.3209366960
  7        -15.8748748605   -3.1043975610   13.7175531476   -3.3211845618
  8        -15.8725354084   -3.1044655610   13.7175148333   -3.3213149154
  9        -15.8713193866   -3.1045129589   13.7174824743   -3.3213832909
 10        -15.8706863385   -3.1045436851   13.7174593895   -3.3214192053
 11        -15.8703562731   -3.1045627330   13.7174442347   -3.3214381098
 12        -15.8701839150   -3.1045741887   13.7174347673   -3.3214480859
 13        -15.8700937727   -3.1045809294   13.7174290448   -3.3214533647
 14        -15.8700465571   -3.1045848305   13.7174256662   -3.3214561658
 15        -15.8700217888   -3.1045870593   13.7174237063   -3.3214576563
 16        -15.8700087767   -3.1045883194   13.7174225849   -3.3214584516
 17        -15.8700019307   -3.1045890258   13.7174219502   -3.3214588771
 18        -15.8699983237   -3.1045894190   13.7174215942   -3.3214591053
 19        -15.8699964206   -3.1045896366   13.7174213960   -3.3214592281
 20        -15.8699954151   -3.1045897563   13.7174212864   -3.3214592942
 21        -15.8699948832   -3.1045898219   13.7174212260   -3.3214593299
 22        -15.8699946014   -3.1045898577   13.7174211930   -3.3214593493
 23        -15.8699944520   -3.1045898771   13.7174211750   -3.3214593597
 24        -15.8699943726   -3.1045898877   13.7174211652   -3.3214593654
Atom SCF converged after  24 iterations to a total energy of    -15.86999437

========================== Calculation in vacuum ==============================
= Adjusting the following parameters: 
= is_implicit_solvent: F
= is_include_apolar: F
= write_denskern: T
= write_tightbox_ngwfs: T
= restart read filename prefix: ""
= restart write filename prefix: "vacuum_"
===============================================================================

Determining parallel strategy ...
... using space-filling curve
... NGWF load balancing: max    109;  min    108;  average    108
... Projector load balancing: max     25;  min     21;  average     22
... done
Calculating direct Ion-Ion energy ...
Ion-Ion Energy        :    826532.81702045165002
Basis initialisation ...... NGWF spheres initialised
... Projector spheres initialised
... NGWF tight boxes initialised
... Tight-boxes gathered
... NGWF basis size (local,global):    1031260  62159139
... Nonlocal pseudopotential projector initialisation
... done

========================== Sparse matrix information ===========================
                        Overlap matrix filling:   6.71%
                        Density kernel filling: 100.00%
              NGWF-Proj overlap matrix filling:   1.77%
                    Hamiltonian matrix filling:   7.59%
                  NGWF diagonal matrix filling:   0.05%
                             KS matrix filling: 100.00% 
                           KSKS matrix filling: 100.00% 
================================================================================

Sparse matrix initialisation ... done

Generating smeared ion density ... done
Smeared ion self correction:     -14457.169564
Smeared ion non-self correction: -826484.708150
NGWF initialisation ...... done
============ Calculation of NGWF S^-1 using Hotelling algorithm ================ 
         Iteration  |  Frobenius norm and Maximum abs value    (of I-S*S_n^-1)   
               1       0.78421398E+02     0.98189789E+00
               2       0.76526203E+02     0.96430938E+00
               3       0.73468291E+02     0.93059384E+00
               4       0.69142165E+02     0.86828630E+00
               5       0.63779500E+02     0.76259706E+00
               6       0.57785363E+02     0.70214362E+00
               7       0.51798059E+02     0.66986549E+00
               8       0.46255380E+02     0.63962147E+00
               9       0.40101469E+02     0.59847910E+00
              10       0.31692722E+02     0.52645624E+00
              11       0.21048831E+02     0.42451831E+00
              12       0.10564905E+02     0.28367028E+00
              13       0.33892949E+01     0.12887031E+00
              14       0.51532733E+00     0.32712865E-01
              15       0.23771866E-01     0.29346567E-02
              16       0.12388575E-03     0.25188268E-04
              17       0.65311640E-08     0.18874200E-08
              18       0.87935090E-13     0.49960036E-14
================================================================================
Calculating local pseudopotential in open BC on the fine real space grid ...
... done

MG BCs: +ve charge blocks (gridpoints):     20545 (   16124019).
MG BCs: -ve charge blocks (gridpoints):      8003 (    1085237).
MG BCs:     Elided blocks (gridpoints):    173369 (  173761369).
MG BCs: Computational effort saved:  99.9851%.
MG BCs: Charge after coarse-graining:           -9.0002298.
MG DL_MG: Calling solver with defect correction order = 8
MG DL_MG: Solver finished
MG Hartree energy from (\int phi*rho dr):              1452.485438
MG Hartree energy from (\int eps (grad phi)^2 dr):     1451.865082
MG Discrepancy due to finite box and discretization:     -0.620356 (  -0.04271%)
MG Correction to account for finite box:                  0.466632
MG Remaining discrepancy, due to discretization:         -0.153724 (  -0.01058%)
Up spin density kernel initialisation ... 
======= Optimisation of K by Palser-Manolopoulos canonical purification ======== 
         Iteration  |  Band structure energy |    c_n   
               1       -2576.54264890541208    0.5269874
               2       -2752.36108262745256    0.5174032
               3       -2932.39643067481165    0.5161540
               4       -3082.44222318236280    0.5303412
               5       -3174.41577501677330    0.5674193
               6       -3212.69545780313456    0.6127043
               7       -3225.70895184384062    0.6224469
               8       -3231.44972324640730    0.6170726
               9       -3234.28262281613706    0.6238244
              10       -3235.47502966666616    0.6409072
              11       -3235.93201797418169    0.6586184
              12       -3236.11326256774919    0.6559799
              13       -3236.19689759189259    0.6018780
              14       -3236.24632462055433    0.5016892
              15       -3236.27320993892545    0.3509851
              16       -3236.27503251282906    0.2856374
              17       -3236.27543851568407    0.2875939
              18       -3236.27562767573500    0.3141571
              19       -3236.27581688854616    0.3512240
              20       -3236.27599809947424    0.3992023
              21       -3236.27614643224933    0.4511845
              22       -3236.27623402741665    0.4881599
              23       -3236.27626379034973    0.4992980
              24       -3236.27627622370801    0.4999975
              25       -3236.27629173977130    0.5000000
              26       -3236.27631164280137    0.5000000
              27       -3236.27633279672045    0.5000000
              28       -3236.27634789075728    0.5000000
              29       -3236.27635276319779    0.5000000
              30       -3236.27635312556686    0.5000003
              31       -3236.27635312735219    0.5000003
Termination criterion satisfied: band energy change below threshold.
Final occupancy bounds: [    0.00000000000000:    0.99999999999999]
Closest occupancy to 0.5:     1.00000000000000
================================================================================
... done

Writing density kernel to file "host_27081.vacuum_dkn" ... done

>>> Optimising kernel for current NGWFs:
   Initial electron number for spin 1:    7192.00000000
     Final electron number for spin 1:    7192.00000000

=================== Penalty functional idempotency correction ==================
 RMS occupancy error at iteration   1:  0.000000 (step -0.5000 Ne1=   7192.0000)
            Final RMS occupancy error   :  0.000000 (Ne1=   7192.0000)
               Final occupancy bounds   : [ -0.0000,  1.0000]
================================================================================

................................................................................
<<<<<<<<<<<<<< LNV (Original version) density kernel optimisation >>>>>>>>>>>>>>
~~~~~~~~~~~~~~~~~~~~~~~~~~~~~~~~~~~~~~~~~~~~~~~~~~~~~~~~~~~~~~~~~~~~~~~~~~~~~~~~
   iter  |      energy (Eh)       | rms gradient |  commutator  |   dE (Eh)
MG BCs: +ve charge blocks (gridpoints):     30830 (   17250995).
MG BCs: -ve charge blocks (gridpoints):      8331 (    1113732).
MG BCs:     Elided blocks (gridpoints):    163077 (  172605898).
MG BCs: Computational effort saved:  99.9795%.
MG BCs: Charge after coarse-graining:           -9.0009842.
MG DL_MG: Calling solver with defect correction order = 8
MG DL_MG: Solver finished
MG Hartree energy from (\int phi*rho dr):              1416.908722
MG Hartree energy from (\int eps (grad phi)^2 dr):     1416.228211
MG Discrepancy due to finite box and discretization:     -0.680511 (  -0.04803%)
MG Correction to account for finite box:                  0.484038
MG Remaining discrepancy, due to discretization:         -0.196473 (  -0.01387%)
      ideal mu1:      -0.694886025612
             Q0:  -11524.027386911679
             G0:    -149.580377250730
   RMS gradient:       0.001880139230
MG BCs: +ve charge blocks (gridpoints):     30811 (   17329363).
MG BCs: -ve charge blocks (gridpoints):      8242 (    1096827).
MG BCs:     Elided blocks (gridpoints):    163097 (  172544435).
MG BCs: Computational effort saved:  99.9796%.
MG BCs: Charge after coarse-graining:           -9.0010054.
MG DL_MG: Calling solver with defect correction order = 8
MG DL_MG: Solver finished
MG Hartree energy from (\int phi*rho dr):              1436.019687
MG Hartree energy from (\int eps (grad phi)^2 dr):     1435.356569
MG Discrepancy due to finite box and discretization:     -0.663119 (  -0.04618%)
MG Correction to account for finite box:                  0.483071
MG Remaining discrepancy, due to discretization:         -0.180047 (  -0.01254%)
     Trial step:       0.500000000000
             Q1:  -11535.883718473255
 Quadratic coef:      62.933857063790
 Linear coef   :     -74.790188625365
           Qmin:  -11546.247431000776
Quadratic minimum step length (  0.297098382789) accepted
    Initial Ne1:    7192.00000000
      Final Ne1:    7192.00000000

=================== Penalty functional idempotency correction ==================
 RMS occupancy error at iteration   1:  0.003585 (step -0.4878 Ne1=   7192.0000)
 RMS occupancy error at iteration   2:  0.000029 (step -0.5001 Ne1=   7192.0000)
            Final RMS occupancy error   :  0.000000 (Ne1=   7192.0000)
               Final occupancy bounds   : [  0.0000,  1.0000]
================================================================================

    1        -1.152402738691E+04     1.8801E-03     1.7005E-03
MG BCs: +ve charge blocks (gridpoints):     30813 (   17298789).
MG BCs: -ve charge blocks (gridpoints):      8272 (    1104476).
MG BCs:     Elided blocks (gridpoints):    163094 (  172567360).
MG BCs: Computational effort saved:  99.9795%.
MG BCs: Charge after coarse-graining:           -9.0009964.
MG DL_MG: Calling solver with defect correction order = 8
MG DL_MG: Solver finished
MG Hartree energy from (\int phi*rho dr):              1420.036751
MG Hartree energy from (\int eps (grad phi)^2 dr):     1419.367565
MG Discrepancy due to finite box and discretization:     -0.669186 (  -0.04712%)
MG Correction to account for finite box:                  0.483362
MG Remaining discrepancy, due to discretization:         -0.185823 (  -0.01309%)
      ideal mu1:      -0.740435078746
             Q0:  -11546.702497046092
             G0:     -12.446006003989
   RMS gradient:       0.000538369721
MG BCs: +ve charge blocks (gridpoints):     30824 (   17315230).
MG BCs: -ve charge blocks (gridpoints):      8256 (    1099872).
MG BCs:     Elided blocks (gridpoints):    163083 (  172555523).
MG BCs: Computational effort saved:  99.9795%.
MG BCs: Charge after coarse-graining:           -9.0010003.
MG DL_MG: Calling solver with defect correction order = 8
MG DL_MG: Solver finished
MG Hartree energy from (\int phi*rho dr):              1424.230284
MG Hartree energy from (\int eps (grad phi)^2 dr):     1423.565494
MG Discrepancy due to finite box and discretization:     -0.664790 (  -0.04668%)
MG Correction to account for finite box:                  0.482290
MG Remaining discrepancy, due to discretization:         -0.182500 (  -0.01281%)
     Trial step:       0.385420797823
             Q1:  -11549.645614164183
 Quadratic coef:       1.853832445679
 Linear coef   :      -4.796949563769
           Qmin:  -11549.805626076304
Quadratic minimum step length (  0.498654593163) accepted
    Initial Ne1:    7191.99988256
      Final Ne1:    7192.00000000

=================== Penalty functional idempotency correction ==================
 RMS occupancy error at iteration   1:  0.001928 (step -0.4926 Ne1=   7192.0000)
 RMS occupancy error at iteration   2:  0.000012 (step -0.5001 Ne1=   7192.0000)
            Final RMS occupancy error   :  0.000000 (Ne1=   7192.0000)
               Final occupancy bounds   : [  0.0000,  1.0000]
================================================================================

    2        -1.154670249705E+04     5.3837E-04     4.8694E-04    -2.2675E+01
MG BCs: +ve charge blocks (gridpoints):     30821 (   17320098).
MG BCs: -ve charge blocks (gridpoints):      8249 (    1098392).
MG BCs:     Elided blocks (gridpoints):    163086 (  172552135).
MG BCs: Computational effort saved:  99.9795%.
MG BCs: Charge after coarse-graining:           -9.0010016.
MG DL_MG: Calling solver with defect correction order = 8
MG DL_MG: Solver finished
MG Hartree energy from (\int phi*rho dr):              1425.513219
MG Hartree energy from (\int eps (grad phi)^2 dr):     1424.849635
MG Discrepancy due to finite box and discretization:     -0.663584 (  -0.04655%)
MG Correction to account for finite box:                  0.481989
MG Remaining discrepancy, due to discretization:         -0.181595 (  -0.01274%)
      ideal mu1:      -0.765538556704
             Q0:  -11549.845622136723
             G0:      -2.008344644799
   RMS gradient:       0.000216477039
MG BCs: +ve charge blocks (gridpoints):     30829 (   17319917).
MG BCs: -ve charge blocks (gridpoints):      8254 (    1099093).
MG BCs:     Elided blocks (gridpoints):    163078 (  172551615).
MG BCs: Computational effort saved:  99.9795%.
MG BCs: Charge after coarse-graining:           -9.0010013.
MG DL_MG: Calling solver with defect correction order = 8
MG DL_MG: Solver finished
MG Hartree energy from (\int phi*rho dr):              1423.866891
MG Hartree energy from (\int eps (grad phi)^2 dr):     1423.204086
MG Discrepancy due to finite box and discretization:     -0.662805 (  -0.04655%)
MG Correction to account for finite box:                  0.481371
MG Remaining discrepancy, due to discretization:         -0.181434 (  -0.01274%)
     Trial step:       0.438396910499
             Q1:  -11550.363653474837
 Quadratic coef:       0.362420749383
 Linear coef   :      -0.880452087497
           Qmin:  -11550.380356888871
Quadratic minimum step length (  0.532512936495) accepted
    Initial Ne1:    7191.99993133
      Final Ne1:    7192.00000000

=================== Penalty functional idempotency correction ==================
 RMS occupancy error at iteration   1:  0.000689 (step -0.4967 Ne1=   7192.0000)
 RMS occupancy error at iteration   2:  0.000004 (step -0.5000 Ne1=   7192.0000)
            Final RMS occupancy error   :  0.000000 (Ne1=   7192.0000)
               Final occupancy bounds   : [  0.0000,  1.0000]
================================================================================

    3        -1.154984562214E+04     2.1648E-04     1.9580E-04    -3.1431E+00
MG BCs: +ve charge blocks (gridpoints):     30831 (   17319778).
MG BCs: -ve charge blocks (gridpoints):      8253 (    1099306).
MG BCs:     Elided blocks (gridpoints):    163075 (  172551541).
MG BCs: Computational effort saved:  99.9795%.
MG BCs: Charge after coarse-graining:           -9.0010013.
MG DL_MG: Calling solver with defect correction order = 8
MG DL_MG: Solver finished
MG Hartree energy from (\int phi*rho dr):              1423.521445
MG Hartree energy from (\int eps (grad phi)^2 dr):     1422.858795
MG Discrepancy due to finite box and discretization:     -0.662650 (  -0.04655%)
MG Correction to account for finite box:                  0.481239
MG Remaining discrepancy, due to discretization:         -0.181411 (  -0.01274%)
      ideal mu1:      -0.766861383456
             Q0:  -11550.385864041280
             G0:      -0.558448269904
   RMS gradient:       0.000114219403
MG BCs: +ve charge blocks (gridpoints):     30825 (   17320716).
MG BCs: -ve charge blocks (gridpoints):      8254 (    1099189).
MG BCs:     Elided blocks (gridpoints):    163081 (  172550720).
MG BCs: Computational effort saved:  99.9795%.
MG BCs: Charge after coarse-graining:           -9.0010013.
MG DL_MG: Calling solver with defect correction order = 8
MG DL_MG: Solver finished
MG Hartree energy from (\int phi*rho dr):              1424.665062
MG Hartree energy from (\int eps (grad phi)^2 dr):     1424.002507
MG Discrepancy due to finite box and discretization:     -0.662555 (  -0.04651%)
MG Correction to account for finite box:                  0.481087
MG Remaining discrepancy, due to discretization:         -0.181469 (  -0.01274%)
     Trial step:       0.483168734667
             Q1:  -11550.524268779089
 Quadratic coef:       0.131420006139
 Linear coef   :      -0.269824743947
           Qmin:  -11550.524361585500
Quadratic minimum step length (  0.496008499562) accepted
    Initial Ne1:    7191.99998226
      Final Ne1:    7192.00000000

=================== Penalty functional idempotency correction ==================
 RMS occupancy error at iteration   1:  0.000331 (step -0.4944 Ne1=   7192.0000)
 RMS occupancy error at iteration   2:  0.000004 (step -0.5000 Ne1=   7192.0000)
            Final RMS occupancy error   :  0.000000 (Ne1=   7192.0000)
               Final occupancy bounds   : [  0.0000,  1.0000]
================================================================================

    4        -1.155038586404E+04     1.1422E-04     1.0331E-04    -5.4024E-01
MG BCs: +ve charge blocks (gridpoints):     30825 (   17320746).
MG BCs: -ve charge blocks (gridpoints):      8254 (    1099177).
MG BCs:     Elided blocks (gridpoints):    163081 (  172550702).
MG BCs: Computational effort saved:  99.9795%.
MG BCs: Charge after coarse-graining:           -9.0010013.
MG DL_MG: Calling solver with defect correction order = 8
MG DL_MG: Solver finished
MG Hartree energy from (\int phi*rho dr):              1424.696164
MG Hartree energy from (\int eps (grad phi)^2 dr):     1424.033611
MG Discrepancy due to finite box and discretization:     -0.662553 (  -0.04650%)
MG Correction to account for finite box:                  0.481083
MG Remaining discrepancy, due to discretization:         -0.181471 (  -0.01274%)
      ideal mu1:      -0.767091037187
             Q0:  -11550.525124979438
             G0:      -0.220339436653
   RMS gradient:       0.000071985298
MG BCs: +ve charge blocks (gridpoints):     30826 (   17321064).
MG BCs: -ve charge blocks (gridpoints):      8254 (    1098877).
MG BCs:     Elided blocks (gridpoints):    163080 (  172550684).
MG BCs: Computational effort saved:  99.9795%.
MG BCs: Charge after coarse-graining:           -9.0010013.
MG DL_MG: Calling solver with defect correction order = 8
MG DL_MG: Solver finished
MG Hartree energy from (\int phi*rho dr):              1425.141473
MG Hartree energy from (\int eps (grad phi)^2 dr):     1424.478858
MG Discrepancy due to finite box and discretization:     -0.662614 (  -0.04649%)
MG Correction to account for finite box:                  0.480964
MG Remaining discrepancy, due to discretization:         -0.181650 (  -0.01275%)
     Trial step:       0.489546523956
             Q1:  -11550.599107175367
 Quadratic coef:       0.033884209375
 Linear coef   :      -0.107866405304
           Qmin:  -11550.610969991081
Quadratic minimum step length (  0.779206963097) accepted
    Initial Ne1:    7191.99998852
      Final Ne1:    7192.00000000

=================== Penalty functional idempotency correction ==================
 RMS occupancy error at iteration   1:  0.000733 (step -0.4605 Ne1=   7192.0000)
 RMS occupancy error at iteration   2:  0.000023 (step -0.5000 Ne1=   7192.0000)
            Final RMS occupancy error   :  0.000000 (Ne1=   7192.0000)
               Final occupancy bounds   : [  0.0000,  1.0000]
================================================================================

    5        -1.155052512498E+04     7.1985E-05     6.5109E-05    -1.3926E-01
MG BCs: +ve charge blocks (gridpoints):     30827 (   17321161).
MG BCs: -ve charge blocks (gridpoints):      8253 (    1098763).
MG BCs:     Elided blocks (gridpoints):    163079 (  172550701).
MG BCs: Computational effort saved:  99.9795%.
MG BCs: Charge after coarse-graining:           -9.0010013.
MG DL_MG: Calling solver with defect correction order = 8
MG DL_MG: Solver finished
MG Hartree energy from (\int phi*rho dr):              1425.402441
MG Hartree energy from (\int eps (grad phi)^2 dr):     1424.739792
MG Discrepancy due to finite box and discretization:     -0.662650 (  -0.04649%)
MG Correction to account for finite box:                  0.480893
MG Remaining discrepancy, due to discretization:         -0.181757 (  -0.01275%)
      ideal mu1:      -0.766872487573
             Q0:  -11550.608907777118
             G0:      -0.237373618824
   RMS gradient:       0.000076159150
MG BCs: +ve charge blocks (gridpoints):     30827 (   17320240).
MG BCs: -ve charge blocks (gridpoints):      8253 (    1099303).
MG BCs:     Elided blocks (gridpoints):    163079 (  172551082).
MG BCs: Computational effort saved:  99.9795%.
MG BCs: Charge after coarse-graining:           -9.0010010.
MG DL_MG: Calling solver with defect correction order = 8
MG DL_MG: Solver finished
MG Hartree energy from (\int phi*rho dr):              1423.805375
MG Hartree energy from (\int eps (grad phi)^2 dr):     1423.142853
MG Discrepancy due to finite box and discretization:     -0.662523 (  -0.04653%)
MG Correction to account for finite box:                  0.480756
MG Remaining discrepancy, due to discretization:         -0.181766 (  -0.01277%)
     Trial step:       0.617622911028
             Q1:  -11550.707134041237
 Quadratic coef:       0.048381121340
 Linear coef   :      -0.146607385459
           Qmin:  -11550.719972407680
Quadratic minimum step length (  0.935779056769) accepted
    Initial Ne1:    7191.99988047
      Final Ne1:    7192.00000000

=================== Penalty functional idempotency correction ==================
 RMS occupancy error at iteration   1:  0.004057 (step -0.3299 Ne1=   7192.0000)
 RMS occupancy error at iteration   2:  0.000309 (step -0.4902 Ne1=   7192.0000)
 RMS occupancy error at iteration   3:  0.000007 (step -0.5004 Ne1=   7192.0000)
            Final RMS occupancy error   :  0.000000 (Ne1=   7192.0000)
               Final occupancy bounds   : [  0.0000,  1.0000]
================================================================================

    6        -1.155060890778E+04     7.6159E-05     6.8884E-05    -8.3783E-02
MG BCs: +ve charge blocks (gridpoints):     30824 (   17319751).
MG BCs: -ve charge blocks (gridpoints):      8254 (    1099578).
MG BCs:     Elided blocks (gridpoints):    163082 (  172551296).
MG BCs: Computational effort saved:  99.9795%.
MG BCs: Charge after coarse-graining:           -9.0010009.
MG DL_MG: Calling solver with defect correction order = 8
MG DL_MG: Solver finished
MG Hartree energy from (\int phi*rho dr):              1423.012842
MG Hartree energy from (\int eps (grad phi)^2 dr):     1422.350357
MG Discrepancy due to finite box and discretization:     -0.662484 (  -0.04656%)
MG Correction to account for finite box:                  0.480711
MG Remaining discrepancy, due to discretization:         -0.181774 (  -0.01277%)
      ideal mu1:      -0.766126187536
             Q0:  -11550.710133379558
             G0:      -0.314759189540
   RMS gradient:       0.000086246585
MG BCs: +ve charge blocks (gridpoints):     30822 (   17321441).
MG BCs: -ve charge blocks (gridpoints):      8256 (    1098787).
MG BCs:     Elided blocks (gridpoints):    163084 (  172550397).
MG BCs: Computational effort saved:  99.9795%.
MG BCs: Charge after coarse-graining:           -9.0010015.
MG DL_MG: Calling solver with defect correction order = 8
MG DL_MG: Solver finished
MG Hartree energy from (\int phi*rho dr):              1425.051236
MG Hartree energy from (\int eps (grad phi)^2 dr):     1424.389042
MG Discrepancy due to finite box and discretization:     -0.662194 (  -0.04647%)
MG Correction to account for finite box:                  0.480702
MG Remaining discrepancy, due to discretization:         -0.181492 (  -0.01274%)
     Trial step:       0.760235874660
             Q1:  -11550.813050696510
 Quadratic coef:       0.136373910816
 Linear coef   :      -0.239291227768
           Qmin:  -11550.815102671968
Quadratic minimum step length (  0.666981590362) accepted
    Initial Ne1:    7191.99995516
      Final Ne1:    7192.00000000

=================== Penalty functional idempotency correction ==================
 RMS occupancy error at iteration   1:  0.000173 (step -0.4905 Ne1=   7192.0000)
 RMS occupancy error at iteration   2:  0.000001 (step -0.5000 Ne1=   7192.0000)
            Final RMS occupancy error   :  0.000000 (Ne1=   7192.0000)
               Final occupancy bounds   : [  0.0000,  1.0000]
================================================================================

    7        -1.155071013338E+04     8.6247E-05     7.8008E-05    -1.0123E-01
MG BCs: +ve charge blocks (gridpoints):     30824 (   17321245).
MG BCs: -ve charge blocks (gridpoints):      8256 (    1098868).
MG BCs:     Elided blocks (gridpoints):    163082 (  172550512).
MG BCs: Computational effort saved:  99.9795%.
MG BCs: Charge after coarse-graining:           -9.0010014.
MG DL_MG: Calling solver with defect correction order = 8
MG DL_MG: Solver finished
MG Hartree energy from (\int phi*rho dr):              1424.800592
MG Hartree energy from (\int eps (grad phi)^2 dr):     1424.138364
MG Discrepancy due to finite box and discretization:     -0.662228 (  -0.04648%)
MG Correction to account for finite box:                  0.480702
MG Remaining discrepancy, due to discretization:         -0.181526 (  -0.01274%)
      ideal mu1:      -0.767335670934
             Q0:  -11550.815193574294
             G0:      -0.223407463362
   RMS gradient:       0.000072644756
MG BCs: +ve charge blocks (gridpoints):     30826 (   17321337).
MG BCs: -ve charge blocks (gridpoints):      8254 (    1098717).
MG BCs:     Elided blocks (gridpoints):    163080 (  172550571).
MG BCs: Computational effort saved:  99.9795%.
MG BCs: Charge after coarse-graining:           -9.0010016.
MG DL_MG: Calling solver with defect correction order = 8
MG DL_MG: Solver finished
MG Hartree energy from (\int phi*rho dr):              1424.816804
MG Hartree energy from (\int eps (grad phi)^2 dr):     1424.154655
MG Discrepancy due to finite box and discretization:     -0.662149 (  -0.04647%)
MG Correction to account for finite box:                  0.480746
MG Remaining discrepancy, due to discretization:         -0.181403 (  -0.01273%)
     Trial step:       0.712083796144
             Q1:  -11550.900696475524
 Quadratic coef:       0.073581933368
 Linear coef   :      -0.159084834598
           Qmin:  -11550.901179302857
Quadratic minimum step length (  0.769765944878) accepted
    Initial Ne1:    7191.99996321
      Final Ne1:    7192.00000000

=================== Penalty functional idempotency correction ==================
 RMS occupancy error at iteration   1:  0.000973 (step -0.4490 Ne1=   7192.0000)
 RMS occupancy error at iteration   2:  0.000012 (step -0.4998 Ne1=   7192.0000)
            Final RMS occupancy error   :  0.000000 (Ne1=   7192.0000)
               Final occupancy bounds   : [ -0.0000,  1.0000]
================================================================================

    8        -1.155081519357E+04     7.2645E-05     6.5706E-05    -1.0506E-01
MG BCs: +ve charge blocks (gridpoints):     30827 (   17321359).
MG BCs: -ve charge blocks (gridpoints):      8253 (    1098710).
MG BCs:     Elided blocks (gridpoints):    163079 (  172550556).
MG BCs: Computational effort saved:  99.9795%.
MG BCs: Charge after coarse-graining:           -9.0010016.
MG DL_MG: Calling solver with defect correction order = 8
MG DL_MG: Solver finished
MG Hartree energy from (\int phi*rho dr):              1424.820123
MG Hartree energy from (\int eps (grad phi)^2 dr):     1424.157981
MG Discrepancy due to finite box and discretization:     -0.662141 (  -0.04647%)
MG Correction to account for finite box:                  0.480748
MG Remaining discrepancy, due to discretization:         -0.181394 (  -0.01273%)
      ideal mu1:      -0.767201664152
             Q0:  -11550.900876961532
             G0:      -0.183410182929
   RMS gradient:       0.000065821104
MG BCs: +ve charge blocks (gridpoints):     30824 (   17320542).
MG BCs: -ve charge blocks (gridpoints):      8252 (    1099058).
MG BCs:     Elided blocks (gridpoints):    163082 (  172551025).
MG BCs: Computational effort saved:  99.9795%.
MG BCs: Charge after coarse-graining:           -9.0010014.
MG DL_MG: Calling solver with defect correction order = 8
MG DL_MG: Solver finished
MG Hartree energy from (\int phi*rho dr):              1423.805128
MG Hartree energy from (\int eps (grad phi)^2 dr):     1423.142851
MG Discrepancy due to finite box and discretization:     -0.662277 (  -0.04651%)
MG Correction to account for finite box:                  0.480927
MG Remaining discrepancy, due to discretization:         -0.181350 (  -0.01274%)
     Trial step:       0.740363327138
             Q1:  -11550.971119366935
 Quadratic coef:       0.065547767861
 Linear coef   :      -0.135790173264
           Qmin:  -11550.971203426325
Quadratic minimum step length (  0.766876338822) accepted
    Initial Ne1:    7192.00004852
      Final Ne1:    7192.00000000

=================== Penalty functional idempotency correction ==================
 RMS occupancy error at iteration   1:  0.002442 (step -0.3876 Ne1=   7192.0000)
 RMS occupancy error at iteration   2:  0.000072 (step -0.4991 Ne1=   7192.0000)
 RMS occupancy error at iteration   3:  0.000000 (step -0.5000 Ne1=   7192.0000)
            Final RMS occupancy error   :  0.000000 (Ne1=   7192.0000)
               Final occupancy bounds   : [  0.0000,  1.0000]
================================================================================

    9        -1.155090087696E+04     6.5821E-05     5.9534E-05    -8.5683E-02
MG BCs: +ve charge blocks (gridpoints):     30824 (   17320529).
MG BCs: -ve charge blocks (gridpoints):      8253 (    1099084).
MG BCs:     Elided blocks (gridpoints):    163082 (  172551012).
MG BCs: Computational effort saved:  99.9795%.
MG BCs: Charge after coarse-graining:           -9.0010014.
MG DL_MG: Calling solver with defect correction order = 8
MG DL_MG: Solver finished
MG Hartree energy from (\int phi*rho dr):              1423.772244
MG Hartree energy from (\int eps (grad phi)^2 dr):     1423.109960
MG Discrepancy due to finite box and discretization:     -0.662284 (  -0.04652%)
MG Correction to account for finite box:                  0.480935
MG Remaining discrepancy, due to discretization:         -0.181349 (  -0.01274%)
      ideal mu1:      -0.766387196824
   10        -1.155097294541E+04     5.6649E-05     5.1238E-05    -7.2068E-02
Finished density kernel iterations (  10)

Writing density kernel to file "host_27081.vacuum_dkn" ... done


>>> Density kernel optimised for the current NGWF basis:
     ~~~~~~~~~~~~~~~~~~~~~~~~~~~~~~~~~~~~~~~~~~~~~~~~~~~~~~~~~~~
     Total energy                =  -1.15509729454102E+04  Eh
     Estimated bandgap           =  -4.9453E-01  Eh
     RMS occupancy error         =   1.7832E-11
     [H,K] commutator            =   5.1238E-05
     Occupancy bounds            = [  0.000:  1.000]
     ~~~~~~~~~~~~~~~~~~~~~~~~~~~~~~~~~~~~~~~~~~~~~~~~~~~~~~~~~~~




################################################################################
########################### NGWF CG iteration  001 #############################
################################################################################
****** Reciprocal space K.E. preconditioning with k_zero =  3.5000 a0^-1 *******

>>> Checking for convergence of NGWFs:   NOT CONVERGED
  ========================================================================
         NGWF RMS gradient =  1.5990E-03 >  2.0000E-06  | above tolerance
  ========================================================================

>>> Improving NGWFs using line search:
============ Calculation of NGWF S^-1 using Hotelling algorithm ================ 
         Iteration  |  Frobenius norm and Maximum abs value    (of I-S*S_n^-1)   
               1       0.19864520E+00     0.51417537E-02
               2       0.91113676E-03     0.43516410E-04
               3       0.32539177E-07     0.33014719E-08
               4       0.12374371E-12     0.64392935E-14
================================================================================
MG BCs: +ve charge blocks (gridpoints):     30314 (   17262794).
MG BCs: -ve charge blocks (gridpoints):      8269 (    1098804).
MG BCs:     Elided blocks (gridpoints):    163593 (  172609027).
MG BCs: Computational effort saved:  99.9798%.
MG BCs: Charge after coarse-graining:           -9.0010017.
MG DL_MG: Calling solver with defect correction order = 8
MG DL_MG: Solver finished
MG Hartree energy from (\int phi*rho dr):              1391.705726
MG Hartree energy from (\int eps (grad phi)^2 dr):     1391.044331
MG Discrepancy due to finite box and discretization:     -0.661396 (  -0.04752%)
MG Correction to account for finite box:                  0.480794
MG Remaining discrepancy, due to discretization:         -0.180601 (  -0.01298%)
============ Calculation of NGWF S^-1 using Hotelling algorithm ================ 
         Iteration  |  Frobenius norm and Maximum abs value    (of I-S*S_n^-1)   
               1       0.18738804E+01     0.41967602E-01
               2       0.72965800E-01     0.26648264E-02
               3       0.14850020E-03     0.12534812E-04
               4       0.12289816E-08     0.29048774E-09
               5       0.10751865E-12     0.57731597E-14
================================================================================
------------------------------- NGWF line search -------------------------------
RMS gradient                =       0.00159901685304
Trial step length           =               0.122474
Gradient along search dir.  =       -279.23263769274
Functional at step 0        =  -11550.97294541017618
Functional at step 1        =  -11582.56359273602720
Functional predicted        =  -11663.07621453587490
Selected quadratic step     =               0.802938
--------------------------- NGWF line search finished --------------------------
                                               
Writing NGWFs to file "host_27081.vacuum_tightbox_ngwfs"....  done

>>> Optimising kernel for current NGWFs:
   Initial electron number for spin 1:    7227.62240756
     Final electron number for spin 1:    7192.00000000

=================== Penalty functional idempotency correction ==================
 RMS occupancy error at iteration   1:  0.004309 (step -0.4860 Ne1=   7192.0000)
 RMS occupancy error at iteration   2:  0.000071 (step -0.5003 Ne1=   7192.0000)
            Final RMS occupancy error   :  0.000000 (Ne1=   7192.0000)
               Final occupancy bounds   : [  0.0000,  1.0000]
================================================================================

................................................................................
<<<<<<<<<<<<<< LNV (Original version) density kernel optimisation >>>>>>>>>>>>>>
~~~~~~~~~~~~~~~~~~~~~~~~~~~~~~~~~~~~~~~~~~~~~~~~~~~~~~~~~~~~~~~~~~~~~~~~~~~~~~~~
   iter  |      energy (Eh)       | rms gradient |  commutator  |   dE (Eh)
MG BCs: +ve charge blocks (gridpoints):     24615 (   17002705).
MG BCs: -ve charge blocks (gridpoints):      8392 (    1080277).
MG BCs:     Elided blocks (gridpoints):    169299 (  172887643).
MG BCs: Computational effort saved:  99.9827%.
MG BCs: Charge after coarse-graining:           -9.0006765.
MG DL_MG: Calling solver with defect correction order = 8
MG DL_MG: Solver finished
MG Hartree energy from (\int phi*rho dr):              1236.434909
MG Hartree energy from (\int eps (grad phi)^2 dr):     1235.773912
MG Discrepancy due to finite box and discretization:     -0.660997 (  -0.05346%)
MG Correction to account for finite box:                  0.480108
MG Remaining discrepancy, due to discretization:         -0.180889 (  -0.01463%)
      ideal mu1:      -0.707089705672
             Q0:  -11662.110300589586
             G0:     -10.195685660368
   RMS gradient:       0.000490863701
MG BCs: +ve charge blocks (gridpoints):     24693 (   17027709).
MG BCs: -ve charge blocks (gridpoints):      8368 (    1073550).
MG BCs:     Elided blocks (gridpoints):    169221 (  172869366).
MG BCs: Computational effort saved:  99.9827%.
MG BCs: Charge after coarse-graining:           -9.0006706.
MG DL_MG: Calling solver with defect correction order = 8
MG DL_MG: Solver finished
MG Hartree energy from (\int phi*rho dr):              1257.884608
MG Hartree energy from (\int eps (grad phi)^2 dr):     1257.218764
MG Discrepancy due to finite box and discretization:     -0.665844 (  -0.05293%)
MG Correction to account for finite box:                  0.478814
MG Remaining discrepancy, due to discretization:         -0.187029 (  -0.01487%)
     Trial step:       0.753503230062
             Q1:  -11661.083197576809
 Quadratic coef:       8.709585090563
 Linear coef   :      -7.682482077786
           Qmin:  -11663.804426379213
Quadratic minimum step length (  0.332322091139) accepted
    Initial Ne1:    7191.99955252
      Final Ne1:    7192.00000000

=================== Penalty functional idempotency correction ==================
 RMS occupancy error at iteration   1:  0.000370 (step -0.4985 Ne1=   7192.0000)
 RMS occupancy error at iteration   2:  0.000000 (step -0.5000 Ne1=   7192.0000)
            Final RMS occupancy error   :  0.000000 (Ne1=   7192.0000)
               Final occupancy bounds   : [  0.0000,  1.0000]
================================================================================

    1        -1.166211030059E+04     4.9086E-04     4.4397E-04
MG BCs: +ve charge blocks (gridpoints):     24642 (   17013813).
MG BCs: -ve charge blocks (gridpoints):      8385 (    1077405).
MG BCs:     Elided blocks (gridpoints):    169272 (  172879407).
MG BCs: Computational effort saved:  99.9827%.
MG BCs: Charge after coarse-graining:           -9.0006738.
MG DL_MG: Calling solver with defect correction order = 8
MG DL_MG: Solver finished
MG Hartree energy from (\int phi*rho dr):              1244.843142
MG Hartree energy from (\int eps (grad phi)^2 dr):     1244.180123
MG Discrepancy due to finite box and discretization:     -0.663019 (  -0.05326%)
MG Correction to account for finite box:                  0.479505
MG Remaining discrepancy, due to discretization:         -0.183514 (  -0.01474%)
      ideal mu1:      -0.714325095850
             Q0:  -11663.774189527612
             G0:      -1.023139895581
   RMS gradient:       0.000156312663
MG BCs: +ve charge blocks (gridpoints):     24646 (   17014898).
MG BCs: -ve charge blocks (gridpoints):      8386 (    1077715).
MG BCs:     Elided blocks (gridpoints):    169268 (  172878012).
MG BCs: Computational effort saved:  99.9827%.
MG BCs: Charge after coarse-graining:           -9.0006735.
MG DL_MG: Calling solver with defect correction order = 8
MG DL_MG: Solver finished
MG Hartree energy from (\int phi*rho dr):              1246.549435
MG Hartree energy from (\int eps (grad phi)^2 dr):     1245.886301
MG Discrepancy due to finite box and discretization:     -0.663135 (  -0.05320%)
MG Correction to account for finite box:                  0.479312
MG Remaining discrepancy, due to discretization:         -0.183823 (  -0.01475%)
     Trial step:       0.500405604580
             Q1:  -11663.987860215479
 Quadratic coef:       0.298314250151
 Linear coef   :      -0.511984938017
           Qmin:  -11663.993864397840
Quadratic minimum step length (  0.429413164666) accepted
    Initial Ne1:    7191.99994135
      Final Ne1:    7192.00000000

=================== Penalty functional idempotency correction ==================
 RMS occupancy error at iteration   1:  0.000157 (step -0.4990 Ne1=   7192.0000)
 RMS occupancy error at iteration   2:  0.000000 (step -0.5000 Ne1=   7192.0000)
            Final RMS occupancy error   :  0.000000 (Ne1=   7192.0000)
               Final occupancy bounds   : [  0.0000,  1.0000]
================================================================================

    2        -1.166377418953E+04     1.5631E-04     1.4138E-04    -1.6639E+00
MG BCs: +ve charge blocks (gridpoints):     24648 (   17014739).
MG BCs: -ve charge blocks (gridpoints):      8388 (    1077681).
MG BCs:     Elided blocks (gridpoints):    169266 (  172878205).
MG BCs: Computational effort saved:  99.9827%.
MG BCs: Charge after coarse-graining:           -9.0006735.
MG DL_MG: Calling solver with defect correction order = 8
MG DL_MG: Solver finished
MG Hartree energy from (\int phi*rho dr):              1246.306943
MG Hartree energy from (\int eps (grad phi)^2 dr):     1245.643826
MG Discrepancy due to finite box and discretization:     -0.663117 (  -0.05321%)
MG Correction to account for finite box:                  0.479340
MG Remaining discrepancy, due to discretization:         -0.183777 (  -0.01475%)
      ideal mu1:      -0.715884428866
             Q0:  -11663.994370094966
             G0:      -0.186960782160
   RMS gradient:       0.000066398372
MG BCs: +ve charge blocks (gridpoints):     24644 (   17013866).
MG BCs: -ve charge blocks (gridpoints):      8388 (    1078137).
MG BCs:     Elided blocks (gridpoints):    169270 (  172878622).
MG BCs: Computational effort saved:  99.9827%.
MG BCs: Charge after coarse-graining:           -9.0006736.
MG DL_MG: Calling solver with defect correction order = 8
MG DL_MG: Solver finished
MG Hartree energy from (\int phi*rho dr):              1245.724908
MG Hartree energy from (\int eps (grad phi)^2 dr):     1245.062024
MG Discrepancy due to finite box and discretization:     -0.662885 (  -0.05321%)
MG Correction to account for finite box:                  0.479130
MG Remaining discrepancy, due to discretization:         -0.183755 (  -0.01475%)
     Trial step:       0.463552320972
             Q1:  -11664.055829801946
 Quadratic coef:       0.025206397522
 Linear coef   :      -0.086666104501
           Qmin:  -11664.068865207395
Quadratic minimum step length (  0.796906298407) accepted
    Initial Ne1:    7191.99998034
      Final Ne1:    7192.00000000

=================== Penalty functional idempotency correction ==================
 RMS occupancy error at iteration   1:  0.000246 (step -0.4861 Ne1=   7192.0000)
 RMS occupancy error at iteration   2:  0.000003 (step -0.5000 Ne1=   7192.0000)
            Final RMS occupancy error   :  0.000000 (Ne1=   7192.0000)
               Final occupancy bounds   : [  0.0000,  1.0000]
================================================================================

    3        -1.166399437009E+04     6.6398E-05     6.0056E-05    -2.2018E-01
MG BCs: +ve charge blocks (gridpoints):     24642 (   17013298).
MG BCs: -ve charge blocks (gridpoints):      8386 (    1078470).
MG BCs:     Elided blocks (gridpoints):    169272 (  172878857).
MG BCs: Computational effort saved:  99.9827%.
MG BCs: Charge after coarse-graining:           -9.0006736.
MG DL_MG: Calling solver with defect correction order = 8
MG DL_MG: Solver finished
MG Hartree energy from (\int phi*rho dr):              1245.305978
MG Hartree energy from (\int eps (grad phi)^2 dr):     1244.643269
MG Discrepancy due to finite box and discretization:     -0.662709 (  -0.05322%)
MG Correction to account for finite box:                  0.478969
MG Remaining discrepancy, due to discretization:         -0.183739 (  -0.01475%)
      ideal mu1:      -0.715091590445
             Q0:  -11664.068804150214
             G0:      -0.090406262454
   RMS gradient:       0.000046218370
MG BCs: +ve charge blocks (gridpoints):     24642 (   17013551).
MG BCs: -ve charge blocks (gridpoints):      8387 (    1078371).
MG BCs:     Elided blocks (gridpoints):    169272 (  172878703).
MG BCs: Computational effort saved:  99.9827%.
MG BCs: Charge after coarse-graining:           -9.0006736.
MG DL_MG: Calling solver with defect correction order = 8
MG DL_MG: Solver finished
MG Hartree energy from (\int phi*rho dr):              1245.381118
MG Hartree energy from (\int eps (grad phi)^2 dr):     1244.718928
MG Discrepancy due to finite box and discretization:     -0.662189 (  -0.05317%)
MG Correction to account for finite box:                  0.478600
MG Remaining discrepancy, due to discretization:         -0.183590 (  -0.01474%)
     Trial step:       0.607789243261
             Q1:  -11664.104681403725
 Quadratic coef:       0.019070700331
 Linear coef   :      -0.054947953843
           Qmin:  -11664.108384207306
Quadratic minimum step length (  0.875604322466) accepted
    Initial Ne1:    7191.99998787
      Final Ne1:    7192.00000000

=================== Penalty functional idempotency correction ==================
 RMS occupancy error at iteration   1:  0.000615 (step -0.4599 Ne1=   7192.0000)
 RMS occupancy error at iteration   2:  0.000013 (step -0.4995 Ne1=   7192.0000)
            Final RMS occupancy error   :  0.000000 (Ne1=   7192.0000)
               Final occupancy bounds   : [ -0.0000,  1.0000]
================================================================================

    4        -1.166406880415E+04     4.6218E-05     4.1803E-05    -7.4434E-02
MG BCs: +ve charge blocks (gridpoints):     24643 (   17013631).
MG BCs: -ve charge blocks (gridpoints):      8387 (    1078347).
MG BCs:     Elided blocks (gridpoints):    169271 (  172878647).
MG BCs: Computational effort saved:  99.9827%.
MG BCs: Charge after coarse-graining:           -9.0006736.
MG DL_MG: Calling solver with defect correction order = 8
MG DL_MG: Solver finished
MG Hartree energy from (\int phi*rho dr):              1245.416848
MG Hartree energy from (\int eps (grad phi)^2 dr):     1244.754892
MG Discrepancy due to finite box and discretization:     -0.661955 (  -0.05315%)
MG Correction to account for finite box:                  0.478431
MG Remaining discrepancy, due to discretization:         -0.183524 (  -0.01474%)
      ideal mu1:      -0.715966365820
             Q0:  -11664.107866809121
             G0:      -0.114846765332
   RMS gradient:       0.000052306779
MG BCs: +ve charge blocks (gridpoints):     24646 (   17015389).
MG BCs: -ve charge blocks (gridpoints):      8383 (    1077814).
MG BCs:     Elided blocks (gridpoints):    169268 (  172877422).
MG BCs: Computational effort saved:  99.9827%.
MG BCs: Charge after coarse-graining:           -9.0006731.
MG DL_MG: Calling solver with defect correction order = 8
MG DL_MG: Solver finished
MG Hartree energy from (\int phi*rho dr):              1246.522967
MG Hartree energy from (\int eps (grad phi)^2 dr):     1245.862036
MG Discrepancy due to finite box and discretization:     -0.660930 (  -0.05302%)
MG Correction to account for finite box:                  0.477525
MG Remaining discrepancy, due to discretization:         -0.183405 (  -0.01471%)
     Trial step:       0.729508662421
             Q1:  -11664.154712078511
 Quadratic coef:       0.036936440771
 Linear coef   :      -0.083781710161
           Qmin:  -11664.155376631474
Quadratic minimum step length (  0.827360217168) accepted
    Initial Ne1:    7192.00014432
      Final Ne1:    7192.00000000

=================== Penalty functional idempotency correction ==================
 RMS occupancy error at iteration   1:  0.002347 (step -0.3770 Ne1=   7192.0000)
 RMS occupancy error at iteration   2:  0.000127 (step -0.4928 Ne1=   7192.0000)
 RMS occupancy error at iteration   3:  0.000001 (step -0.5000 Ne1=   7192.0000)
            Final RMS occupancy error   :  0.000000 (Ne1=   7192.0000)
               Final occupancy bounds   : [  0.0000,  1.0000]
================================================================================

    5        -1.166410786681E+04     5.2307E-05     4.7310E-05    -3.9063E-02
MG BCs: +ve charge blocks (gridpoints):     24646 (   17015614).
MG BCs: -ve charge blocks (gridpoints):      8383 (    1077737).
MG BCs:     Elided blocks (gridpoints):    169268 (  172877274).
MG BCs: Computational effort saved:  99.9827%.
MG BCs: Charge after coarse-graining:           -9.0006731.
MG DL_MG: Calling solver with defect correction order = 8
MG DL_MG: Solver finished
MG Hartree energy from (\int phi*rho dr):              1246.673828
MG Hartree energy from (\int eps (grad phi)^2 dr):     1246.012982
MG Discrepancy due to finite box and discretization:     -0.660846 (  -0.05301%)
MG Correction to account for finite box:                  0.477457
MG Remaining discrepancy, due to discretization:         -0.183389 (  -0.01471%)
      ideal mu1:      -0.717815755038
             Q0:  -11664.155473899213
             G0:      -0.110093064021
   RMS gradient:       0.000049582236
MG BCs: +ve charge blocks (gridpoints):     24645 (   17015377).
MG BCs: -ve charge blocks (gridpoints):      8385 (    1077923).
MG BCs:     Elided blocks (gridpoints):    169269 (  172877325).
MG BCs: Computational effort saved:  99.9827%.
MG BCs: Charge after coarse-graining:           -9.0006731.
MG DL_MG: Calling solver with defect correction order = 8
MG DL_MG: Solver finished
MG Hartree energy from (\int phi*rho dr):              1246.300745
MG Hartree energy from (\int eps (grad phi)^2 dr):     1245.640712
MG Discrepancy due to finite box and discretization:     -0.660032 (  -0.05296%)
MG Correction to account for finite box:                  0.476589
MG Remaining discrepancy, due to discretization:         -0.183443 (  -0.01472%)
     Trial step:       0.776895388947
             Q1:  -11664.198704532115
 Quadratic coef:       0.042300160891
 Linear coef   :      -0.085530793793
           Qmin:  -11664.198709648988
Quadratic minimum step length (  0.785440030387) accepted
    Initial Ne1:    7192.00012285
      Final Ne1:    7192.00000000

=================== Penalty functional idempotency correction ==================
 RMS occupancy error at iteration   1:  0.003858 (step -0.3309 Ne1=   7192.0000)
 RMS occupancy error at iteration   2:  0.000268 (step -0.4854 Ne1=   7192.0000)
 RMS occupancy error at iteration   3:  0.000006 (step -0.5004 Ne1=   7192.0000)
            Final RMS occupancy error   :  0.000000 (Ne1=   7192.0000)
               Final occupancy bounds   : [  0.0000,  1.0000]
================================================================================

    6        -1.166415547390E+04     4.9582E-05     4.4846E-05    -4.7607E-02
MG BCs: +ve charge blocks (gridpoints):     24645 (   17015378).
MG BCs: -ve charge blocks (gridpoints):      8385 (    1077919).
MG BCs:     Elided blocks (gridpoints):    169269 (  172877328).
MG BCs: Computational effort saved:  99.9827%.
MG BCs: Charge after coarse-graining:           -9.0006731.
MG DL_MG: Calling solver with defect correction order = 8
MG DL_MG: Solver finished
MG Hartree energy from (\int phi*rho dr):              1246.292596
MG Hartree energy from (\int eps (grad phi)^2 dr):     1245.632588
MG Discrepancy due to finite box and discretization:     -0.660009 (  -0.05296%)
MG Correction to account for finite box:                  0.476564
MG Remaining discrepancy, due to discretization:         -0.183444 (  -0.01472%)
      ideal mu1:      -0.718093274084
             Q0:  -11664.202944728779
             G0:      -0.077583289661
   RMS gradient:       0.000042819027
MG BCs: +ve charge blocks (gridpoints):     24643 (   17013791).
MG BCs: -ve charge blocks (gridpoints):      8386 (    1078410).
MG BCs:     Elided blocks (gridpoints):    169271 (  172878424).
MG BCs: Computational effort saved:  99.9827%.
MG BCs: Charge after coarse-graining:           -9.0006735.
MG DL_MG: Calling solver with defect correction order = 8
MG DL_MG: Solver finished
MG Hartree energy from (\int phi*rho dr):              1245.319977
MG Hartree energy from (\int eps (grad phi)^2 dr):     1244.660012
MG Discrepancy due to finite box and discretization:     -0.659965 (  -0.05300%)
MG Correction to account for finite box:                  0.476468
MG Remaining discrepancy, due to discretization:         -0.183498 (  -0.01473%)
     Trial step:       0.781156026605
             Q1:  -11664.227236263687
 Quadratic coef:       0.036313119374
 Linear coef   :      -0.060604654282
           Qmin:  -11664.228231210524
Quadratic minimum step length (  0.651853816880) accepted
    Initial Ne1:    7191.99997700
      Final Ne1:    7192.00000000

=================== Penalty functional idempotency correction ==================
 RMS occupancy error at iteration   1:  0.000044 (step -0.4974 Ne1=   7192.0000)
            Final RMS occupancy error   :  0.000000 (Ne1=   7192.0000)
               Final occupancy bounds   : [ -0.0000,  1.0000]
================================================================================

    7        -1.166420294473E+04     4.2819E-05     3.8729E-05    -4.7471E-02
MG BCs: +ve charge blocks (gridpoints):     24643 (   17014040).
MG BCs: -ve charge blocks (gridpoints):      8386 (    1078343).
MG BCs:     Elided blocks (gridpoints):    169271 (  172878242).
MG BCs: Computational effort saved:  99.9827%.
MG BCs: Charge after coarse-graining:           -9.0006734.
MG DL_MG: Calling solver with defect correction order = 8
MG DL_MG: Solver finished
MG Hartree energy from (\int phi*rho dr):              1245.479558
MG Hartree energy from (\int eps (grad phi)^2 dr):     1244.819585
MG Discrepancy due to finite box and discretization:     -0.659973 (  -0.05299%)
MG Correction to account for finite box:                  0.476484
MG Remaining discrepancy, due to discretization:         -0.183489 (  -0.01473%)
      ideal mu1:      -0.717307664724
             Q0:  -11664.228240296012
             G0:      -0.063227572465
   RMS gradient:       0.000038651624
MG BCs: +ve charge blocks (gridpoints):     24643 (   17014011).
MG BCs: -ve charge blocks (gridpoints):      8386 (    1078237).
MG BCs:     Elided blocks (gridpoints):    169271 (  172878377).
[...]
MG Hartree energy from (\int phi*rho dr):              1202.370194
MG Hartree energy from (\int eps (grad phi)^2 dr):     1202.180678
MG Discrepancy due to finite box and discretization:     -0.189516 (  -0.01576%)
MG Correction to account for finite box:                  0.006456
MG Remaining discrepancy, due to discretization:         -0.183060 (  -0.01522%)
             Q2:  -11698.205288788420
  Cubic LS coeff:       0.977284628889
Predicted energy:  -11698.205288788389
Cubic minimum step length accepted
    Initial Ne1:    7192.00000000
      Final Ne1:    7192.00000000

=================== Penalty functional idempotency correction ==================
 RMS occupancy error at iteration   1:  0.000000 (step -0.5000 Ne1=   7192.0000)
            Final RMS occupancy error   :  0.000000 (Ne1=   7192.0000)
               Final occupancy bounds   : [  0.0000,  1.0000]
================================================================================

    7        -1.169820528878E+04     1.0796E-08     9.7647E-09    -3.3760E-09

Reusing previously generated solute cavity.
MG BCs: +ve charge blocks (gridpoints):     28700 (   19204381).
MG BCs: -ve charge blocks (gridpoints):      8371 (    1047740).
MG BCs:     Elided blocks (gridpoints):    165214 (  170718504).
MG BCs: Computational effort saved:  99.9806%.
MG BCs: Charge after coarse-graining:           -9.0009683.
MG DL_MG: Calling solver with defect correction order = 8
MG DL_MG: Solver finished
MG Hartree energy from (\int phi*rho dr):              1202.370194
MG Hartree energy from (\int eps (grad phi)^2 dr):     1202.180678
MG Discrepancy due to finite box and discretization:     -0.189516 (  -0.01576%)
MG Correction to account for finite box:                  0.006456
MG Remaining discrepancy, due to discretization:         -0.183060 (  -0.01522%)
      ideal mu1:      -0.484539180317
             Q0:  -11698.205288788420
             G0:      -0.000000006233
   RMS gradient:       0.000000011788

Reusing previously generated solute cavity.
MG BCs: +ve charge blocks (gridpoints):     28700 (   19204382).
MG BCs: -ve charge blocks (gridpoints):      8371 (    1047739).
MG BCs:     Elided blocks (gridpoints):    165214 (  170718504).
MG BCs: Computational effort saved:  99.9806%.
MG BCs: Charge after coarse-graining:           -9.0009683.
MG DL_MG: Calling solver with defect correction order = 8
MG DL_MG: Solver finished
MG Hartree energy from (\int phi*rho dr):              1202.370155
MG Hartree energy from (\int eps (grad phi)^2 dr):     1202.180638
MG Discrepancy due to finite box and discretization:     -0.189516 (  -0.01576%)
MG Correction to account for finite box:                  0.006456
MG Remaining discrepancy, due to discretization:         -0.183060 (  -0.01522%)
     Trial step:       0.696557630939
             Q1:  -11698.205288790516
 Quadratic coef:       0.000000002246
 Linear coef   :      -0.000000004342
           Qmin:  -11698.205288790517
Quadratic minimum step length (  0.673117024558) accepted
    Initial Ne1:    7192.00000000
      Final Ne1:    7192.00000000

=================== Penalty functional idempotency correction ==================
 RMS occupancy error at iteration   1:  0.000000 (step -0.5000 Ne1=   7192.0000)
            Final RMS occupancy error   :  0.000000 (Ne1=   7192.0000)
               Final occupancy bounds   : [  0.0000,  1.0000]
================================================================================

    8        -1.169820528879E+04     1.1788E-08     1.0662E-08    -4.7730E-09

Reusing previously generated solute cavity.
MG BCs: +ve charge blocks (gridpoints):     28700 (   19204382).
MG BCs: -ve charge blocks (gridpoints):      8371 (    1047739).
MG BCs:     Elided blocks (gridpoints):    165214 (  170718504).
MG BCs: Computational effort saved:  99.9806%.
MG BCs: Charge after coarse-graining:           -9.0009683.
MG DL_MG: Calling solver with defect correction order = 8
MG DL_MG: Solver finished
MG Hartree energy from (\int phi*rho dr):              1202.370156
MG Hartree energy from (\int eps (grad phi)^2 dr):     1202.180640
MG Discrepancy due to finite box and discretization:     -0.189516 (  -0.01576%)
MG Correction to account for finite box:                  0.006456
MG Remaining discrepancy, due to discretization:         -0.183060 (  -0.01522%)
      ideal mu1:      -0.484539142201
             Q0:  -11698.205288790516
             G0:      -0.000000003115
   RMS gradient:       0.000000007208

Reusing previously generated solute cavity.
MG BCs: +ve charge blocks (gridpoints):     28700 (   19204381).
MG BCs: -ve charge blocks (gridpoints):      8371 (    1047741).
MG BCs:     Elided blocks (gridpoints):    165214 (  170718503).
MG BCs: Computational effort saved:  99.9806%.
MG BCs: Charge after coarse-graining:           -9.0009683.
MG DL_MG: Calling solver with defect correction order = 8
MG DL_MG: Solver finished
MG Hartree energy from (\int phi*rho dr):              1202.370164
MG Hartree energy from (\int eps (grad phi)^2 dr):     1202.180648
MG Discrepancy due to finite box and discretization:     -0.189516 (  -0.01576%)
MG Correction to account for finite box:                  0.006456
MG Remaining discrepancy, due to discretization:         -0.183060 (  -0.01522%)
     Trial step:       0.684737029793
             Q1:  -11698.205288791214
 Quadratic coef:       0.000000001435
 Linear coef   :      -0.000000002133
           Qmin:  -11698.205288791309
Quadratic minimum step length (  0.508819541214) accepted
    Initial Ne1:    7192.00000000
      Final Ne1:    7192.00000000

=================== Penalty functional idempotency correction ==================
 RMS occupancy error at iteration   1:  0.000000 (step -0.5000 Ne1=   7192.0000)
            Final RMS occupancy error   :  0.000000 (Ne1=   7192.0000)
               Final occupancy bounds   : [ -0.0000,  1.0000]
================================================================================

    9        -1.169820528879E+04     7.2077E-09     6.5192E-09    -2.0955E-09

Reusing previously generated solute cavity.
MG BCs: +ve charge blocks (gridpoints):     28700 (   19204382).
MG BCs: -ve charge blocks (gridpoints):      8371 (    1047741).
MG BCs:     Elided blocks (gridpoints):    165214 (  170718502).
MG BCs: Computational effort saved:  99.9806%.
MG BCs: Charge after coarse-graining:           -9.0009683.
MG DL_MG: Calling solver with defect correction order = 8
MG DL_MG: Solver finished
MG Hartree energy from (\int phi*rho dr):              1202.370162
MG Hartree energy from (\int eps (grad phi)^2 dr):     1202.180646
MG Discrepancy due to finite box and discretization:     -0.189516 (  -0.01576%)
MG Correction to account for finite box:                  0.006456
MG Remaining discrepancy, due to discretization:         -0.183060 (  -0.01522%)
      ideal mu1:      -0.484539148740
   10        -1.169820528879E+04     4.9115E-09     4.4424E-09    -6.9849E-10
Finished density kernel iterations (  10)

Writing density kernel to file "host_27081.dkn" ... done


>>> Density kernel optimised for the current NGWF basis:
     ~~~~~~~~~~~~~~~~~~~~~~~~~~~~~~~~~~~~~~~~~~~~~~~~~~~~~~~~~~~
     Total energy                =  -1.16982052887912E+04  Eh
     Estimated bandgap           =   9.0856E-02  Eh
     RMS occupancy error         =   4.4676E-16
     [H,K] commutator            =   4.4424E-09
     Occupancy bounds            = [ -0.000:  1.000]
     ~~~~~~~~~~~~~~~~~~~~~~~~~~~~~~~~~~~~~~~~~~~~~~~~~~~~~~~~~~~




################################################################################
########################### NGWF CG iteration  004 #############################
################################################################################
****** Reciprocal space K.E. preconditioning with k_zero =  3.5000 a0^-1 *******

>>> Checking for convergence of NGWFs: 
           ........................................................
           |         *** NGWF optimisation converged ***          |
           | RMS NGWF gradient =    0.00000199000040              |
           | Criteria satisfied:                                  |
           | -> RMS NGWF gradient lower than set threshold.       |
           ========================================================

Reusing previously generated solute cavity.
MG BCs: +ve charge blocks (gridpoints):     28700 (   19204382).
MG BCs: -ve charge blocks (gridpoints):      8371 (    1047741).
MG BCs:     Elided blocks (gridpoints):    165214 (  170718502).
MG BCs: Computational effort saved:  99.9806%.
MG BCs: Charge after coarse-graining:           -9.0009683.
MG DL_MG: Calling solver with defect correction order = 8
MG DL_MG: Solver finished
MG Hartree energy from (\int phi*rho dr):              1202.370162
MG Hartree energy from (\int eps (grad phi)^2 dr):     1202.180646
MG Discrepancy due to finite box and discretization:     -0.189516 (  -0.01576%)
MG Correction to account for finite box:                  0.006456
MG Remaining discrepancy, due to discretization:         -0.183060 (  -0.01522%)

================================================================================
           ---------------- ENERGY COMPONENTS (Eh) ----------------
           | Kinetic                    :     8560.06002557774991 |
           | Pseudo. (local,OBC,corr'd) :    -5073.97990994309384 |
           | Pseudopotential (non-local):     1404.11946776455625 |
           | Hartree (molecular)        :     1202.37016226396372 |
           | Exchange-correlation       :    -3382.35958216793324 |
           | Ion-ion (open BC)          :   826532.81702045165002 |
           | Smeared ion non-self corr. :  -826484.70815037307329 |
           | Smeared ion self corr.     :   -14457.16956389741972 |
           | Solvent cavitation energy  :        2.29562050146439 |
           | Solute-solvent dis-rep en. :       -1.65037896901529 |
           | Total                      :   -11698.20528879112317 |
           --------------------------------------------------------
           ------ LOCAL ENERGY COMPONENTS FROM MATRIX TRACES ------
           | Pseudopotential (local)    :    -5073.97990994309384 |
           | Hartree                    :    -1999.13060713576124 |
           --------------------------------------------------------
           Integrated density           :     7191.99999999897500
           Integrated density tr(KS)    :     7192.00000000000000
================================================================================


                        <<<<< CALCULATION SUMMARY >>>>>                         
|ITER|    RMS GRADIENT   |     TOTAL ENERGY    |   step   |     Epredicted              
   0     0.00003824230964 -11698.14940553356428   0.602416 -11698.19751324639037        
   1     0.00001038169508 -11698.20461005449761   0.096246 -11698.20517648962777        
   2     0.00000451965003 -11698.20526704972144   0.017092 -11698.20528611478221        
   3     0.00000199000040 -11698.20528879121412  <-- CG                                 

=================== Finished the calculation in solvent ========================
= Adjusting the following parameters: 
= read_denskern: F
= read_tightbox_ngwfs: F
= maxit_pen: 0 (restored to user-specified value)
= restart read filename prefix: ""
= restart write filename prefix: ""
================================================================================

================================================================================
IS: Calculation in solvent completed (NGWFs converged).      

Individual components of total energy in solvent:     hartree           kcal/mol
- Usual non-electrostatic DFT terms:    -12901.22069258762713    -8095638.035942
- Electrostatic fixed charge energy:      1202.37016226396372      754498.651782
- Apolar cavitation energy:                  2.29562050146439        1440.523582
- Apolar dispersion-repulsion energy:       -1.65037896901529       -1035.628416
 -------------------------------------------------------------------------------
- Total energy in solvent:              -11698.20528879121412    -7340734.488994

Components of total energy in solvent:                hartree           kcal/mol
- Usual non-electrostatic DFT terms:    -12901.22069258762713    -8095638.035942
- Electrostatic energy:                   1202.37016226396372      754498.651782
- Apolar energy terms:                       0.64524153244910         404.895166
 -------------------------------------------------------------------------------
- Total energy in solvent:              -11698.20528879121412    -7340734.488994

Calculation of free energy of solvation:              hartree           kcal/mol
- Total energy in solvent:         (+)  -11698.20528879121412    -7340734.488994
- Total energy in vacuum:          (-)  -11694.45268705498893    -7338379.695903
 -------------------------------------------------------------------------------
- Total free energy of solvation:           -3.75260173622519       -2354.793091

Components of polar term in f.e. of solvation:        hartree           kcal/mol
- Electrostatic:                            -4.51366113129734       -2832.365061
- Change in nonelectrostatic DFT terms:      0.11581786262286          72.676804
 -------------------------------------------------------------------------------
- Polar term in f.e. of solvation:          -4.39784326867448       -2759.688257

Components of free energy of solvation:               hartree           kcal/mol
- Polar term in f.e. of solvation: (+)      -4.39784326867448       -2759.688257
- Apolar (cavitation, dis., rep.): (+)       0.64524153244910         404.895166
 -------------------------------------------------------------------------------
- Total free energy of solvation:           -3.75260173622537       -2354.793091
================================================================================


------------------------------ TIMING INFORMATION ------------------------------
AVERAGE TIME:   32887.076s on     60 node(s)                                    
TOTAL TIME:     32887.076s on     60 node(s)                                    
================= AVERAGE TIMINGS FROM ALL NODES (CUMULATIVE) ==================
|| TAG                                    #calls    cpu time   %total  Gflops ||
|| work_imbalance                       :     1        0.00s   0.000%  ------ ||
|| sparse_set_to_garbage                :   164        0.03s   0.000%  ------ ||
|| parallel_prepare_fd_halos_request    :  1827        0.03s   0.000%  ------ ||
|| ngwfs_initialise_from_radial         :     1        0.10s   0.000%  ------ ||
|| basis_extract_function_from_box      :  3360        0.15s   0.000%  ------ ||
|| parallel_prepare_fd_halos_alloc      :  1827        0.18s   0.001%  ------ ||
|| parallel_prepare_fd_halos_satisfy    :  1827        0.61s   0.002%  ------ ||
|| pseudopotentials_nonlocal_mat        :    28        2.22s   0.007%  ------ ||
|| openbc_locps_radial                  :     1        4.63s   0.014%  ------ ||
|| restart_kernel_read                  :     1        5.61s   0.017%  ------ ||
|| restart_ngwfs_tightbox_input         :     1        6.78s   0.021%  ------ ||
|| density_init_guess_real              :     1       10.26s   0.031%  ------ ||
|| parallel_prepare_fd_halos_comms_imbal:  1827       11.04s   0.034%  ------ ||
|| parallel_prepare_fd_halos_clear      :  1827       17.86s   0.054%  ------ ||
|| parallel_prepare_fd_halos_comms_wait :  1827       22.51s   0.068%  ------ ||
|| sparse_init                          :     2       23.30s   0.071%  ------ ||
|| projectors_func_ovlp_box             :    28       25.38s   0.077%  ------ ||
|| function_ops_brappd_ketppd           :    28       27.66s   0.084%  ------ ||
|| projectors_init_fftbox_recip         :   133       32.74s   0.100%  ------ ||
|| palser_mano_kernel_optimise          :     1       40.85s   0.124%  ------ ||
|| basis_copy_function_to_box           : 54533       42.06s   0.128%  ------ ||
|| ngwf_gradient_coeffs                 :    15       47.82s   0.145%  ------ ||
|| fourier_apply_box_pair               :  4776       50.14s   0.152% 587.411 ||
|| parallel_prepare_fd_halos            :  1827       52.25s   0.159%  ------ ||
|| pseudo_make_structure_factor         :     2       56.39s   0.171%  ------ ||
|| sparse_embed_hotelling_invert_embed  :    28       75.01s   0.228%  ------ ||
|| restart_kernel_write                 :    16       96.69s   0.294%  ------ ||
|| finite_difference_derivative         :  1827      130.54s   0.397%  ------ ||
|| integrals_kinetic                    :    28      139.82s   0.425%  ------ ||
|| projectors_gradient_batch            :   105      149.50s   0.455%  ------ ||
|| basis_dot_function_with_box          : 8.257M     166.24s   0.505%  ------ ||
|| sparse_trace                         :  5236      193.80s   0.589%  ------ ||
|| openbc_locps_on_grid                 :     2      265.39s   0.807%  ------ ||
|| kernel_purify                        :   464      283.25s   0.861%  ------ ||
|| basis_add_function_to_box            : 17.17M     398.39s   1.211%  ------ ||
|| lnv_gradient_norm                    :   150      418.22s   1.272%  ------ ||
|| hamiltonian_energy_components        :     4      543.35s   1.652%  ------ ||
|| kernel_fix                           :   150      544.82s   1.657%  ------ ||
|| integrals_locpot_mat_els_batch       :  1113      730.76s   2.222%  ------ ||
|| ngwf_gradient_build_batch            :   105      757.48s   2.303%  ------ ||
|| restart_ngwfs_tightbox_output        :    13      944.86s   2.873%  ------ ||
|| density_batch_row_sums               :  2121     1011.43s   3.075%  ------ ||
|| ngwf_gradient_batch                  :   105     1042.86s   3.171%  ------ ||
|| ngwf_gradient_lnv                    :    15     1190.67s   3.620%  ------ ||
|| cell_grid_deposit_box_real           : 34897     1276.08s   3.880%  ------ ||
|| fourier_apply_cell_forward           :  8513     1336.74s   4.065%  85.523 ||
|| cell_grid_extract_box_real           : 38277     1455.89s   4.427%  ------ ||
|| fourier_apply_cell_backward          :  9123     1488.94s   4.527%  82.282 ||
|| sparse_product                       :  6414     1824.09s   5.547%  ------ ||
|| density_fftbox_deposit_to_cell       : 33027     1845.37s   5.611%  ------ ||
|| potential_apply_to_ngwf_batch        :  1113     3531.19s  10.737%  ------ ||
|| xc_energy_potential                  :   304     3695.22s  11.236%  ------ ||
|| density_fftbox_interpolate_multiply  : 33027     3703.42s  11.261%  ------ ||
|| multigrid_prepare_bound_cond         :   304     4203.28s  12.781%  ------ ||
|| integrals_locpot_dbl_grid            :   159     4278.76s  13.010%  ------ ||
|| fourier_apply_box                    : 113.8k    4529.86s  13.774% 751.228 ||
|| nlxc_vdw_energy                      :   608     6039.89s  18.366%  ------ ||
|| density_batch_interp_deposit         :  2121     6422.12s  19.528%  ------ ||
|| dl_mg_solver_calls                   :   304     6982.11s  21.231%  ------ ||
|| density_on_dbl_grid                  :   303     7831.43s  23.813%  ------ ||
|| multigrid_calculate_hartree          :   304    11365.48s  34.559%  ------ ||
|| hamiltonian_lhxc_calculate           :   299    22781.46s  69.272%  ------ ||
|| lnv_denskernel_optimise_cg           :    15    27845.07s  84.669%  ------ ||
|| ngwf_cg_optimise                     :     2    31895.40s  96.985%  ------ ||
|| total_time                           :     1    32887.08s 100.000%  ------ ||
================================================================================
Overhead of generating timer report: 
- 0 ms averaging over threads,
- 15 ms ensuring consistency across MPI ranks,
- 0 ms printing in order.

Job completed: 22-03-2020 16:38 (-0000)

Application 39906006 resources: utime ~6603112s, stime ~228492s, Rss ~3877548, inblocks ~331369781, outblocks ~62851666
