 +---------------------------------------------------------------+
 |                                                               |
 |        ####### #     # ####### ####### ####### ######         |
 |        #     # ##    # #          #    #       #     #        |
 |        #     # # #   # #          #    #       #     #        |
 |        #     # #  #  # #####      #    #####   ######         |
 |        #     # #   # # #          #    #       #              |
 |        #     # #    ## #          #    #       #              |
 |        ####### #     # #######    #    ####### #              |
 |                                                               |
 |        Linear-Scaling Ab Initio Total Energy Program          |
 |                                                               |
 |          Release for academic collaborators of ODG            |
 |                                             Version 5.3.2.6.  |
 |                                                               |
 +---------------------------------------------------------------+
 |                                                               |
 |  Authors:                                                     |
 |  Jacek Dziedzic, Peter D. Haynes, Nicholas D. M. Hine,        |
 |  Arash. A. Mostofi, Mike C. Payne and Chris-Kriton Skylaris   |
 |                                                               |
 |  Contributors:                                                |
 |  J. Aarons, L. Andrinopoulos, P. W. Avraam, R. A. Bell,       |
 |  A. Bhandari, G. A. Bramley, R. J. Charlton, S. J. Clark,     |
 |  R. J. Clements, G. C. Constantinescu, F. Corsetti,           |
 |  N. Corsini, O. Dieguez, S. M. M. Dubois, K. K. B. Duff,      |
 |  J. M. Escartin, A. Greco, H. Helal, Q. O. Hill, L. P. Lee,   |
 |  J.-H. Li, E. B. Linscott, G. Moynihan, D. D. O`Regan,        |
 |  O. K. Okan, M. J. S. Phipps, C. J. Pickard,                  |
 |  J. C. A. Prentice, M. I. J. Probert, L. E. Ratcliff,         |
 |  M. Robinson, A. Ruiz Serrano, J. S. Spencer, E. W. Tait,     |
 |  G. Teobaldi, D. Turban, V. Vitale, K. A. Wilkinson,          |
 |  C. Weber, J. C. Womack, N. Yeung and T. J. Zuehlsdorff       |
 |                                                               |
 |                                   Copyright (c) 2004-2019     |
 |                                                               |
 |  Please cite:                                                 |
 |  "Introducing ONETEP: Linear-scaling density functional       |
 |   simulations on parallel computers".                         |
 |   C.-K. Skylaris, P. D. Haynes, A. A. Mostofi, M. C. Payne.   |
 |   J. Chem. Phys. 122 084119 (2005).                           |
 |                                                               |
 |          in all publications arising from your use of ONETEP. |
 |                                                               |
 +---------------------------------------------------------------+
 |                                                               |
 |   ONETEP is based on developments described in the following  |
 |   publications:                                               |
 |                                                               |
 |  "Nonorthogonal generalized Wannier function pseudopotential  |
 |   plane-wave method".                                         |
 |   C.-K. Skylaris, A. A. Mostofi, P. D. Haynes, O. Dieguez,    |
 |   M. C. Payne.                                                |
 |   Phys. Rev. B 66 035119 (2002).                              |
 |                                                               |
 |  "Preconditioned iterative minimization for linear-scaling    |
 |   electronic structure calculations".                         |
 |   A. A. Mostofi, P. D. Haynes, C.-K. Skylaris, M. C. Payne.   |
 |   J. Chem. Phys. 119(17), pp.8842-8848 (2003).                |
 |                                                               |
 |  "Total-energy calculations on a real space grid with         |
 |   localized functions and a plane-wave basis".                |
 |   A. A. Mostofi, C.-K. Skylaris, P. D. Haynes, M. C. Payne.   |
 |   Comput. Phys. Commun. 147, pp.788-802 (2002).               |
 |                                                               |
 |  "Accurate kinetic energy evaluation in electronic structure  |
 |   calculations with localized functions on real space grids"  |
 |   C.-K. Skylaris, A. A. Mostofi, P. D. Haynes, C. J. Pickard, |
 |   M. C. Payne.                                                |
 |   Comput. Phys. Commun. 140, pp.315-322 (2001).               |
 |                                                               |
 |  "Accurate ionic forces and geometry optimization in linear-  |
 |   scaling density-functional theory with local orbitals"      |
 |   N. D. M. Hine, M. Robinson, P. D. Haynes, C.-K. Skylaris,   |
 |   M. C. Payne, and A. A. Mostofi.                             |
 |   Phys. Rev. B 83 195102 (2011).                              |
 |                                                               |
 +---------------------------------------------------------------+

Job started: 08-01-2020 21:04 (-0000)
 
Reading parameters from file "complex_17201.dat" ...... done

If your calculation crashes here, before "Checking processes and threads..."
is displayed, then your stack size is insufficient.
If so, use "ulimit -s unlimited" at runtime.
You can disable this check with "check_stack_size F".

Checking processes and threads...
   Determining the default number of threads...
      No default threads set at compilation time: defaulting to 1.
      OpenMP library call suggests 4 threads.
      Hybrid MPI-OpenMP compilation detected.
      Number of MPI processes > 1.
      OMP_NUM_THREADS environment variable present and
      its value matches the one obtained from the OpenMP library call.
      Using this value as default.
      Default threads: 4
      Default applies to threads_max and threads_num_fftboxes.
      Settings in the input file override this default.
   ... done

   Running with 60 MPI processes.
   There are 6 MPI processes running on the same node as the root process.
   Each MPI process is using: 
               1 threads for simulation cell FFTs.
               1 threads for parallel FFT box operations.
               4 threads for loops over batched FFT box operations.
               4 threads in other parallel regions.
... done

Basic input checks...... done

Reading geometry and species blocks from file "complex_17201.dat" ...
  <species_atomic_set> block not found: NGWF initialisation set to SOLVE
IS: Dielectric excluded regions:
    - NONE.
    
  Number of PPD points along a3 set to 1.  This is 
  the default value, it may have been provided also in the input file.
... done
 Writing xyz coordinates to file "complex_17201.xyz" ... done


--------------------------------------------------------------------------------
---------------------------------- INPUT FILE ----------------------------------
--------------------------------------------------------------------------------

cutoff_energy       : 800 eV                                                    
xc_functional VV10                                                              
task SINGLEPOINT                                                                
write_xyz true                                                                  
output_detail VERBOSE                                                           
ngwf_threshold_orig : 0.000002                                                  
kernel_cutoff       : 1000                                                      
k_zero              : 3.5                                                       
elec_cg_max 0                                                                   
occ_mix 1.0                                                                     
dispersion 0                                                                    
maxit_ngwf_cg 40                                                                
minit_lnv 10                                                                    
maxit_lnv 10                                                                    
write_denskern T                                                                
write_tightbox_ngwfs T                                                          
charge 9                                                                        
is_implicit_solvent T                                                           
is_auto_solvation T                                                             
is_include_apolar T                                                             
is_smeared_ion_rep T                                                            
is_solvent_surf_tension 4.7624E-5 Ha/bohr**2                                    
is_apolar_scaling_factor 0.281075                                               
is_solvation_beta 1.3                                                           
is_density_threshold 0.00035                                                    
is_bulk_permittivity 78.54                                                      
is_dielectric_model fix_initial                                                 
is_smeared_ion_width 0.8                                                        
mg_defco_fd_order 8                                                             
is_bc_coarseness 10                                                             
is_bc_surface_coarseness 1                                                      
fine_grid_scale 2.0                                                             
%block species                                                                  
N   N   7 4 8.0                                                                 
H   H   1 1 8.0                                                                 
C   C   6 4 8.0                                                                 
S   S  16 9 8.0                                                                 
O   O   8 4 8.0                                                                 
F   F   9 9 8.0                                                                 
%endblock species                                                               
%block species_pot                                                              
N   N_00.recpot                                                                 
H   H_04.recpot                                                                 
C   C_01.recpot                                                                 
S   S_00.recpot                                                                 
O   O_02.recpot                                                                 
F   F_00.recpot                                                                 
%endblock species_pot                                                           
%block lattice_cart                                                             
139.898   0.000   0.000                                                         
0.000 144.87   0.000                                                            
0.000   0.000   168.12                                                          
%endblock lattice_cart                                                          
%block positions_abs                                                            
     Hash =  -000004291131695332031148
%endblock positions_abs                                                         

--------------------------------------------------------------------------------
-------------------------------- END INPUT FILE --------------------------------
--------------------------------------------------------------------------------


 
 ESDF WARNING(1): "kernelcutoff" (esdf_physical) has no units. Assume "bohr".
 ESDF WARNING(2): "kzero" (esdf_physical) has no units. Assume "1/bohr".
 ESDF WARNING(3
 ): "issmearedionwidth" (esdf_physical) has no units. Assume "bohr".
<<<<<<<<<<<<<<<<<<<<<<<<<<<<<<<<< Full system >>>>>>>>>>>>>>>>>>>>>>>>>>>>>>>>>>
<<<<<<<<<<<<<<<<<<<<<<<<< Pseudopotential information >>>>>>>>>>>>>>>>>>>>>>>>>>
File: N_00.recpot [ 2001 points up to Gmax=  52.9 (1/bohr)]
  Atomic number:  7;  ionic charge:  5.000000
    Shell 1: l = 0; rc = 1.48 bohr
File: H_04.recpot [ 2001 points up to Gmax=  52.9 (1/bohr)]
  Atomic number:  1;  ionic charge:  1.000000
    Local potential
File: C_01.recpot [ 2001 points up to Gmax=  52.9 (1/bohr)]
  Atomic number:  6;  ionic charge:  4.000000
    Shell 1: l = 0; rc = 1.48 bohr
File: S_00.recpot [ 2001 points up to Gmax=  52.9 (1/bohr)]
  Atomic number: 16;  ionic charge:  6.000000
    Shell 1: l = 0; rc = 1.90 bohr
    Shell 2: l = 2; rc = 1.84 bohr
File: O_02.recpot [ 2001 points up to Gmax=  52.9 (1/bohr)]
  Atomic number:  8;  ionic charge:  6.000000
    Shell 1: l = 0; rc = 1.31 bohr
File: F_00.recpot [ 2001 points up to Gmax=  52.9 (1/bohr)]
  Atomic number:  9;  ionic charge:  7.000000
    Shell 1: l = 0; rc = 1.60 bohr
<<<<<<<<<<<<<<<<<<<<<<<<<<<<<<<<<<<<<<<<>>>>>>>>>>>>>>>>>>>>>>>>>>>>>>>>>>>>>>>>

-------------------------- Atom counting information ---------------------------
Symbol    Natoms    Nngwfs    Nprojs
  N        237       948       237
  H       1317      1317         0
  C        816      3264       816
  S          6        54        36
  O        239       956       239
  F          1         9         1
.......   ......    ......    ......
Totals:   2616      6548      1329
--------------------------------------------------------------------------------

=============================== PSINC grid sizes ===============================
                      Simulation cell:  275 x 286 x 336
                              FFT-box:   99 x  99 x  99
                                  PPD:    5 x  11 x   1
Grid space d1=  0.508720000000a0 (KE cutoff=  29.35259Eh = 798.72452eV)
Grid space d2=  0.506538461538a0 (KE cutoff=  29.60596Eh = 805.61916eV)
Grid space d3=  0.500357142857a0 (KE cutoff=  30.34197Eh = 825.64705eV)
================================================================================

********************* Fourier parallelisation information **********************
       Coarse grid (whole simulation cell) dimensions:    275   286   336
          Real-space ('12') slabs/node (min max mean):      5     6     5
         Recip-space ('23') slabs/node (min max mean):      2     3     2
********************************************************************************

********************* Fourier parallelisation information **********************
       Double grid (whole simulation cell) dimensions:    550   572   672
          Real-space ('12') slabs/node (min max mean):     11    12    11
         Recip-space ('23') slabs/node (min max mean):      4     5     4
********************************************************************************
ONETEP fine grid is 550 x 572 x 672 gridpoints, 139.8980 x 144.8700 x 168.1200 bohr.
FD multigrid is     545 x 569 x 665 gridpoints, 138.6262 x 144.1102 x 166.3688 bohr.


Calculating local pseudopotential in open BC on a radial grid ...
Discrepancy between calculated realspace psloc and -Z/x on [5a0,262.342a0]:
max |rel. diff| # avg |rel. diff| #  avg rel. diff #  f # pseudopotential file
 0.000258413739    0.000003708905   0.000000070960   56  'N_00.recpot'
 0.000398954828    0.000016185045  -0.000000074508   56  'H_04.recpot'
 0.000375346405    0.000017198923   0.000000144535   56  'C_01.recpot'
 0.000466850533    0.000020125278   0.000000461745   56  'S_00.recpot'
 0.000671508953    0.000026045986   0.000000155458   56  'O_02.recpot'
 0.002873965647    0.000134299806   0.000000884984   56  'F_00.recpot'
... done

Atom SCF Calculation for N  : Z (AE atom) =   7 : Z (PS atom) =   5
Config String:
Orbitals (num,occ):  2     2.00 3.00
Orbitals   (num,l):  2        0    1
Real-space Grid (nr,dr,rmax): 1203    0.0066555740    8.0000000000
Spherical Bessel Basis (nsws,lmax,cutoff):   47    1  176.3951722778
Confining potential (l,width,scale):  0    3.0000000000  100.0000000000
Confining potential (l,width,scale):  1    3.0000000000  100.0000000000
  1         -4.7366890484   -3.4501654188    7.0523828109   -1.9619316308
  2         -9.7225420322   -2.0763080851    8.3068355706   -2.2908832437
  3         -9.7134243553   -2.1270543915    8.2534567806   -2.2819809971
  4         -9.7235185949   -2.1427582218    8.2369947390   -2.2802814234
  5         -9.7258373845   -2.1477905863    8.2317116314   -2.2798536235
  6         -9.7268932325   -2.1503512400    8.2290229806   -2.2796830099
  7         -9.7273189469   -2.1516634231    8.2276451699   -2.2796169657
  8         -9.7274675212   -2.1523365544    8.2269384796   -2.2795940092
  9         -9.7275041773   -2.1526817003    8.2265762312   -2.2795881371
 10         -9.7275008637   -2.1528585007    8.2263907413   -2.2795884060
 11         -9.7274868305   -2.1529489544    8.2262958841   -2.2795903922
 12         -9.7274755655   -2.1529859230    8.2262571347   -2.2795920452
 13         -9.7274662327   -2.1530083995    8.2262335832   -2.2795934369
 14         -9.7274589439   -2.1530220534    8.2262192809   -2.2795945372
 15         -9.7274534633   -2.1530303399    8.2262106039   -2.2795953734
 16         -9.7274494492   -2.1530353634    8.2262053452   -2.2795959920
 17         -9.7274465654   -2.1530384053    8.2262021621   -2.2795964406
 18         -9.7274445237   -2.1530402447    8.2262002378   -2.2795967611
 19         -9.7274430947   -2.1530413553    8.2261990762   -2.2795969874
 20         -9.7274421038   -2.1530420249    8.2261983762   -2.2795971458
 21         -9.7274414219   -2.1530424277    8.2261979551   -2.2795972557
 22         -9.7274409555   -2.1530426696    8.2261977024   -2.2795973315
 23         -9.7274406382   -2.1530428144    8.2261975510   -2.2795973835
 24         -9.7274404232   -2.1530429010    8.2261974606   -2.2795974190
 25         -9.7274402783   -2.1530429525    8.2261974067   -2.2795974432
 26         -9.7274401808   -2.1530429831    8.2261973748   -2.2795974596
Atom SCF converged after  26 iterations to a total energy of     -9.72744018

Atom SCF Calculation for H  : Z (AE atom) =   1 : Z (PS atom) =   1
Config String:
Orbitals (num,occ):  1     1.00
Orbitals   (num,l):  1        0
Real-space Grid (nr,dr,rmax): 1203    0.0066555740    8.0000000000
Spherical Bessel Basis (nsws,lmax,cutoff):   47    0  176.3951722778
Confining potential (l,width,scale):  0    3.0000000000  100.0000000000
  1         -0.3178661827   -0.2469879004    0.2820953124   -0.2487802071
  2         -0.3961824611   -0.2455070831    0.2902209900   -0.2567664324
  3         -0.4406462424   -0.2424227551    0.2948173255   -0.2622129794
  4         -0.4569739054   -0.2416771342    0.2960118236   -0.2639986016
  5         -0.4627745219   -0.2416114401    0.2961916694   -0.2644992007
  6         -0.4648634749   -0.2416666130    0.2961598921   -0.2646237065
  7         -0.4656347011   -0.2417155160    0.2961132802   -0.2646490719
  8         -0.4659271144   -0.2417438448    0.2960836537   -0.2646515522
  9         -0.4660407254   -0.2417580788    0.2960682004   -0.2646501482
 10         -0.4660857867   -0.2417647566    0.2960608087   -0.2646488305
 11         -0.4661039568   -0.2417677717    0.2960574330   -0.2646480606
 12         -0.4661113773   -0.2417691018    0.2960559329   -0.2646476727
 13         -0.4661144368   -0.2417696800    0.2960552775   -0.2646474903
 14         -0.4661157072   -0.2417699291    0.2960549942   -0.2646474079
 15         -0.4661162374   -0.2417700356    0.2960548727   -0.2646473715
 16         -0.4661164596   -0.2417700810    0.2960548208   -0.2646473556
 17         -0.4661165529   -0.2417701003    0.2960547987   -0.2646473488
Atom SCF converged after  17 iterations to a total energy of     -0.46611655

Atom SCF Calculation for C  : Z (AE atom) =   6 : Z (PS atom) =   4
Config String:
Orbitals (num,occ):  2     2.00 2.00
Orbitals   (num,l):  2        0    1
Real-space Grid (nr,dr,rmax): 1203    0.0066555740    8.0000000000
Spherical Bessel Basis (nsws,lmax,cutoff):   47    1  176.3951722778
Confining potential (l,width,scale):  0    3.0000000000  100.0000000000
Confining potential (l,width,scale):  1    3.0000000000  100.0000000000
  1         -5.2812238291   -1.3293161250    4.5135249990   -1.4716766231
  2         -5.3996591362   -1.3542148509    4.4876064308   -1.4645117417
  3         -5.4111847148   -1.3757224423    4.4645718036   -1.4593107263
  4         -5.4199203659   -1.3833334895    4.4563636676   -1.4579885221
  5         -5.4226876204   -1.3865104950    4.4529090432   -1.4575385943
  6         -5.4235070726   -1.3878131251    4.4514866831   -1.4573882877
  7         -5.4237271252   -1.3883401868    4.4509094528   -1.4573411661
  8         -5.4237693051   -1.3885521813    4.4506766230   -1.4573281030
  9         -5.4237656430   -1.3886371046    4.4505830704   -1.4573255254
 10         -5.4237547927   -1.3886709976    4.4505456041   -1.4573257244
 11         -5.4237478594   -1.3886817763    4.4505336403   -1.4573262476
 12         -5.4237429748   -1.3886873440    4.4505274417   -1.4573266921
 13         -5.4237397042   -1.3886902144    4.4505242350   -1.4573270222
 14         -5.4237375865   -1.3886916908    4.4505225792   -1.4573272507
 15         -5.4237362473   -1.3886924482    4.4505217259   -1.4573274021
 16         -5.4237354152   -1.3886928356    4.4505212873   -1.4573274996
 17         -5.4237349050   -1.3886930331    4.4505210623   -1.4573275610
 18         -5.4237345954   -1.3886931333    4.4505209473   -1.4573275991
 19         -5.4237344092   -1.3886931840    4.4505208887   -1.4573276224
 20         -5.4237342980   -1.3886932094    4.4505208590   -1.4573276366
 21         -5.4237342320   -1.3886932221    4.4505208440   -1.4573276451
Atom SCF converged after  21 iterations to a total energy of     -5.42373423

Atom SCF Calculation for S  : Z (AE atom) =  16 : Z (PS atom) =   6
Config String:
Orbitals (num,occ):  3     2.00 4.00 0.00
Orbitals   (num,l):  3        0    1    2
Real-space Grid (nr,dr,rmax): 1203    0.0066555740    8.0000000000
Spherical Bessel Basis (nsws,lmax,cutoff):   47    2  176.3951722778
Confining potential (l,width,scale):  0    3.0000000000  100.0000000000
Confining potential (l,width,scale):  1    3.0000000000  100.0000000000
Confining potential (l,width,scale):  2    3.0000000000  100.0000000000
  1        -12.4916237786   -1.0485914554   10.1554312477   -2.4822447765
  2         -9.9747083603   -2.4807597367    8.3138131863   -2.0618837268
  3        -10.1811370131   -2.3153496392    8.4906092179   -2.1137756843
  4        -10.1856385898   -2.2984912006    8.5093862195   -2.1218167101
  5        -10.1891317560   -2.2894783333    8.5195006030   -2.1261392389
  6        -10.1911142562   -2.2849160124    8.5246320974   -2.1283733378
  7        -10.1921506977   -2.2826473329    8.5271859473   -2.1295140514
  8        -10.1926851273   -2.2815219985    8.5284534218   -2.1300957983
  9        -10.1929632671   -2.2809620806    8.5290843811   -2.1303933136
 10        -10.1931100895   -2.2806822783    8.5293998452   -2.1305460626
 11        -10.1931885828   -2.2805418782    8.5295582201   -2.1306248009
 12        -10.1932309625   -2.2804711729    8.5296380158   -2.1306655459
 13        -10.1932540142   -2.2804354512    8.5296783476   -2.1306867097
 14        -10.1932666242   -2.2804173494    8.5296987927   -2.1306977435
 15        -10.1932735535   -2.2804081489    8.5297091868   -2.1307035175
 16        -10.1932773756   -2.2804034581    8.5297144867   -2.1307065505
 17        -10.1932794908   -2.2804010586    8.5297171976   -2.1307081499
 18        -10.1932806648   -2.2803998268    8.5297185890   -2.1307089965
 19        -10.1932813181   -2.2803991920    8.5297193057   -2.1307094466
 20        -10.1932816826   -2.2803988634    8.5297196763   -2.1307096867
 21        -10.1932818864   -2.2803986926    8.5297198688   -2.1307098154
 22        -10.1932820006   -2.2803986034    8.5297199692   -2.1307098847
 23        -10.1932820648   -2.2803985565    8.5297200219   -2.1307099221
Atom SCF converged after  23 iterations to a total energy of    -10.19328206

Atom SCF Calculation for O  : Z (AE atom) =   8 : Z (PS atom) =   6
Config String:
Orbitals (num,occ):  2     2.00 4.00
Orbitals   (num,l):  2        0    1
Real-space Grid (nr,dr,rmax): 1203    0.0066555740    8.0000000000
Spherical Bessel Basis (nsws,lmax,cutoff):   47    1  176.3951722778
Confining potential (l,width,scale):  0    3.0000000000  100.0000000000
Confining potential (l,width,scale):  1    3.0000000000  100.0000000000
  1         -1.9497477053   -7.5870966769   10.1554312477   -2.4822447765
  2        -15.9466298225   -3.1778351734   13.6353006614   -3.2931224232
  3        -16.0387051750   -3.0909030611   13.7305651010   -3.3194522996
  4        -15.9025031450   -3.1083023605   13.7128101414   -3.3180850501
  5        -15.8912953362   -3.1033022259   13.7185404266   -3.3206942093
  6        -15.8793912992   -3.1043100674   13.7175820250   -3.3209366960
  7        -15.8748748605   -3.1043975610   13.7175531476   -3.3211845618
  8        -15.8725354084   -3.1044655610   13.7175148333   -3.3213149154
  9        -15.8713193866   -3.1045129589   13.7174824743   -3.3213832909
 10        -15.8706863385   -3.1045436851   13.7174593895   -3.3214192053
 11        -15.8703562731   -3.1045627330   13.7174442347   -3.3214381098
 12        -15.8701839150   -3.1045741887   13.7174347673   -3.3214480859
 13        -15.8700937727   -3.1045809294   13.7174290448   -3.3214533647
 14        -15.8700465571   -3.1045848305   13.7174256662   -3.3214561658
 15        -15.8700217888   -3.1045870593   13.7174237063   -3.3214576563
 16        -15.8700087767   -3.1045883194   13.7174225849   -3.3214584516
 17        -15.8700019307   -3.1045890258   13.7174219502   -3.3214588771
 18        -15.8699983237   -3.1045894190   13.7174215942   -3.3214591053
 19        -15.8699964206   -3.1045896366   13.7174213960   -3.3214592281
 20        -15.8699954151   -3.1045897563   13.7174212864   -3.3214592942
 21        -15.8699948832   -3.1045898219   13.7174212260   -3.3214593299
 22        -15.8699946014   -3.1045898577   13.7174211930   -3.3214593493
 23        -15.8699944520   -3.1045898771   13.7174211750   -3.3214593597
 24        -15.8699943726   -3.1045898877   13.7174211652   -3.3214593654
Atom SCF converged after  24 iterations to a total energy of    -15.86999437

Atom SCF Calculation for F  : Z (AE atom) =   9 : Z (PS atom) =   7
Config String:
Orbitals (num,occ):  5     2.00 5.00 0.00 0.00 0.00
Orbitals   (num,l):  5        0    1    0    1    2
Real-space Grid (nr,dr,rmax): 1203    0.0066555740    8.0000000000
Spherical Bessel Basis (nsws,lmax,cutoff):   47    2  176.3951722778
Confining potential (l,width,scale):  0    3.0000000000  100.0000000000
Confining potential (l,width,scale):  1    3.0000000000  100.0000000000
Confining potential (l,width,scale):  2    3.0000000000  100.0000000000
  1          2.6332518550  -14.5972660140   13.8226703094   -3.0291069145
  2        -23.5308059922   -5.0079932916   20.5389571514   -4.4513452175
  3        -24.6149887348   -4.4197114244   21.1484318815   -4.5691063800
  4        -24.4297149669   -4.3540993379   21.2171803314   -4.5817422990
  5        -24.3380738191   -4.3229830295   21.2502612251   -4.5884480400
  6        -24.3018089952   -4.3112404429   21.2628394889   -4.5911526186
  7        -24.2802545331   -4.3044544202   21.2701367409   -4.5927765476
  8        -24.2674352063   -4.3005403236   21.2743586797   -4.5937444592
  9        -24.2598104277   -4.2982856164   21.2767973152   -4.5943192207
 10        -24.2552747814   -4.2969885008   21.2782038957   -4.5946598772
 11        -24.2525760151   -4.2962434174   21.2790140058   -4.5948616023
 12        -24.2509695736   -4.2958161917   21.2794798304   -4.5949810223
 13        -24.2500128561   -4.2955717258   21.2797472047   -4.5950517245
 14        -24.2494427499   -4.2954321649   21.2799003644   -4.5950935980
 15        -24.2491028062   -4.2953527030   21.2799879022   -4.5951184111
 16        -24.2488999639   -4.2953075953   21.2800378086   -4.5951331247
 17        -24.2487788405   -4.2952820762   21.2800661810   -4.5951418567
 18        -24.2487064582   -4.2952676951   21.2800822598   -4.5951470437
 19        -24.2486631683   -4.2952596266   21.2800913392   -4.5951501282
 20        -24.2486372560   -4.2952551231   21.2800964452   -4.5951519645
 21        -24.2486217320   -4.2952526245   21.2800993032   -4.5951530592
 22        -24.2486124232   -4.2952512481   21.2801008943   -4.5951537126
 23        -24.2486068360   -4.2952504962   21.2801017744   -4.5951541033
 24        -24.2486034793   -4.2952500898   21.2801022575   -4.5951543373
 25        -24.2486014606   -4.2952498729   21.2801025203   -4.5951544776
 26        -24.2486002454   -4.2952497591   21.2801026617   -4.5951545620
 27        -24.2485995131   -4.2952497006   21.2801027367   -4.5951546128
 28        -24.2485990712   -4.2952496715   21.2801027758   -4.5951546435
 29        -24.2485988044   -4.2952496576   21.2801027957   -4.5951546620
 30        -24.2485986431   -4.2952496515   21.2801028054   -4.5951546733
 31        -24.2485985454   -4.2952496491   21.2801028100   -4.5951546801
Atom SCF converged after  31 iterations to a total energy of    -24.24859855
 
WARNING in ngwfs_initialise: Setting radial NGWF functions for species  6 (F):
Last NGWF on atom has m = -2 and does not complete set of m-values for l = 2.
This breaks symmetry and may cause unstable NGWF optimisation and poor 
convergence. Suggest increasing number of NGWFs per atom from   9 to  13.
NB: All NGWF radial function angular momenta:     0    1    0    1    2
 

========================== Calculation in vacuum ==============================
= Adjusting the following parameters: 
= is_implicit_solvent: F
= is_include_apolar: F
= write_denskern: T
= write_tightbox_ngwfs: T
= restart read filename prefix: ""
= restart write filename prefix: "vacuum_"
===============================================================================

Determining parallel strategy ...
... using space-filling curve
... NGWF load balancing: max    110;  min    109;  average    109
... Projector load balancing: max     26;  min     21;  average     22
... done
Calculating direct Ion-Ion energy ...
Ion-Ion Energy        :    822788.35721338377334
Basis initialisation ...... NGWF spheres initialised
... Projector spheres initialised
... NGWF tight boxes initialised
... Tight-boxes gathered
... NGWF basis size (local,global):    1040331  62501156
... Nonlocal pseudopotential projector initialisation
... done

========================== Sparse matrix information ===========================
                        Overlap matrix filling:   6.74%
                        Density kernel filling: 100.00%
              NGWF-Proj overlap matrix filling:   1.78%
                    Hamiltonian matrix filling:   7.63%
                  NGWF diagonal matrix filling:   0.05%
                             KS matrix filling: 100.00% 
                           KSKS matrix filling: 100.00% 
================================================================================

Sparse matrix initialisation ... done

Generating smeared ion density ... done
Smeared ion self correction:     -14544.936866
Smeared ion non-self correction: -822739.970205
NGWF initialisation ...... done
============ Calculation of NGWF S^-1 using Hotelling algorithm ================ 
         Iteration  |  Frobenius norm and Maximum abs value    (of I-S*S_n^-1)   
               1       0.78645438E+02     0.98212103E+00
               2       0.76720059E+02     0.96469439E+00
               3       0.73623485E+02     0.93110055E+00
               4       0.69259715E+02     0.86840700E+00
               5       0.63866769E+02     0.76061707E+00
               6       0.57851101E+02     0.70020445E+00
               7       0.51854883E+02     0.66572195E+00
               8       0.46299054E+02     0.63874052E+00
               9       0.40099727E+02     0.59663000E+00
              10       0.31630806E+02     0.53004342E+00
              11       0.20954737E+02     0.43713982E+00
              12       0.10493648E+02     0.30120432E+00
              13       0.33705848E+01     0.14542823E+00
              14       0.52435431E+00     0.39686034E-01
              15       0.27184146E-01     0.36173752E-02
              16       0.21748215E-03     0.37330340E-04
              17       0.35363115E-07     0.58856917E-08
              18       0.91408896E-13     0.53290705E-14
================================================================================
Calculating local pseudopotential in open BC on the fine real space grid ...
... done

MG BCs: +ve charge blocks (gridpoints):     20422 (   15945367).
MG BCs: -ve charge blocks (gridpoints):      8030 (    1080714).
MG BCs:     Elided blocks (gridpoints):    189623 (  189193744).
MG BCs: Computational effort saved:  99.9862%.
MG BCs: Charge after coarse-graining:           -9.0002303.
MG DL_MG: Calling solver with defect correction order = 8
MG DL_MG: Solver finished
MG Hartree energy from (\int phi*rho dr):              1460.978727
MG Hartree energy from (\int eps (grad phi)^2 dr):     1460.365571
MG Discrepancy due to finite box and discretization:     -0.613156 (  -0.04197%)
MG Correction to account for finite box:                  0.454798
MG Remaining discrepancy, due to discretization:         -0.158358 (  -0.01084%)
Up spin density kernel initialisation ... 
======= Optimisation of K by Palser-Manolopoulos canonical purification ======== 
         Iteration  |  Band structure energy |    c_n   
               1       -2548.23305292221585    0.5295823
               2       -2724.56967226460711    0.5191825
               3       -2908.75163457875988    0.5158838
               4       -3066.80869042805443    0.5274131
               5       -3167.97246370424091    0.5611795
               6       -3212.14764505389849    0.6078995
               7       -3227.18314716387795    0.6240830
               8       -3233.51084920393896    0.6246700
               9       -3236.59109198372698    0.6425282
              10       -3237.87330799783740    0.6648461
              11       -3238.39708836846376    0.6720074
              12       -3238.64295135541033    0.6456242
              13       -3238.78282271733951    0.5936877
              14       -3238.86419753859582    0.5532605
              15       -3238.89695014029758    0.5339035
              16       -3238.90538690483481    0.5181198
              17       -3238.90733265635208    0.5048666
              18       -3238.90764710361782    0.5002142
              19       -3238.90766130816337    0.5000007
              20       -3238.90766134362320    0.5000007
Termination criterion satisfied: band energy change below threshold.
Final occupancy bounds: [    0.00000000000000:    1.00000000000000]
Closest occupancy to 0.5:     1.00000000000000
================================================================================
... done

Writing density kernel to file "complex_17201.vacuum_dkn" ... done

>>> Optimising kernel for current NGWFs:
   Initial electron number for spin 1:    7234.00000000
     Final electron number for spin 1:    7234.00000000

=================== Penalty functional idempotency correction ==================
 RMS occupancy error at iteration   1:  0.000000 (step -0.5000 Ne1=   7234.0000)
            Final RMS occupancy error   :  0.000000 (Ne1=   7234.0000)
               Final occupancy bounds   : [  0.0000,  1.0000]
================================================================================

................................................................................
<<<<<<<<<<<<<< LNV (Original version) density kernel optimisation >>>>>>>>>>>>>>
~~~~~~~~~~~~~~~~~~~~~~~~~~~~~~~~~~~~~~~~~~~~~~~~~~~~~~~~~~~~~~~~~~~~~~~~~~~~~~~~
   iter  |      energy (Eh)       | rms gradient |  commutator  |   dE (Eh)
MG BCs: +ve charge blocks (gridpoints):     31313 (   17180908).
MG BCs: -ve charge blocks (gridpoints):      8375 (    1108950).
MG BCs:     Elided blocks (gridpoints):    178721 (  187929967).
MG BCs: Computational effort saved:  99.9808%.
MG BCs: Charge after coarse-graining:           -9.0009965.
MG DL_MG: Calling solver with defect correction order = 8
MG DL_MG: Solver finished
MG Hartree energy from (\int phi*rho dr):              1422.290702
MG Hartree energy from (\int eps (grad phi)^2 dr):     1421.627838
MG Discrepancy due to finite box and discretization:     -0.662864 (  -0.04661%)
MG Correction to account for finite box:                  0.460806
MG Remaining discrepancy, due to discretization:         -0.202057 (  -0.01421%)
      ideal mu1:      -0.733166831911
             Q0:  -11597.360753048677
             G0:    -144.838681206557
   RMS gradient:       0.001837949651
MG BCs: +ve charge blocks (gridpoints):     31332 (   17257077).
MG BCs: -ve charge blocks (gridpoints):      8302 (    1091989).
MG BCs:     Elided blocks (gridpoints):    178704 (  187870759).
MG BCs: Computational effort saved:  99.9808%.
MG BCs: Charge after coarse-graining:           -9.0010196.
MG DL_MG: Calling solver with defect correction order = 8
MG DL_MG: Solver finished
MG Hartree energy from (\int phi*rho dr):              1443.265061
MG Hartree energy from (\int eps (grad phi)^2 dr):     1442.619748
MG Discrepancy due to finite box and discretization:     -0.645312 (  -0.04471%)
MG Correction to account for finite box:                  0.459933
MG Remaining discrepancy, due to discretization:         -0.185379 (  -0.01284%)
     Trial step:       0.500000000000
             Q1:  -11608.373654874391
 Quadratic coef:      61.406438777565
 Linear coef   :     -72.419340603279
           Qmin:  -11618.712589264140
Quadratic minimum step length (  0.294836103693) accepted
    Initial Ne1:    7234.00000000
      Final Ne1:    7234.00000000

=================== Penalty functional idempotency correction ==================
 RMS occupancy error at iteration   1:  0.003407 (step -0.4884 Ne1=   7234.0000)
 RMS occupancy error at iteration   2:  0.000025 (step -0.5000 Ne1=   7234.0000)
            Final RMS occupancy error   :  0.000000 (Ne1=   7234.0000)
               Final occupancy bounds   : [  0.0000,  1.0000]
================================================================================

    1        -1.159736075305E+04     1.8379E-03     1.6637E-03
MG BCs: +ve charge blocks (gridpoints):     31326 (   17226698).
MG BCs: -ve charge blocks (gridpoints):      8328 (    1099412).
MG BCs:     Elided blocks (gridpoints):    178708 (  187893715).
MG BCs: Computational effort saved:  99.9808%.
MG BCs: Charge after coarse-graining:           -9.0010105.
MG DL_MG: Calling solver with defect correction order = 8
MG DL_MG: Solver finished
MG Hartree energy from (\int phi*rho dr):              1426.580850
MG Hartree energy from (\int eps (grad phi)^2 dr):     1425.929400
MG Discrepancy due to finite box and discretization:     -0.651450 (  -0.04567%)
MG Correction to account for finite box:                  0.460146
MG Remaining discrepancy, due to discretization:         -0.191304 (  -0.01341%)
      ideal mu1:      -0.768052543642
             Q0:  -11619.133988381247
             G0:     -11.585701720932
   RMS gradient:       0.000516161688
MG BCs: +ve charge blocks (gridpoints):     31334 (   17243193).
MG BCs: -ve charge blocks (gridpoints):      8315 (    1095039).
MG BCs:     Elided blocks (gridpoints):    178700 (  187881593).
MG BCs: Computational effort saved:  99.9808%.
MG BCs: Charge after coarse-graining:           -9.0010147.
MG DL_MG: Calling solver with defect correction order = 8
MG DL_MG: Solver finished
MG Hartree energy from (\int phi*rho dr):              1431.240069
MG Hartree energy from (\int eps (grad phi)^2 dr):     1430.592482
MG Discrepancy due to finite box and discretization:     -0.647587 (  -0.04525%)
MG Correction to account for finite box:                  0.459637
MG Remaining discrepancy, due to discretization:         -0.187950 (  -0.01313%)
     Trial step:       0.383950585162
             Q1:  -11621.875658858102
 Quadratic coef:       1.706666478411
 Linear coef   :      -4.448336955266
           Qmin:  -11622.032577812442
Quadratic minimum step length (  0.500373564073) accepted
    Initial Ne1:    7233.99992124
      Final Ne1:    7234.00000000

=================== Penalty functional idempotency correction ==================
 RMS occupancy error at iteration   1:  0.001792 (step -0.4932 Ne1=   7234.0000)
 RMS occupancy error at iteration   2:  0.000009 (step -0.5000 Ne1=   7234.0000)
            Final RMS occupancy error   :  0.000000 (Ne1=   7234.0000)
               Final occupancy bounds   : [  0.0000,  1.0000]
================================================================================

    2        -1.161913398838E+04     5.1616E-04     4.6721E-04    -2.1773E+01
MG BCs: +ve charge blocks (gridpoints):     31335 (   17248215).
MG BCs: -ve charge blocks (gridpoints):      8308 (    1093587).
MG BCs:     Elided blocks (gridpoints):    178699 (  187878023).
MG BCs: Computational effort saved:  99.9808%.
MG BCs: Charge after coarse-graining:           -9.0010162.
MG DL_MG: Calling solver with defect correction order = 8
MG DL_MG: Solver finished
MG Hartree energy from (\int phi*rho dr):              1432.692625
MG Hartree energy from (\int eps (grad phi)^2 dr):     1432.046123
MG Discrepancy due to finite box and discretization:     -0.646502 (  -0.04512%)
MG Correction to account for finite box:                  0.459501
MG Remaining discrepancy, due to discretization:         -0.187001 (  -0.01305%)
      ideal mu1:      -0.786636517169
             Q0:  -11622.067153632874
             G0:      -1.853334407649
   RMS gradient:       0.000206708773
MG BCs: +ve charge blocks (gridpoints):     31333 (   17248225).
MG BCs: -ve charge blocks (gridpoints):      8315 (    1094255).
MG BCs:     Elided blocks (gridpoints):    178701 (  187877345).
MG BCs: Computational effort saved:  99.9808%.
MG BCs: Charge after coarse-graining:           -9.0010159.
MG DL_MG: Calling solver with defect correction order = 8
MG DL_MG: Solver finished
MG Hartree energy from (\int phi*rho dr):              1431.045074
MG Hartree energy from (\int eps (grad phi)^2 dr):     1430.398895
MG Discrepancy due to finite box and discretization:     -0.646178 (  -0.04515%)
MG Correction to account for finite box:                  0.459325
MG Remaining discrepancy, due to discretization:         -0.186854 (  -0.01306%)
     Trial step:       0.438313498224
             Q1:  -11622.532788145007
 Quadratic coef:       0.346706975462
 Linear coef   :      -0.812341487596
           Qmin:  -11622.542986785342
Quadratic minimum step length (  0.513488715804) accepted
    Initial Ne1:    7233.99996706
      Final Ne1:    7234.00000000

=================== Penalty functional idempotency correction ==================
 RMS occupancy error at iteration   1:  0.000595 (step -0.4976 Ne1=   7234.0000)
 RMS occupancy error at iteration   2:  0.000001 (step -0.5000 Ne1=   7234.0000)
            Final RMS occupancy error   :  0.000000 (Ne1=   7234.0000)
               Final occupancy bounds   : [  0.0000,  1.0000]
================================================================================

    3        -1.162206715363E+04     2.0671E-04     1.8711E-04    -2.9332E+00
MG BCs: +ve charge blocks (gridpoints):     31332 (   17248245).
MG BCs: -ve charge blocks (gridpoints):      8317 (    1094339).
MG BCs:     Elided blocks (gridpoints):    178702 (  187877241).
MG BCs: Computational effort saved:  99.9808%.
MG BCs: Charge after coarse-graining:           -9.0010159.
MG DL_MG: Calling solver with defect correction order = 8
MG DL_MG: Solver finished
MG Hartree energy from (\int phi*rho dr):              1430.769377
MG Hartree energy from (\int eps (grad phi)^2 dr):     1430.123245
MG Discrepancy due to finite box and discretization:     -0.646132 (  -0.04516%)
MG Correction to account for finite box:                  0.459295
MG Remaining discrepancy, due to discretization:         -0.186837 (  -0.01306%)
      ideal mu1:      -0.787538156270
             Q0:  -11622.547512898687
             G0:      -0.449946857629
   RMS gradient:       0.000101893480
MG BCs: +ve charge blocks (gridpoints):     31333 (   17249027).
MG BCs: -ve charge blocks (gridpoints):      8316 (    1094257).
MG BCs:     Elided blocks (gridpoints):    178701 (  187876541).
MG BCs: Computational effort saved:  99.9808%.
MG BCs: Charge after coarse-graining:           -9.0010159.
MG DL_MG: Calling solver with defect correction order = 8
MG DL_MG: Solver finished
MG Hartree energy from (\int phi*rho dr):              1431.807463
MG Hartree energy from (\int eps (grad phi)^2 dr):     1431.161298
MG Discrepancy due to finite box and discretization:     -0.646166 (  -0.04513%)
MG Correction to account for finite box:                  0.459227
MG Remaining discrepancy, due to discretization:         -0.186939 (  -0.01306%)
     Trial step:       0.474414413064
             Q1:  -11622.647959854221
 Quadratic coef:       0.113014318838
 Linear coef   :      -0.213461274372
           Qmin:  -11622.648309231676
Quadratic minimum step length (  0.448036612678) accepted
    Initial Ne1:    7233.99999288
      Final Ne1:    7234.00000000

=================== Penalty functional idempotency correction ==================
 RMS occupancy error at iteration   1:  0.000193 (step -0.4992 Ne1=   7234.0000)
            Final RMS occupancy error   :  0.000000 (Ne1=   7234.0000)
               Final occupancy bounds   : [ -0.0000,  1.0000]
================================================================================

    4        -1.162254751290E+04     1.0189E-04     9.2231E-05    -4.8036E-01
MG BCs: +ve charge blocks (gridpoints):     31333 (   17248981).
MG BCs: -ve charge blocks (gridpoints):      8316 (    1094257).
MG BCs:     Elided blocks (gridpoints):    178701 (  187876587).
MG BCs: Computational effort saved:  99.9808%.
MG BCs: Charge after coarse-graining:           -9.0010159.
MG DL_MG: Calling solver with defect correction order = 8
MG DL_MG: Solver finished
MG Hartree energy from (\int phi*rho dr):              1431.749587
MG Hartree energy from (\int eps (grad phi)^2 dr):     1431.103424
MG Discrepancy due to finite box and discretization:     -0.646163 (  -0.04513%)
MG Correction to account for finite box:                  0.459230
MG Remaining discrepancy, due to discretization:         -0.186933 (  -0.01306%)
      ideal mu1:      -0.787906505386
             Q0:  -11622.648776901886
             G0:      -0.104886013904
   RMS gradient:       0.000049350405
MG BCs: +ve charge blocks (gridpoints):     31334 (   17249173).
MG BCs: -ve charge blocks (gridpoints):      8315 (    1094136).
MG BCs:     Elided blocks (gridpoints):    178700 (  187876516).
MG BCs: Computational effort saved:  99.9808%.
MG BCs: Charge after coarse-graining:           -9.0010158.
MG DL_MG: Calling solver with defect correction order = 8
MG DL_MG: Solver finished
MG Hartree energy from (\int phi*rho dr):              1432.115934
MG Hartree energy from (\int eps (grad phi)^2 dr):     1431.469618
MG Discrepancy due to finite box and discretization:     -0.646316 (  -0.04513%)
MG Correction to account for finite box:                  0.459234
MG Remaining discrepancy, due to discretization:         -0.187082 (  -0.01306%)
     Trial step:       0.461036903767
             Q1:  -11622.674648789223
 Quadratic coef:       0.022484435762
 Linear coef   :      -0.048356323099
           Qmin:  -11622.674776375570
Quadratic minimum step length (  0.495766265057) accepted
    Initial Ne1:    7234.00173631
      Final Ne1:    7234.00000000

=================== Penalty functional idempotency correction ==================
 RMS occupancy error at iteration   1:  0.000067 (step -0.4997 Ne1=   7234.0000)
            Final RMS occupancy error   :  0.000000 (Ne1=   7234.0000)
               Final occupancy bounds   : [ -0.0000,  1.0000]
================================================================================

    5        -1.162264877690E+04     4.9350E-05     4.4671E-05    -1.0126E-01
MG BCs: +ve charge blocks (gridpoints):     31335 (   17249222).
MG BCs: -ve charge blocks (gridpoints):      8315 (    1094101).
MG BCs:     Elided blocks (gridpoints):    178699 (  187876502).
MG BCs: Computational effort saved:  99.9808%.
MG BCs: Charge after coarse-graining:           -9.0010158.
MG DL_MG: Calling solver with defect correction order = 8
MG DL_MG: Solver finished
MG Hartree energy from (\int phi*rho dr):              1432.143559
MG Hartree energy from (\int eps (grad phi)^2 dr):     1431.497232
MG Discrepancy due to finite box and discretization:     -0.646327 (  -0.04513%)
MG Correction to account for finite box:                  0.459234
MG Remaining discrepancy, due to discretization:         -0.187094 (  -0.01306%)
      ideal mu1:      -0.787950244357
             Q0:  -11622.674829243217
             G0:      -0.029463500676
   RMS gradient:       0.000026179885
MG BCs: +ve charge blocks (gridpoints):     31336 (   17248803).
MG BCs: -ve charge blocks (gridpoints):      8318 (    1094309).
MG BCs:     Elided blocks (gridpoints):    178698 (  187876713).
MG BCs: Computational effort saved:  99.9808%.
MG BCs: Charge after coarse-graining:           -9.0010157.
MG DL_MG: Calling solver with defect correction order = 8
MG DL_MG: Solver finished
MG Hartree energy from (\int phi*rho dr):              1431.519352
MG Hartree energy from (\int eps (grad phi)^2 dr):     1430.873026
MG Discrepancy due to finite box and discretization:     -0.646326 (  -0.04515%)
MG Correction to account for finite box:                  0.459237
MG Remaining discrepancy, due to discretization:         -0.187089 (  -0.01307%)
     Trial step:       0.478086335126
             Q1:  -11622.683840506827
 Quadratic coef:       0.005074833449
 Linear coef   :      -0.014086097058
           Qmin:  -11622.684603856134
Quadratic minimum step length (  0.663506555102) accepted
    Initial Ne1:    7234.00095784
      Final Ne1:    7234.00000000

=================== Penalty functional idempotency correction ==================
 RMS occupancy error at iteration   1:  0.000034 (step -0.4998 Ne1=   7234.0000)
            Final RMS occupancy error   :  0.000000 (Ne1=   7234.0000)
               Final occupancy bounds   : [ -0.0000,  1.0000]
================================================================================

    6        -1.162267482924E+04     2.6180E-05     2.3697E-05    -2.6052E-02
MG BCs: +ve charge blocks (gridpoints):     31336 (   17248623).
MG BCs: -ve charge blocks (gridpoints):      8318 (    1094405).
MG BCs:     Elided blocks (gridpoints):    178698 (  187876797).
MG BCs: Computational effort saved:  99.9808%.
MG BCs: Charge after coarse-graining:           -9.0010157.
MG DL_MG: Calling solver with defect correction order = 8
MG DL_MG: Solver finished
MG Hartree energy from (\int phi*rho dr):              1431.276801
MG Hartree energy from (\int eps (grad phi)^2 dr):     1430.630475
MG Discrepancy due to finite box and discretization:     -0.646326 (  -0.04516%)
MG Correction to account for finite box:                  0.459238
MG Remaining discrepancy, due to discretization:         -0.187088 (  -0.01307%)
      ideal mu1:      -0.787618530262
             Q0:  -11622.684612908866
             G0:      -0.014294951479
   RMS gradient:       0.000018259239
MG BCs: +ve charge blocks (gridpoints):     31336 (   17249125).
MG BCs: -ve charge blocks (gridpoints):      8318 (    1094154).
MG BCs:     Elided blocks (gridpoints):    178698 (  187876546).
MG BCs: Computational effort saved:  99.9808%.
MG BCs: Charge after coarse-graining:           -9.0010158.
MG DL_MG: Calling solver with defect correction order = 8
MG DL_MG: Solver finished
MG Hartree energy from (\int phi*rho dr):              1431.817504
MG Hartree energy from (\int eps (grad phi)^2 dr):     1431.171213
MG Discrepancy due to finite box and discretization:     -0.646291 (  -0.04514%)
MG Correction to account for finite box:                  0.459226
MG Remaining discrepancy, due to discretization:         -0.187065 (  -0.01306%)
     Trial step:       0.563217025010
             Q1:  -11622.688083263696
 Quadratic coef:       0.004580805215
 Linear coef   :      -0.008051160045
           Qmin:  -11622.688150560820
Quadratic minimum step length (  0.494951236287) accepted
    Initial Ne1:    7234.00009196
      Final Ne1:    7234.00000000

=================== Penalty functional idempotency correction ==================
 RMS occupancy error at iteration   1:  0.000002 (step -0.5000 Ne1=   7234.0000)
            Final RMS occupancy error   :  0.000000 (Ne1=   7234.0000)
               Final occupancy bounds   : [  0.0000,  1.0000]
================================================================================

    7        -1.162268461291E+04     1.8259E-05     1.6528E-05    -9.7837E-03
MG BCs: +ve charge blocks (gridpoints):     31336 (   17249063).
MG BCs: -ve charge blocks (gridpoints):      8318 (    1094187).
MG BCs:     Elided blocks (gridpoints):    178698 (  187876575).
MG BCs: Computational effort saved:  99.9808%.
MG BCs: Charge after coarse-graining:           -9.0010157.
MG DL_MG: Calling solver with defect correction order = 8
MG DL_MG: Solver finished
MG Hartree energy from (\int phi*rho dr):              1431.751856
MG Hartree energy from (\int eps (grad phi)^2 dr):     1431.105561
MG Discrepancy due to finite box and discretization:     -0.646295 (  -0.04514%)
MG Correction to account for finite box:                  0.459228
MG Remaining discrepancy, due to discretization:         -0.187067 (  -0.01307%)
      ideal mu1:      -0.787927533918
             Q0:  -11622.688150687609
             G0:      -0.007897253986
   RMS gradient:       0.000013571935
MG BCs: +ve charge blocks (gridpoints):     31335 (   17249125).
MG BCs: -ve charge blocks (gridpoints):      8317 (    1094173).
MG BCs:     Elided blocks (gridpoints):    178699 (  187876527).
MG BCs: Computational effort saved:  99.9808%.
MG BCs: Charge after coarse-graining:           -9.0010158.
MG DL_MG: Calling solver with defect correction order = 8
MG DL_MG: Solver finished
MG Hartree energy from (\int phi*rho dr):              1431.825135
MG Hartree energy from (\int eps (grad phi)^2 dr):     1431.178875
MG Discrepancy due to finite box and discretization:     -0.646260 (  -0.04514%)
MG Correction to account for finite box:                  0.459217
MG Remaining discrepancy, due to discretization:         -0.187042 (  -0.01306%)
     Trial step:       0.527981972066
             Q1:  -11622.691219821339
 Quadratic coef:       0.001100474003
 Linear coef   :      -0.004169607733
           Qmin:  -11622.692100264929
Quadratic minimum step length (  1.000240672867) accepted
    Initial Ne1:    7234.00010200
      Final Ne1:    7234.00000000

=================== Penalty functional idempotency correction ==================
 RMS occupancy error at iteration   1:  0.000018 (step -0.4994 Ne1=   7234.0000)
            Final RMS occupancy error   :  0.000000 (Ne1=   7234.0000)
               Final occupancy bounds   : [ -0.0000,  1.0000]
================================================================================

    8        -1.162268815069E+04     1.3572E-05     1.2285E-05    -3.5378E-03
MG BCs: +ve charge blocks (gridpoints):     31336 (   17249235).
MG BCs: -ve charge blocks (gridpoints):      8317 (    1094131).
MG BCs:     Elided blocks (gridpoints):    178698 (  187876459).
MG BCs: Computational effort saved:  99.9808%.
MG BCs: Charge after coarse-graining:           -9.0010158.
MG DL_MG: Calling solver with defect correction order = 8
MG DL_MG: Solver finished
MG Hartree energy from (\int phi*rho dr):              1431.889464
MG Hartree energy from (\int eps (grad phi)^2 dr):     1431.243237
MG Discrepancy due to finite box and discretization:     -0.646227 (  -0.04513%)
MG Correction to account for finite box:                  0.459208
MG Remaining discrepancy, due to discretization:         -0.187019 (  -0.01306%)
      ideal mu1:      -0.788009929483
             Q0:  -11622.692094169906
             G0:      -0.010307125124
   RMS gradient:       0.000015528288
MG BCs: +ve charge blocks (gridpoints):     31336 (   17249035).
MG BCs: -ve charge blocks (gridpoints):      8317 (    1094256).
MG BCs:     Elided blocks (gridpoints):    178698 (  187876534).
MG BCs: Computational effort saved:  99.9808%.
MG BCs: Charge after coarse-graining:           -9.0010158.
MG DL_MG: Calling solver with defect correction order = 8
MG DL_MG: Solver finished
MG Hartree energy from (\int phi*rho dr):              1431.596678
MG Hartree energy from (\int eps (grad phi)^2 dr):     1430.950497
MG Discrepancy due to finite box and discretization:     -0.646181 (  -0.04514%)
MG Correction to account for finite box:                  0.459199
MG Remaining discrepancy, due to discretization:         -0.186982 (  -0.01306%)
     Trial step:       0.726711113855
             Q1:  -11622.696690881974
 Quadratic coef:       0.002893590312
 Linear coef   :      -0.007490302380
           Qmin:  -11622.696941489645
Quadratic minimum step length (  0.940576480904) accepted
    Initial Ne1:    7234.00027910
      Final Ne1:    7234.00000000

=================== Penalty functional idempotency correction ==================
 RMS occupancy error at iteration   1:  0.000083 (step -0.4970 Ne1=   7234.0000)
 RMS occupancy error at iteration   2:  0.000000 (step -0.5000 Ne1=   7234.0000)
            Final RMS occupancy error   :  0.000000 (Ne1=   7234.0000)
               Final occupancy bounds   : [  0.0000,  1.0000]
================================================================================

    9        -1.162269209417E+04     1.5528E-05     1.4056E-05    -3.9435E-03
MG BCs: +ve charge blocks (gridpoints):     31336 (   17248980).
MG BCs: -ve charge blocks (gridpoints):      8317 (    1094289).
MG BCs:     Elided blocks (gridpoints):    178698 (  187876556).
MG BCs: Computational effort saved:  99.9808%.
MG BCs: Charge after coarse-graining:           -9.0010158.
MG DL_MG: Calling solver with defect correction order = 8
MG DL_MG: Solver finished
MG Hartree energy from (\int phi*rho dr):              1431.508825
MG Hartree energy from (\int eps (grad phi)^2 dr):     1430.862658
MG Discrepancy due to finite box and discretization:     -0.646167 (  -0.04514%)
MG Correction to account for finite box:                  0.459196
MG Remaining discrepancy, due to discretization:         -0.186971 (  -0.01306%)
      ideal mu1:      -0.787705465369
   10        -1.162269692515E+04     1.6534E-05     1.4966E-05    -4.8310E-03
Finished density kernel iterations (  10)

Writing density kernel to file "complex_17201.vacuum_dkn" ... done


>>> Density kernel optimised for the current NGWF basis:
     ~~~~~~~~~~~~~~~~~~~~~~~~~~~~~~~~~~~~~~~~~~~~~~~~~~~~~~~~~~~
     Total energy                =  -1.16226969251495E+04  Eh
     Estimated bandgap           =  -2.8435E-01  Eh
     RMS occupancy error         =   4.8099E-12
     [H,K] commutator            =   1.4966E-05
     Occupancy bounds            = [  0.000:  1.000]
     ~~~~~~~~~~~~~~~~~~~~~~~~~~~~~~~~~~~~~~~~~~~~~~~~~~~~~~~~~~~




################################################################################
########################### NGWF CG iteration  001 #############################
################################################################################
****** Reciprocal space K.E. preconditioning with k_zero =  3.5000 a0^-1 *******

>>> Checking for convergence of NGWFs:   NOT CONVERGED
  ========================================================================
         NGWF RMS gradient =  1.6160E-03 >  2.0000E-06  | above tolerance
  ========================================================================

>>> Improving NGWFs using line search:
============ Calculation of NGWF S^-1 using Hotelling algorithm ================ 
         Iteration  |  Frobenius norm and Maximum abs value    (of I-S*S_n^-1)   
               1       0.20422256E+00     0.56427318E-02
               2       0.96695767E-03     0.46546002E-04
               3       0.37902951E-07     0.31645127E-08
               4       0.12906532E-12     0.59952043E-14
================================================================================
MG BCs: +ve charge blocks (gridpoints):     30887 (   17189190).
MG BCs: -ve charge blocks (gridpoints):      8322 (    1093577).
MG BCs:     Elided blocks (gridpoints):    179150 (  187937058).
MG BCs: Computational effort saved:  99.9810%.
MG BCs: Charge after coarse-graining:           -9.0010168.
MG DL_MG: Calling solver with defect correction order = 8
MG DL_MG: Solver finished
MG Hartree energy from (\int phi*rho dr):              1398.971521
MG Hartree energy from (\int eps (grad phi)^2 dr):     1398.326236
MG Discrepancy due to finite box and discretization:     -0.645285 (  -0.04613%)
MG Correction to account for finite box:                  0.459170
MG Remaining discrepancy, due to discretization:         -0.186115 (  -0.01330%)
============ Calculation of NGWF S^-1 using Hotelling algorithm ================ 
         Iteration  |  Frobenius norm and Maximum abs value    (of I-S*S_n^-1)   
               1       0.18819190E+01     0.44033648E-01
               2       0.73739841E-01     0.26038890E-02
               3       0.15557452E-03     0.10040372E-04
               4       0.13926010E-08     0.18793238E-09
               5       0.11195716E-12     0.62172489E-14
================================================================================
------------------------------- NGWF line search -------------------------------
RMS gradient                =       0.00161602803389
Trial step length           =               0.122474
Gradient along search dir.  =       -284.44197057959
Functional at step 0        =  -11622.69692514953203
Functional at step 1        =  -11654.84302015241701
Functional predicted        =  -11735.45272928509439
Selected quadratic step     =               0.792821
--------------------------- NGWF line search finished --------------------------
                                               
Writing NGWFs to file "complex_17201.vacuum_tightbox_ngwfs"....  done

>>> Optimising kernel for current NGWFs:
   Initial electron number for spin 1:    7269.99321002
     Final electron number for spin 1:    7234.00000000

=================== Penalty functional idempotency correction ==================
 RMS occupancy error at iteration   1:  0.004359 (step -0.4856 Ne1=   7234.0000)
 RMS occupancy error at iteration   2:  0.000074 (step -0.5003 Ne1=   7234.0000)
            Final RMS occupancy error   :  0.000000 (Ne1=   7234.0000)
               Final occupancy bounds   : [  0.0000,  1.0000]
================================================================================

................................................................................
<<<<<<<<<<<<<< LNV (Original version) density kernel optimisation >>>>>>>>>>>>>>
~~~~~~~~~~~~~~~~~~~~~~~~~~~~~~~~~~~~~~~~~~~~~~~~~~~~~~~~~~~~~~~~~~~~~~~~~~~~~~~~
   iter  |      energy (Eh)       | rms gradient |  commutator  |   dE (Eh)
MG BCs: +ve charge blocks (gridpoints):     25020 (   16862640).
MG BCs: -ve charge blocks (gridpoints):      8442 (    1075729).
MG BCs:     Elided blocks (gridpoints):    185025 (  188281456).
MG BCs: Computational effort saved:  99.9838%.
MG BCs: Charge after coarse-graining:           -9.0007075.
MG DL_MG: Calling solver with defect correction order = 8
MG DL_MG: Solver finished
MG Hartree energy from (\int phi*rho dr):              1243.696010
MG Hartree energy from (\int eps (grad phi)^2 dr):     1243.050890
MG Discrepancy due to finite box and discretization:     -0.645121 (  -0.05187%)
MG Correction to account for finite box:                  0.459068
MG Remaining discrepancy, due to discretization:         -0.186053 (  -0.01496%)
      ideal mu1:      -0.725694133057
             Q0:  -11734.499015768291
             G0:      -9.801531638437
   RMS gradient:       0.000478121532
MG BCs: +ve charge blocks (gridpoints):     25087 (   16891221).
MG BCs: -ve charge blocks (gridpoints):      8415 (    1067965).
MG BCs:     Elided blocks (gridpoints):    184958 (  188260639).
MG BCs: Computational effort saved:  99.9838%.
MG BCs: Charge after coarse-graining:           -9.0006997.
MG DL_MG: Calling solver with defect correction order = 8
MG DL_MG: Solver finished
MG Hartree energy from (\int phi*rho dr):              1267.471497
MG Hartree energy from (\int eps (grad phi)^2 dr):     1266.820139
MG Discrepancy due to finite box and discretization:     -0.651358 (  -0.05139%)
MG Correction to account for finite box:                  0.458624
MG Remaining discrepancy, due to discretization:         -0.192733 (  -0.01521%)
     Trial step:       0.826757148202
             Q1:  -11732.481885765796
 Quadratic coef:      10.120616347906
 Linear coef   :      -8.103486345410
           Qmin:  -11736.121112898863
Quadratic minimum step length (  0.330988500657) accepted
    Initial Ne1:    7233.99952667
      Final Ne1:    7234.00000000

=================== Penalty functional idempotency correction ==================
 RMS occupancy error at iteration   1:  0.000354 (step -0.4986 Ne1=   7234.0000)
 RMS occupancy error at iteration   2:  0.000000 (step -0.5000 Ne1=   7234.0000)
            Final RMS occupancy error   :  0.000000 (Ne1=   7234.0000)
               Final occupancy bounds   : [  0.0000,  1.0000]
================================================================================

    1        -1.173449901577E+04     4.7812E-04     4.3278E-04
MG BCs: +ve charge blocks (gridpoints):     25054 (   16874264).
MG BCs: -ve charge blocks (gridpoints):      8432 (    1072516).
MG BCs:     Elided blocks (gridpoints):    184991 (  188273045).
MG BCs: Computational effort saved:  99.9838%.
MG BCs: Charge after coarse-graining:           -9.0007044.
MG DL_MG: Calling solver with defect correction order = 8
MG DL_MG: Solver finished
MG Hartree energy from (\int phi*rho dr):              1251.997801
MG Hartree energy from (\int eps (grad phi)^2 dr):     1251.350311
MG Discrepancy due to finite box and discretization:     -0.647490 (  -0.05172%)
MG Correction to account for finite box:                  0.458864
MG Remaining discrepancy, due to discretization:         -0.188626 (  -0.01507%)
      ideal mu1:      -0.734325279751
             Q0:  -11736.088206051616
             G0:      -0.991772569836
   RMS gradient:       0.000153119595
MG BCs: +ve charge blocks (gridpoints):     25052 (   16875433).
MG BCs: -ve charge blocks (gridpoints):      8435 (    1072843).
MG BCs:     Elided blocks (gridpoints):    184993 (  188271549).
MG BCs: Computational effort saved:  99.9838%.
MG BCs: Charge after coarse-graining:           -9.0007039.
MG DL_MG: Calling solver with defect correction order = 8
MG DL_MG: Solver finished
MG Hartree energy from (\int phi*rho dr):              1253.892975
MG Hartree energy from (\int eps (grad phi)^2 dr):     1253.245185
MG Discrepancy due to finite box and discretization:     -0.647790 (  -0.05166%)
MG Correction to account for finite box:                  0.458856
MG Remaining discrepancy, due to discretization:         -0.188934 (  -0.01507%)
     Trial step:       0.523112902623
             Q1:  -11736.289393732906
 Quadratic coef:       0.317621346459
 Linear coef   :      -0.518809027749
           Qmin:  -11736.300064299081
Quadratic minimum step length (  0.427231512362) accepted
    Initial Ne1:    7233.99993733
      Final Ne1:    7234.00000000

=================== Penalty functional idempotency correction ==================
 RMS occupancy error at iteration   1:  0.000144 (step -0.4994 Ne1=   7234.0000)
            Final RMS occupancy error   :  0.000000 (Ne1=   7234.0000)
               Final occupancy bounds   : [ -0.0000,  1.0000]
================================================================================

    2        -1.173608820605E+04     1.5312E-04     1.3860E-04    -1.5892E+00
MG BCs: +ve charge blocks (gridpoints):     25053 (   16875243).
MG BCs: -ve charge blocks (gridpoints):      8435 (    1072769).
MG BCs:     Elided blocks (gridpoints):    184992 (  188271813).
MG BCs: Computational effort saved:  99.9838%.
MG BCs: Charge after coarse-graining:           -9.0007040.
MG DL_MG: Calling solver with defect correction order = 8
MG DL_MG: Solver finished
MG Hartree energy from (\int phi*rho dr):              1253.544973
MG Hartree energy from (\int eps (grad phi)^2 dr):     1252.897240
MG Discrepancy due to finite box and discretization:     -0.647733 (  -0.05167%)
MG Correction to account for finite box:                  0.458857
MG Remaining discrepancy, due to discretization:         -0.188875 (  -0.01507%)
      ideal mu1:      -0.735751808824
             Q0:  -11736.300545323757
             G0:      -0.156670349497
   RMS gradient:       0.000060382373
MG BCs: +ve charge blocks (gridpoints):     25051 (   16874189).
MG BCs: -ve charge blocks (gridpoints):      8434 (    1073345).
MG BCs:     Elided blocks (gridpoints):    184994 (  188272291).
MG BCs: Computational effort saved:  99.9838%.
MG BCs: Charge after coarse-graining:           -9.0007040.
MG DL_MG: Calling solver with defect correction order = 8
MG DL_MG: Solver finished
MG Hartree energy from (\int phi*rho dr):              1252.940343
MG Hartree energy from (\int eps (grad phi)^2 dr):     1252.292676
MG Discrepancy due to finite box and discretization:     -0.647667 (  -0.05169%)
MG Correction to account for finite box:                  0.458835
MG Remaining discrepancy, due to discretization:         -0.188832 (  -0.01507%)
     Trial step:       0.472747624557
             Q1:  -11736.348321607918
 Quadratic coef:       0.026289251402
 Linear coef   :      -0.074065535563
           Qmin:  -11736.352712114989
Quadratic minimum step length (  0.665943382404) accepted
    Initial Ne1:    7234.00063990
      Final Ne1:    7234.00000000

=================== Penalty functional idempotency correction ==================
 RMS occupancy error at iteration   1:  0.000067 (step -0.4998 Ne1=   7234.0000)
            Final RMS occupancy error   :  0.000000 (Ne1=   7234.0000)
               Final occupancy bounds   : [ -0.0000,  1.0000]
================================================================================

    3        -1.173630054532E+04     6.0382E-05     5.4656E-05    -2.1234E-01
MG BCs: +ve charge blocks (gridpoints):     25052 (   16873768).
MG BCs: -ve charge blocks (gridpoints):      8434 (    1073566).
MG BCs:     Elided blocks (gridpoints):    184993 (  188272491).
MG BCs: Computational effort saved:  99.9838%.
MG BCs: Charge after coarse-graining:           -9.0007041.
MG DL_MG: Calling solver with defect correction order = 8
MG DL_MG: Solver finished
MG Hartree energy from (\int phi*rho dr):              1252.693240
MG Hartree energy from (\int eps (grad phi)^2 dr):     1252.045599
MG Discrepancy due to finite box and discretization:     -0.647641 (  -0.05170%)
MG Correction to account for finite box:                  0.458826
MG Remaining discrepancy, due to discretization:         -0.188815 (  -0.01507%)
      ideal mu1:      -0.734664504923
             Q0:  -11736.352813200210
             G0:      -0.035661782627
   RMS gradient:       0.000028796187
MG BCs: +ve charge blocks (gridpoints):     25052 (   16873822).
MG BCs: -ve charge blocks (gridpoints):      8435 (    1073509).
MG BCs:     Elided blocks (gridpoints):    184993 (  188272494).
MG BCs: Computational effort saved:  99.9838%.
MG BCs: Charge after coarse-graining:           -9.0007041.
MG DL_MG: Calling solver with defect correction order = 8
MG DL_MG: Solver finished
MG Hartree energy from (\int phi*rho dr):              1252.780249
MG Hartree energy from (\int eps (grad phi)^2 dr):     1252.132721
MG Discrepancy due to finite box and discretization:     -0.647528 (  -0.05169%)
MG Correction to account for finite box:                  0.458824
MG Remaining discrepancy, due to discretization:         -0.188704 (  -0.01506%)
     Trial step:       0.561091037284
             Q1:  -11736.361570655718
 Quadratic coef:       0.011252051097
 Linear coef   :      -0.020009506606
           Qmin:  -11736.361708919558
Quadratic minimum step length (  0.498893700339) accepted
    Initial Ne1:    7234.00023824
      Final Ne1:    7234.00000000

=================== Penalty functional idempotency correction ==================
 RMS occupancy error at iteration   1:  0.000018 (step -0.4999 Ne1=   7234.0000)
            Final RMS occupancy error   :  0.000000 (Ne1=   7234.0000)
               Final occupancy bounds   : [ -0.0000,  1.0000]
================================================================================

    4        -1.173635281320E+04     2.8796E-05     2.6065E-05    -5.2268E-02
MG BCs: +ve charge blocks (gridpoints):     25052 (   16873834).
MG BCs: -ve charge blocks (gridpoints):      8435 (    1073498).
MG BCs:     Elided blocks (gridpoints):    184993 (  188272493).
MG BCs: Computational effort saved:  99.9838%.
MG BCs: Charge after coarse-graining:           -9.0007041.
MG DL_MG: Calling solver with defect correction order = 8
MG DL_MG: Solver finished
MG Hartree energy from (\int phi*rho dr):              1252.770413
MG Hartree energy from (\int eps (grad phi)^2 dr):     1252.122872
MG Discrepancy due to finite box and discretization:     -0.647541 (  -0.05169%)
MG Correction to account for finite box:                  0.458824
MG Remaining discrepancy, due to discretization:         -0.188717 (  -0.01506%)
      ideal mu1:      -0.734697564436
             Q0:  -11736.361713741906
             G0:      -0.011291994808
   RMS gradient:       0.000016224917
MG BCs: +ve charge blocks (gridpoints):     25053 (   16874391).
MG BCs: -ve charge blocks (gridpoints):      8434 (    1073298).
MG BCs:     Elided blocks (gridpoints):    184992 (  188272136).
MG BCs: Computational effort saved:  99.9838%.
MG BCs: Charge after coarse-graining:           -9.0007040.
MG DL_MG: Calling solver with defect correction order = 8
MG DL_MG: Solver finished
MG Hartree energy from (\int phi*rho dr):              1253.164041
MG Hartree energy from (\int eps (grad phi)^2 dr):     1252.516549
MG Discrepancy due to finite box and discretization:     -0.647492 (  -0.05167%)
MG Correction to account for finite box:                  0.458810
MG Remaining discrepancy, due to discretization:         -0.188682 (  -0.01506%)
     Trial step:       0.529079184827
             Q1:  -11736.364757333649
 Quadratic coef:       0.002930767665
 Linear coef   :      -0.005974359408
           Qmin:  -11736.364758419480
Quadratic minimum step length (  0.539263013425) accepted
    Initial Ne1:    7234.00009291
      Final Ne1:    7234.00000000

=================== Penalty functional idempotency correction ==================
 RMS occupancy error at iteration   1:  0.000008 (step -0.5000 Ne1=   7234.0000)
            Final RMS occupancy error   :  0.000000 (Ne1=   7234.0000)
               Final occupancy bounds   : [ -0.0000,  1.0000]
================================================================================

    5        -1.173636171374E+04     1.6225E-05     1.4686E-05    -8.9005E-03
MG BCs: +ve charge blocks (gridpoints):     25053 (   16874412).
MG BCs: -ve charge blocks (gridpoints):      8434 (    1073290).
MG BCs:     Elided blocks (gridpoints):    184992 (  188272123).
MG BCs: Computational effort saved:  99.9838%.
MG BCs: Charge after coarse-graining:           -9.0007039.
MG DL_MG: Calling solver with defect correction order = 8
MG DL_MG: Solver finished
MG Hartree energy from (\int phi*rho dr):              1253.171627
MG Hartree energy from (\int eps (grad phi)^2 dr):     1252.524136
MG Discrepancy due to finite box and discretization:     -0.647491 (  -0.05167%)
MG Correction to account for finite box:                  0.458810
MG Remaining discrepancy, due to discretization:         -0.188681 (  -0.01506%)
      ideal mu1:      -0.735035383854
             Q0:  -11736.364759284304
             G0:      -0.003124188026
   RMS gradient:       0.000008534528
MG BCs: +ve charge blocks (gridpoints):     25053 (   16874322).
MG BCs: -ve charge blocks (gridpoints):      8434 (    1073338).
MG BCs:     Elided blocks (gridpoints):    184992 (  188272165).
MG BCs: Computational effort saved:  99.9838%.
MG BCs: Charge after coarse-graining:           -9.0007040.
MG DL_MG: Calling solver with defect correction order = 8
MG DL_MG: Solver finished
MG Hartree energy from (\int phi*rho dr):              1253.109680
MG Hartree energy from (\int eps (grad phi)^2 dr):     1252.462197
MG Discrepancy due to finite box and discretization:     -0.647483 (  -0.05167%)
MG Correction to account for finite box:                  0.458804
MG Remaining discrepancy, due to discretization:         -0.188679 (  -0.01506%)
     Trial step:       0.534146829580
             Q1:  -11736.365774235572
 Quadratic coef:       0.000653823861
 Linear coef   :      -0.001668775129
           Qmin:  -11736.365824101067
Quadratic minimum step length (  0.681659845357) accepted
    Initial Ne1:    7234.00003682
      Final Ne1:    7234.00000000

=================== Penalty functional idempotency correction ==================
 RMS occupancy error at iteration   1:  0.000004 (step -0.5000 Ne1=   7234.0000)
            Final RMS occupancy error   :  0.000000 (Ne1=   7234.0000)
               Final occupancy bounds   : [  0.0000,  1.0000]
================================================================================

    6        -1.173636475928E+04     8.5345E-06     7.7252E-06    -3.0455E-03
MG BCs: +ve charge blocks (gridpoints):     25053 (   16874294).
MG BCs: -ve charge blocks (gridpoints):      8434 (    1073358).
MG BCs:     Elided blocks (gridpoints):    184992 (  188272173).
MG BCs: Computational effort saved:  99.9838%.
MG BCs: Charge after coarse-graining:           -9.0007040.
MG DL_MG: Calling solver with defect correction order = 8
MG DL_MG: Solver finished
MG Hartree energy from (\int phi*rho dr):              1253.092568
MG Hartree energy from (\int eps (grad phi)^2 dr):     1252.445087
MG Discrepancy due to finite box and discretization:     -0.647481 (  -0.05167%)
MG Correction to account for finite box:                  0.458803
MG Remaining discrepancy, due to discretization:         -0.188678 (  -0.01506%)
      ideal mu1:      -0.734995828762
             Q0:  -11736.365824182285
             G0:      -0.001478280863
   RMS gradient:       0.000005871780
MG BCs: +ve charge blocks (gridpoints):     25053 (   16874207).
MG BCs: -ve charge blocks (gridpoints):      8435 (    1073363).
MG BCs:     Elided blocks (gridpoints):    184992 (  188272255).
MG BCs: Computational effort saved:  99.9838%.
MG BCs: Charge after coarse-graining:           -9.0007040.
MG DL_MG: Calling solver with defect correction order = 8
MG DL_MG: Solver finished
MG Hartree energy from (\int phi*rho dr):              1253.034259
MG Hartree energy from (\int eps (grad phi)^2 dr):     1252.386769
MG Discrepancy due to finite box and discretization:     -0.647490 (  -0.05167%)
MG Correction to account for finite box:                  0.458806
[...]
MG Correction to account for finite box:                  0.006280
MG Remaining discrepancy, due to discretization:         -0.188059 (  -0.01555%)
     Trial step:       0.654385956509
             Q1:  -11770.109456364298
 Quadratic coef:       0.000000000482
 Linear coef   :      -0.000000004092
           Qmin:  -11770.109456369371
Quadratic minimum step length (  2.777342839191) accepted
    Initial Ne1:    7234.00000000
      Final Ne1:    7234.00000000

=================== Penalty functional idempotency correction ==================
 RMS occupancy error at iteration   1:  0.000000 (step -0.5000 Ne1=   7234.0000)
            Final RMS occupancy error   :  0.000000 (Ne1=   7234.0000)
               Final occupancy bounds   : [  0.0000,  1.0000]
================================================================================

    7        -1.177010945636E+04     1.2076E-08     1.0931E-08    -4.5402E-09

Reusing previously generated solute cavity.
MG BCs: +ve charge blocks (gridpoints):     29460 (   19126248).
MG BCs: -ve charge blocks (gridpoints):      8413 (    1042755).
MG BCs:     Elided blocks (gridpoints):    180585 (  186050822).
MG BCs: Computational effort saved:  99.9816%.
MG BCs: Charge after coarse-graining:           -9.0009999.
MG DL_MG: Calling solver with defect correction order = 8
MG DL_MG: Solver finished
MG Hartree energy from (\int phi*rho dr):              1209.226924
MG Hartree energy from (\int eps (grad phi)^2 dr):     1209.032585
MG Discrepancy due to finite box and discretization:     -0.194339 (  -0.01607%)
MG Correction to account for finite box:                  0.006280
MG Remaining discrepancy, due to discretization:         -0.188059 (  -0.01555%)
      ideal mu1:      -0.485891382297
             Q0:  -11770.109456345439
WARNING in lnv_denskernel_optimise_cg: 
  conjugate gradient coefficient ( 0.256E+02) too large - resetting
             G0:      -0.000000160085
   RMS gradient:       0.000000061104

Reusing previously generated solute cavity.
MG BCs: +ve charge blocks (gridpoints):     29460 (   19126242).
MG BCs: -ve charge blocks (gridpoints):      8413 (    1042757).
MG BCs:     Elided blocks (gridpoints):    180585 (  186050826).
MG BCs: Computational effort saved:  99.9816%.
MG BCs: Charge after coarse-graining:           -9.0009999.
MG DL_MG: Calling solver with defect correction order = 8
MG DL_MG: Solver finished
MG Hartree energy from (\int phi*rho dr):              1209.225881
MG Hartree energy from (\int eps (grad phi)^2 dr):     1209.031542
MG Discrepancy due to finite box and discretization:     -0.194339 (  -0.01607%)
MG Correction to account for finite box:                  0.006280
MG Remaining discrepancy, due to discretization:         -0.188059 (  -0.01555%)
     Trial step:       1.348129871481
             Q1:  -11770.109456099686
 Quadratic coef:       0.000000461569
 Linear coef   :      -0.000000215815
           Qmin:  -11770.109456370667
Quadratic minimum step length (  0.315171800173) accepted
    Initial Ne1:    7234.00000000
      Final Ne1:    7234.00000000

=================== Penalty functional idempotency correction ==================
 RMS occupancy error at iteration   1:  0.000000 (step -0.5000 Ne1=   7234.0000)
            Final RMS occupancy error   :  0.000000 (Ne1=   7234.0000)
               Final occupancy bounds   : [  0.0000,  1.0000]
================================================================================

    8        -1.177010945635E+04     6.1104E-08     5.5309E-08     1.5250E-08

Reusing previously generated solute cavity.
MG BCs: +ve charge blocks (gridpoints):     29460 (   19126244).
MG BCs: -ve charge blocks (gridpoints):      8413 (    1042756).
MG BCs:     Elided blocks (gridpoints):    180585 (  186050825).
MG BCs: Computational effort saved:  99.9816%.
MG BCs: Charge after coarse-graining:           -9.0009999.
MG DL_MG: Calling solver with defect correction order = 8
MG DL_MG: Solver finished
MG Hartree energy from (\int phi*rho dr):              1209.226680
MG Hartree energy from (\int eps (grad phi)^2 dr):     1209.032341
MG Discrepancy due to finite box and discretization:     -0.194339 (  -0.01607%)
MG Correction to account for finite box:                  0.006280
MG Remaining discrepancy, due to discretization:         -0.188059 (  -0.01555%)
      ideal mu1:      -0.485891059504
             Q0:  -11770.109456366161
             G0:      -0.000000005411
   RMS gradient:       0.000000010942

Reusing previously generated solute cavity.
MG BCs: +ve charge blocks (gridpoints):     29460 (   19126244).
MG BCs: -ve charge blocks (gridpoints):      8413 (    1042756).
MG BCs:     Elided blocks (gridpoints):    180585 (  186050825).
MG BCs: Computational effort saved:  99.9816%.
MG BCs: Charge after coarse-graining:           -9.0009999.
MG DL_MG: Calling solver with defect correction order = 8
MG DL_MG: Solver finished
MG Hartree energy from (\int phi*rho dr):              1209.226584
MG Hartree energy from (\int eps (grad phi)^2 dr):     1209.032245
MG Discrepancy due to finite box and discretization:     -0.194339 (  -0.01607%)
MG Correction to account for finite box:                  0.006280
MG Remaining discrepancy, due to discretization:         -0.188059 (  -0.01555%)
     Trial step:       0.651837800731
             Q1:  -11770.109456368140
 Quadratic coef:       0.000000001548
 Linear coef   :      -0.000000003527
           Qmin:  -11770.109456368171
Quadratic minimum step length (  0.742670689473) accepted
    Initial Ne1:    7234.00000000
      Final Ne1:    7234.00000000

=================== Penalty functional idempotency correction ==================
 RMS occupancy error at iteration   1:  0.000000 (step -0.5000 Ne1=   7234.0000)
            Final RMS occupancy error   :  0.000000 (Ne1=   7234.0000)
               Final occupancy bounds   : [ -0.0000,  1.0000]
================================================================================

    9        -1.177010945637E+04     1.0942E-08     9.9044E-09    -2.0722E-08

Reusing previously generated solute cavity.
MG BCs: +ve charge blocks (gridpoints):     29460 (   19126244).
MG BCs: -ve charge blocks (gridpoints):      8413 (    1042757).
MG BCs:     Elided blocks (gridpoints):    180585 (  186050824).
MG BCs: Computational effort saved:  99.9816%.
MG BCs: Charge after coarse-graining:           -9.0009999.
MG DL_MG: Calling solver with defect correction order = 8
MG DL_MG: Solver finished
MG Hartree energy from (\int phi*rho dr):              1209.226571
MG Hartree energy from (\int eps (grad phi)^2 dr):     1209.032232
MG Discrepancy due to finite box and discretization:     -0.194339 (  -0.01607%)
MG Correction to account for finite box:                  0.006280
MG Remaining discrepancy, due to discretization:         -0.188059 (  -0.01555%)
      ideal mu1:      -0.485891039502
   10        -1.177010945637E+04     8.4105E-09     7.6130E-09    -1.8626E-09
Finished density kernel iterations (  10)

Writing density kernel to file "complex_17201.dkn" ... done


>>> Density kernel optimised for the current NGWF basis:
     ~~~~~~~~~~~~~~~~~~~~~~~~~~~~~~~~~~~~~~~~~~~~~~~~~~~~~~~~~~~
     Total energy                =  -1.17701094563680E+04  Eh
     Estimated bandgap           =   8.7807E-02  Eh
     RMS occupancy error         =   5.3742E-16
     [H,K] commutator            =   7.6130E-09
     Occupancy bounds            = [ -0.000:  1.000]
     ~~~~~~~~~~~~~~~~~~~~~~~~~~~~~~~~~~~~~~~~~~~~~~~~~~~~~~~~~~~




################################################################################
########################### NGWF CG iteration  004 #############################
################################################################################
****** Reciprocal space K.E. preconditioning with k_zero =  3.5000 a0^-1 *******

>>> Checking for convergence of NGWFs: 
           ........................................................
           |         *** NGWF optimisation converged ***          |
           | RMS NGWF gradient =    0.00000187661047              |
           | Criteria satisfied:                                  |
           | -> RMS NGWF gradient lower than set threshold.       |
           ========================================================

Reusing previously generated solute cavity.
MG BCs: +ve charge blocks (gridpoints):     29460 (   19126244).
MG BCs: -ve charge blocks (gridpoints):      8413 (    1042757).
MG BCs:     Elided blocks (gridpoints):    180585 (  186050824).
MG BCs: Computational effort saved:  99.9816%.
MG BCs: Charge after coarse-graining:           -9.0009999.
MG DL_MG: Calling solver with defect correction order = 8
MG DL_MG: Solver finished
MG Hartree energy from (\int phi*rho dr):              1209.226571
MG Hartree energy from (\int eps (grad phi)^2 dr):     1209.032232
MG Discrepancy due to finite box and discretization:     -0.194339 (  -0.01607%)
MG Correction to account for finite box:                  0.006280
MG Remaining discrepancy, due to discretization:         -0.188059 (  -0.01555%)

================================================================================
           ---------------- ENERGY COMPONENTS (Eh) ----------------
           | Kinetic                    :     8612.76330161067381 |
           | Pseudo. (local,OBC,corr'd) :    -5106.92128634687015 |
           | Pseudopotential (non-local):     1413.60332991776204 |
           | Hartree (molecular)        :     1209.22657073062783 |
           | Exchange-correlation       :    -3402.86966892130567 |
           | Ion-ion (open BC)          :   822788.35721338377334 |
           | Smeared ion non-self corr. :  -822739.97020454343874 |
           | Smeared ion self corr.     :   -14544.93686558573609 |
           | Solvent cavitation energy  :        2.27040251355233 |
           | Solute-solvent dis-rep en. :       -1.63224912705561 |
           | Total                      :   -11770.10945636794531 |
           --------------------------------------------------------
           ------ LOCAL ENERGY COMPONENTS FROM MATRIX TRACES ------
           | Pseudopotential (local)    :    -5106.92128634687379 |
           | Hartree                    :    -2015.54198348027876 |
           --------------------------------------------------------
           Integrated density           :     7233.99999999883948
           Integrated density tr(KS)    :     7234.00000000000000
================================================================================


                        <<<<< CALCULATION SUMMARY >>>>>                         
|ITER|    RMS GRADIENT   |     TOTAL ENERGY    |   step   |     Epredicted              
   0     0.00003897536392 -11770.05154158186633   0.603248 -11770.10144633312848        
   1     0.00000996951371 -11770.10889146267436   0.086852 -11770.10936156728349        
   2     0.00000429289552 -11770.10943893715739   0.015162 -11770.10945415404603        
   3     0.00000187661047 -11770.10945636802353  <-- CG                                 

=================== Finished the calculation in solvent ========================
= Adjusting the following parameters: 
= read_denskern: F
= read_tightbox_ngwfs: F
= maxit_pen: 0 (restored to user-specified value)
= restart read filename prefix: ""
= restart write filename prefix: ""
================================================================================

================================================================================
IS: Calculation in solvent completed (NGWFs converged).      

Individual components of total energy in solvent:     hartree           kcal/mol
- Usual non-electrostatic DFT terms:    -12979.97418048514919    -8145056.594641
- Electrostatic fixed charge energy:      1209.22657073062783      758801.112960
- Apolar cavitation energy:                  2.27040251355233        1424.699056
- Apolar dispersion-repulsion energy:       -1.63224912705561       -1024.251769
 -------------------------------------------------------------------------------
- Total energy in solvent:              -11770.10945636802353    -7385855.034394

Components of total energy in solvent:                hartree           kcal/mol
- Usual non-electrostatic DFT terms:    -12979.97418048514919    -8145056.594641
- Electrostatic energy:                   1209.22657073062783      758801.112960
- Apolar energy terms:                       0.63815338649672         400.447287
 -------------------------------------------------------------------------------
- Total energy in solvent:              -11770.10945636802353    -7385855.034394

Calculation of free energy of solvation:              hartree           kcal/mol
- Total energy in solvent:         (+)  -11770.10945636802353    -7385855.034394
- Total energy in vacuum:          (-)  -11766.33149960520677    -7383484.330784
 -------------------------------------------------------------------------------
- Total free energy of solvation:           -3.77795676281676       -2370.703610

Components of polar term in f.e. of solvation:        hartree           kcal/mol
- Electrostatic:                            -4.46488975161901       -2801.760559
- Change in nonelectrostatic DFT terms:      0.04877960230442          30.609662
 -------------------------------------------------------------------------------
- Polar term in f.e. of solvation:          -4.41611014931459       -2771.150897

Components of free energy of solvation:               hartree           kcal/mol
- Polar term in f.e. of solvation: (+)      -4.41611014931459       -2771.150897
- Apolar (cavitation, dis., rep.): (+)       0.63815338649672         400.447287
 -------------------------------------------------------------------------------
- Total free energy of solvation:           -3.77795676281787       -2370.703610
================================================================================


------------------------------ TIMING INFORMATION ------------------------------
AVERAGE TIME:   33117.580s on     60 node(s)                                    
TOTAL TIME:     33117.580s on     60 node(s)                                    
================= AVERAGE TIMINGS FROM ALL NODES (CUMULATIVE) ==================
|| TAG                                    #calls    cpu time   %total  Gflops ||
|| work_imbalance                       :     1        0.00s   0.000%  ------ ||
|| sparse_set_to_garbage                :   164        0.03s   0.000%  ------ ||
|| parallel_prepare_fd_halos_request    :  1821        0.03s   0.000%  ------ ||
|| ngwfs_initialise_from_radial         :     1        0.11s   0.000%  ------ ||
|| basis_extract_function_from_box      :  3383        0.15s   0.000%  ------ ||
|| parallel_prepare_fd_halos_alloc      :  1821        0.57s   0.002%  ------ ||
|| parallel_prepare_fd_halos_satisfy    :  1821        0.61s   0.002%  ------ ||
|| pseudopotentials_nonlocal_mat        :    28        2.23s   0.007%  ------ ||
|| openbc_locps_radial                  :     1        3.79s   0.011%  ------ ||
|| restart_ngwfs_tightbox_input         :     1        6.95s   0.021%  ------ ||
|| density_init_guess_real              :     1        7.91s   0.024%  ------ ||
|| restart_kernel_read                  :     1        8.79s   0.027%  ------ ||
|| parallel_prepare_fd_halos_comms_imbal:  1821       10.26s   0.031%  ------ ||
|| parallel_prepare_fd_halos_clear      :  1821       18.07s   0.055%  ------ ||
|| sparse_init                          :     2       22.62s   0.068%  ------ ||
|| parallel_prepare_fd_halos_comms_wait :  1821       22.84s   0.069%  ------ ||
|| projectors_func_ovlp_box             :    28       24.34s   0.074%  ------ ||
|| palser_mano_kernel_optimise          :     1       26.49s   0.080%  ------ ||
|| function_ops_brappd_ketppd           :    28       27.56s   0.083%  ------ ||
|| projectors_init_fftbox_recip         :   133       30.64s   0.093%  ------ ||
|| basis_copy_function_to_box           : 54784       39.24s   0.118%  ------ ||
|| ngwf_gradient_coeffs                 :    15       45.88s   0.139%  ------ ||
|| fourier_apply_box_pair               :  4814       49.61s   0.150% 561.810 ||
|| parallel_prepare_fd_halos            :  1821       52.40s   0.158%  ------ ||
|| pseudo_make_structure_factor         :     2       57.99s   0.175%  ------ ||
|| sparse_embed_hotelling_invert_embed  :    28       71.03s   0.214%  ------ ||
|| restart_kernel_write                 :    16      107.44s   0.324%  ------ ||
|| finite_difference_derivative         :  1821      115.66s   0.349%  ------ ||
|| integrals_kinetic                    :    28      136.69s   0.413%  ------ ||
|| projectors_gradient_batch            :   105      159.66s   0.482%  ------ ||
|| basis_dot_function_with_box          : 8.412M     169.39s   0.511%  ------ ||
|| sparse_trace                         :  4895      189.67s   0.573%  ------ ||
|| kernel_purify                        :   463      273.44s   0.826%  ------ ||
|| openbc_locps_on_grid                 :     2      288.56s   0.871%  ------ ||
|| lnv_gradient_norm                    :   150      394.95s   1.193%  ------ ||
|| basis_add_function_to_box            : 17.45M     398.24s   1.203%  ------ ||
|| kernel_fix                           :   150      470.47s   1.421%  ------ ||
|| hamiltonian_energy_components        :     4      546.18s   1.649%  ------ ||
|| integrals_locpot_mat_els_batch       :  1113      696.25s   2.102%  ------ ||
|| ngwf_gradient_build_batch            :   105      700.42s   2.115%  ------ ||
|| restart_ngwfs_tightbox_output        :    13      865.26s   2.613%  ------ ||
|| ngwf_gradient_batch                  :   105      976.28s   2.948%  ------ ||
|| density_batch_row_sums               :  2114     1042.62s   3.148%  ------ ||
|| ngwf_gradient_lnv                    :    15     1095.58s   3.308%  ------ ||
|| cell_grid_deposit_box_real           : 35085     1275.86s   3.853%  ------ ||
|| fourier_apply_cell_forward           :  8485     1447.89s   4.372%  85.866 ||
|| fourier_apply_cell_backward          :  9093     1612.25s   4.868%  82.639 ||
|| cell_grid_extract_box_real           : 39441     1634.83s   4.936%  ------ ||
|| sparse_product                       :  6172     1669.43s   5.041%  ------ ||
|| density_fftbox_deposit_to_cell       : 33220     1961.78s   5.924%  ------ ||
|| density_fftbox_interpolate_multiply  : 33220     3389.98s  10.236%  ------ ||
|| potential_apply_to_ngwf_batch        :  1113     3518.31s  10.624%  ------ ||
|| xc_energy_potential                  :   303     3996.53s  12.068%  ------ ||
|| fourier_apply_box                    : 114.5k    4194.68s  12.666% 766.545 ||
|| integrals_locpot_dbl_grid            :   159     4232.91s  12.781%  ------ ||
|| multigrid_prepare_bound_cond         :   303     4521.51s  13.653%  ------ ||
|| density_batch_interp_deposit         :  2114     6217.51s  18.774%  ------ ||
|| nlxc_vdw_energy                      :   606     6491.16s  19.600%  ------ ||
|| dl_mg_solver_calls                   :   303     7257.59s  21.915%  ------ ||
|| density_on_dbl_grid                  :   302     7544.20s  22.780%  ------ ||
|| multigrid_calculate_hartree          :   303    11945.07s  36.069%  ------ ||
|| hamiltonian_lhxc_calculate           :   298    23353.88s  70.518%  ------ ||
|| lnv_denskernel_optimise_cg           :    15    28227.88s  85.235%  ------ ||
|| ngwf_cg_optimise                     :     2    32123.02s  96.997%  ------ ||
|| total_time                           :     1    33117.58s 100.000%  ------ ||
================================================================================
Overhead of generating timer report: 
- 0 ms averaging over threads,
- 15 ms ensuring consistency across MPI ranks,
- 0 ms printing in order.

Job completed: 09-01-2020 06:16 (-0000)

Application 38574272 resources: utime ~6640768s, stime ~232544s, Rss ~3832896, inblocks ~315948511, outblocks ~62259872
