 +---------------------------------------------------------------+
 |                                                               |
 |        ####### #     # ####### ####### ####### ######         |
 |        #     # ##    # #          #    #       #     #        |
 |        #     # # #   # #          #    #       #     #        |
 |        #     # #  #  # #####      #    #####   ######         |
 |        #     # #   # # #          #    #       #              |
 |        #     # #    ## #          #    #       #              |
 |        ####### #     # #######    #    ####### #              |
 |                                                               |
 |        Linear-Scaling Ab Initio Total Energy Program          |
 |                                                               |
 |          Release for academic collaborators of ODG            |
 |                                             Version 5.3.2.6.  |
 |                                                               |
 +---------------------------------------------------------------+
 |                                                               |
 |  Authors:                                                     |
 |  Jacek Dziedzic, Peter D. Haynes, Nicholas D. M. Hine,        |
 |  Arash. A. Mostofi, Mike C. Payne and Chris-Kriton Skylaris   |
 |                                                               |
 |  Contributors:                                                |
 |  J. Aarons, L. Andrinopoulos, P. W. Avraam, R. A. Bell,       |
 |  A. Bhandari, G. A. Bramley, R. J. Charlton, S. J. Clark,     |
 |  R. J. Clements, G. C. Constantinescu, F. Corsetti,           |
 |  N. Corsini, O. Dieguez, S. M. M. Dubois, K. K. B. Duff,      |
 |  J. M. Escartin, A. Greco, H. Helal, Q. O. Hill, L. P. Lee,   |
 |  J.-H. Li, E. B. Linscott, G. Moynihan, D. D. O`Regan,        |
 |  O. K. Okan, M. J. S. Phipps, C. J. Pickard,                  |
 |  J. C. A. Prentice, M. I. J. Probert, L. E. Ratcliff,         |
 |  M. Robinson, A. Ruiz Serrano, J. S. Spencer, E. W. Tait,     |
 |  G. Teobaldi, D. Turban, V. Vitale, K. A. Wilkinson,          |
 |  C. Weber, J. C. Womack, N. Yeung and T. J. Zuehlsdorff       |
 |                                                               |
 |                                   Copyright (c) 2004-2019     |
 |                                                               |
 |  Please cite:                                                 |
 |  "Introducing ONETEP: Linear-scaling density functional       |
 |   simulations on parallel computers".                         |
 |   C.-K. Skylaris, P. D. Haynes, A. A. Mostofi, M. C. Payne.   |
 |   J. Chem. Phys. 122 084119 (2005).                           |
 |                                                               |
 |          in all publications arising from your use of ONETEP. |
 |                                                               |
 +---------------------------------------------------------------+
 |                                                               |
 |   ONETEP is based on developments described in the following  |
 |   publications:                                               |
 |                                                               |
 |  "Nonorthogonal generalized Wannier function pseudopotential  |
 |   plane-wave method".                                         |
 |   C.-K. Skylaris, A. A. Mostofi, P. D. Haynes, O. Dieguez,    |
 |   M. C. Payne.                                                |
 |   Phys. Rev. B 66 035119 (2002).                              |
 |                                                               |
 |  "Preconditioned iterative minimization for linear-scaling    |
 |   electronic structure calculations".                         |
 |   A. A. Mostofi, P. D. Haynes, C.-K. Skylaris, M. C. Payne.   |
 |   J. Chem. Phys. 119(17), pp.8842-8848 (2003).                |
 |                                                               |
 |  "Total-energy calculations on a real space grid with         |
 |   localized functions and a plane-wave basis".                |
 |   A. A. Mostofi, C.-K. Skylaris, P. D. Haynes, M. C. Payne.   |
 |   Comput. Phys. Commun. 147, pp.788-802 (2002).               |
 |                                                               |
 |  "Accurate kinetic energy evaluation in electronic structure  |
 |   calculations with localized functions on real space grids"  |
 |   C.-K. Skylaris, A. A. Mostofi, P. D. Haynes, C. J. Pickard, |
 |   M. C. Payne.                                                |
 |   Comput. Phys. Commun. 140, pp.315-322 (2001).               |
 |                                                               |
 |  "Accurate ionic forces and geometry optimization in linear-  |
 |   scaling density-functional theory with local orbitals"      |
 |   N. D. M. Hine, M. Robinson, P. D. Haynes, C.-K. Skylaris,   |
 |   M. C. Payne, and A. A. Mostofi.                             |
 |   Phys. Rev. B 83 195102 (2011).                              |
 |                                                               |
 +---------------------------------------------------------------+

Job started: 19-01-2020 09:02 (-0000)
 
Reading parameters from file "complex_28601.dat" ...... done

If your calculation crashes here, before "Checking processes and threads..."
is displayed, then your stack size is insufficient.
If so, use "ulimit -s unlimited" at runtime.
You can disable this check with "check_stack_size F".

Checking processes and threads...
   Determining the default number of threads...
      No default threads set at compilation time: defaulting to 1.
      OpenMP library call suggests 4 threads.
      Hybrid MPI-OpenMP compilation detected.
      Number of MPI processes > 1.
      OMP_NUM_THREADS environment variable present and
      its value matches the one obtained from the OpenMP library call.
      Using this value as default.
      Default threads: 4
      Default applies to threads_max and threads_num_fftboxes.
      Settings in the input file override this default.
   ... done

   Running with 60 MPI processes.
   There are 6 MPI processes running on the same node as the root process.
   Each MPI process is using: 
               1 threads for simulation cell FFTs.
               1 threads for parallel FFT box operations.
               4 threads for loops over batched FFT box operations.
               4 threads in other parallel regions.
... done

Basic input checks...... done

Reading geometry and species blocks from file "complex_28601.dat" ...
  <species_atomic_set> block not found: NGWF initialisation set to SOLVE
IS: Dielectric excluded regions:
    - NONE.
    
  Number of PPD points along a3 set to 1.  This is 
  the default value, it may have been provided also in the input file.
... done
 Writing xyz coordinates to file "complex_28601.xyz" ... done


--------------------------------------------------------------------------------
---------------------------------- INPUT FILE ----------------------------------
--------------------------------------------------------------------------------

cutoff_energy       : 800 eV                                                    
xc_functional VV10                                                              
task SINGLEPOINT                                                                
write_xyz true                                                                  
output_detail VERBOSE                                                           
ngwf_threshold_orig : 0.000002                                                  
kernel_cutoff       : 1000                                                      
k_zero              : 3.5                                                       
elec_cg_max 0                                                                   
occ_mix 1.0                                                                     
dispersion 0                                                                    
maxit_ngwf_cg 40                                                                
minit_lnv 10                                                                    
maxit_lnv 10                                                                    
write_denskern T                                                                
write_tightbox_ngwfs T                                                          
charge 9                                                                        
is_implicit_solvent T                                                           
is_auto_solvation T                                                             
is_include_apolar T                                                             
is_smeared_ion_rep T                                                            
is_solvent_surf_tension 4.7624E-5 Ha/bohr**2                                    
is_apolar_scaling_factor 0.281075                                               
is_solvation_beta 1.3                                                           
is_density_threshold 0.00035                                                    
is_bulk_permittivity 78.54                                                      
is_dielectric_model fix_initial                                                 
is_smeared_ion_width 0.8                                                        
mg_defco_fd_order 8                                                             
is_bc_coarseness 10                                                             
is_bc_surface_coarseness 1                                                      
fine_grid_scale 2.0                                                             
%block species                                                                  
N   N   7 4 8.0                                                                 
H   H   1 1 8.0                                                                 
C   C   6 4 8.0                                                                 
S   S  16 9 8.0                                                                 
O   O   8 4 8.0                                                                 
F   F   9 9 8.0                                                                 
%endblock species                                                               
%block species_pot                                                              
N   N_00.recpot                                                                 
H   H_04.recpot                                                                 
C   C_01.recpot                                                                 
S   S_00.recpot                                                                 
O   O_02.recpot                                                                 
F   F_00.recpot                                                                 
%endblock species_pot                                                           
%block lattice_cart                                                             
139.898   0.000   0.000                                                         
0.000 144.87   0.000                                                            
0.000   0.000   168.12                                                          
%endblock lattice_cart                                                          
%block positions_abs                                                            
     Hash =  -000002486229394477997285
%endblock positions_abs                                                         

--------------------------------------------------------------------------------
-------------------------------- END INPUT FILE --------------------------------
--------------------------------------------------------------------------------


 
 ESDF WARNING(1): "kernelcutoff" (esdf_physical) has no units. Assume "bohr".
 ESDF WARNING(2): "kzero" (esdf_physical) has no units. Assume "1/bohr".
 ESDF WARNING(3
 ): "issmearedionwidth" (esdf_physical) has no units. Assume "bohr".
<<<<<<<<<<<<<<<<<<<<<<<<<<<<<<<<< Full system >>>>>>>>>>>>>>>>>>>>>>>>>>>>>>>>>>
<<<<<<<<<<<<<<<<<<<<<<<<< Pseudopotential information >>>>>>>>>>>>>>>>>>>>>>>>>>
File: N_00.recpot [ 2001 points up to Gmax=  52.9 (1/bohr)]
  Atomic number:  7;  ionic charge:  5.000000
    Shell 1: l = 0; rc = 1.48 bohr
File: H_04.recpot [ 2001 points up to Gmax=  52.9 (1/bohr)]
  Atomic number:  1;  ionic charge:  1.000000
    Local potential
File: C_01.recpot [ 2001 points up to Gmax=  52.9 (1/bohr)]
  Atomic number:  6;  ionic charge:  4.000000
    Shell 1: l = 0; rc = 1.48 bohr
File: S_00.recpot [ 2001 points up to Gmax=  52.9 (1/bohr)]
  Atomic number: 16;  ionic charge:  6.000000
    Shell 1: l = 0; rc = 1.90 bohr
    Shell 2: l = 2; rc = 1.84 bohr
File: O_02.recpot [ 2001 points up to Gmax=  52.9 (1/bohr)]
  Atomic number:  8;  ionic charge:  6.000000
    Shell 1: l = 0; rc = 1.31 bohr
File: F_00.recpot [ 2001 points up to Gmax=  52.9 (1/bohr)]
  Atomic number:  9;  ionic charge:  7.000000
    Shell 1: l = 0; rc = 1.60 bohr
<<<<<<<<<<<<<<<<<<<<<<<<<<<<<<<<<<<<<<<<>>>>>>>>>>>>>>>>>>>>>>>>>>>>>>>>>>>>>>>>

-------------------------- Atom counting information ---------------------------
Symbol    Natoms    Nngwfs    Nprojs
  N        237       948       237
  H       1317      1317         0
  C        816      3264       816
  S          6        54        36
  O        239       956       239
  F          1         9         1
.......   ......    ......    ......
Totals:   2616      6548      1329
--------------------------------------------------------------------------------

=============================== PSINC grid sizes ===============================
                      Simulation cell:  275 x 286 x 336
                              FFT-box:   99 x  99 x  99
                                  PPD:    5 x  11 x   1
Grid space d1=  0.508720000000a0 (KE cutoff=  29.35259Eh = 798.72452eV)
Grid space d2=  0.506538461538a0 (KE cutoff=  29.60596Eh = 805.61916eV)
Grid space d3=  0.500357142857a0 (KE cutoff=  30.34197Eh = 825.64705eV)
================================================================================

********************* Fourier parallelisation information **********************
       Coarse grid (whole simulation cell) dimensions:    275   286   336
          Real-space ('12') slabs/node (min max mean):      5     6     5
         Recip-space ('23') slabs/node (min max mean):      2     3     2
********************************************************************************

********************* Fourier parallelisation information **********************
       Double grid (whole simulation cell) dimensions:    550   572   672
          Real-space ('12') slabs/node (min max mean):     11    12    11
         Recip-space ('23') slabs/node (min max mean):      4     5     4
********************************************************************************
ONETEP fine grid is 550 x 572 x 672 gridpoints, 139.8980 x 144.8700 x 168.1200 bohr.
FD multigrid is     545 x 569 x 665 gridpoints, 138.6262 x 144.1102 x 166.3688 bohr.


Calculating local pseudopotential in open BC on a radial grid ...
Discrepancy between calculated realspace psloc and -Z/x on [5a0,262.342a0]:
max |rel. diff| # avg |rel. diff| #  avg rel. diff #  f # pseudopotential file
 0.000258413739    0.000003708905   0.000000070960   56  'N_00.recpot'
 0.000398954828    0.000016185045  -0.000000074508   56  'H_04.recpot'
 0.000375346405    0.000017198923   0.000000144535   56  'C_01.recpot'
 0.000466850533    0.000020125278   0.000000461745   56  'S_00.recpot'
 0.000671508953    0.000026045986   0.000000155458   56  'O_02.recpot'
 0.002873965647    0.000134299806   0.000000884984   56  'F_00.recpot'
... done

Atom SCF Calculation for N  : Z (AE atom) =   7 : Z (PS atom) =   5
Config String:
Orbitals (num,occ):  2     2.00 3.00
Orbitals   (num,l):  2        0    1
Real-space Grid (nr,dr,rmax): 1203    0.0066555740    8.0000000000
Spherical Bessel Basis (nsws,lmax,cutoff):   47    1  176.3951722778
Confining potential (l,width,scale):  0    3.0000000000  100.0000000000
Confining potential (l,width,scale):  1    3.0000000000  100.0000000000
  1         -4.7366890484   -3.4501654188    7.0523828109   -1.9619316308
  2         -9.7225420322   -2.0763080851    8.3068355706   -2.2908832437
  3         -9.7134243553   -2.1270543915    8.2534567806   -2.2819809971
  4         -9.7235185949   -2.1427582218    8.2369947390   -2.2802814234
  5         -9.7258373845   -2.1477905863    8.2317116314   -2.2798536235
  6         -9.7268932325   -2.1503512400    8.2290229806   -2.2796830099
  7         -9.7273189469   -2.1516634231    8.2276451699   -2.2796169657
  8         -9.7274675212   -2.1523365544    8.2269384796   -2.2795940092
  9         -9.7275041773   -2.1526817003    8.2265762312   -2.2795881371
 10         -9.7275008637   -2.1528585007    8.2263907413   -2.2795884060
 11         -9.7274868305   -2.1529489544    8.2262958841   -2.2795903922
 12         -9.7274755655   -2.1529859230    8.2262571347   -2.2795920452
 13         -9.7274662327   -2.1530083995    8.2262335832   -2.2795934369
 14         -9.7274589439   -2.1530220534    8.2262192809   -2.2795945372
 15         -9.7274534633   -2.1530303399    8.2262106039   -2.2795953734
 16         -9.7274494492   -2.1530353634    8.2262053452   -2.2795959920
 17         -9.7274465654   -2.1530384053    8.2262021621   -2.2795964406
 18         -9.7274445237   -2.1530402447    8.2262002378   -2.2795967611
 19         -9.7274430947   -2.1530413553    8.2261990762   -2.2795969874
 20         -9.7274421038   -2.1530420249    8.2261983762   -2.2795971458
 21         -9.7274414219   -2.1530424277    8.2261979551   -2.2795972557
 22         -9.7274409555   -2.1530426696    8.2261977024   -2.2795973315
 23         -9.7274406382   -2.1530428144    8.2261975510   -2.2795973835
 24         -9.7274404232   -2.1530429010    8.2261974606   -2.2795974190
 25         -9.7274402783   -2.1530429525    8.2261974067   -2.2795974432
 26         -9.7274401808   -2.1530429831    8.2261973748   -2.2795974596
Atom SCF converged after  26 iterations to a total energy of     -9.72744018

Atom SCF Calculation for H  : Z (AE atom) =   1 : Z (PS atom) =   1
Config String:
Orbitals (num,occ):  1     1.00
Orbitals   (num,l):  1        0
Real-space Grid (nr,dr,rmax): 1203    0.0066555740    8.0000000000
Spherical Bessel Basis (nsws,lmax,cutoff):   47    0  176.3951722778
Confining potential (l,width,scale):  0    3.0000000000  100.0000000000
  1         -0.3178661827   -0.2469879004    0.2820953124   -0.2487802071
  2         -0.3961824611   -0.2455070831    0.2902209900   -0.2567664324
  3         -0.4406462424   -0.2424227551    0.2948173255   -0.2622129794
  4         -0.4569739054   -0.2416771342    0.2960118236   -0.2639986016
  5         -0.4627745219   -0.2416114401    0.2961916694   -0.2644992007
  6         -0.4648634749   -0.2416666130    0.2961598921   -0.2646237065
  7         -0.4656347011   -0.2417155160    0.2961132802   -0.2646490719
  8         -0.4659271144   -0.2417438448    0.2960836537   -0.2646515522
  9         -0.4660407254   -0.2417580788    0.2960682004   -0.2646501482
 10         -0.4660857867   -0.2417647566    0.2960608087   -0.2646488305
 11         -0.4661039568   -0.2417677717    0.2960574330   -0.2646480606
 12         -0.4661113773   -0.2417691018    0.2960559329   -0.2646476727
 13         -0.4661144368   -0.2417696800    0.2960552775   -0.2646474903
 14         -0.4661157072   -0.2417699291    0.2960549942   -0.2646474079
 15         -0.4661162374   -0.2417700356    0.2960548727   -0.2646473715
 16         -0.4661164596   -0.2417700810    0.2960548208   -0.2646473556
 17         -0.4661165529   -0.2417701003    0.2960547987   -0.2646473488
Atom SCF converged after  17 iterations to a total energy of     -0.46611655

Atom SCF Calculation for C  : Z (AE atom) =   6 : Z (PS atom) =   4
Config String:
Orbitals (num,occ):  2     2.00 2.00
Orbitals   (num,l):  2        0    1
Real-space Grid (nr,dr,rmax): 1203    0.0066555740    8.0000000000
Spherical Bessel Basis (nsws,lmax,cutoff):   47    1  176.3951722778
Confining potential (l,width,scale):  0    3.0000000000  100.0000000000
Confining potential (l,width,scale):  1    3.0000000000  100.0000000000
  1         -5.2812238291   -1.3293161250    4.5135249990   -1.4716766231
  2         -5.3996591362   -1.3542148509    4.4876064308   -1.4645117417
  3         -5.4111847148   -1.3757224423    4.4645718036   -1.4593107263
  4         -5.4199203659   -1.3833334895    4.4563636676   -1.4579885221
  5         -5.4226876204   -1.3865104950    4.4529090432   -1.4575385943
  6         -5.4235070726   -1.3878131251    4.4514866831   -1.4573882877
  7         -5.4237271252   -1.3883401868    4.4509094528   -1.4573411661
  8         -5.4237693051   -1.3885521813    4.4506766230   -1.4573281030
  9         -5.4237656430   -1.3886371046    4.4505830704   -1.4573255254
 10         -5.4237547927   -1.3886709976    4.4505456041   -1.4573257244
 11         -5.4237478594   -1.3886817763    4.4505336403   -1.4573262476
 12         -5.4237429748   -1.3886873440    4.4505274417   -1.4573266921
 13         -5.4237397042   -1.3886902144    4.4505242350   -1.4573270222
 14         -5.4237375865   -1.3886916908    4.4505225792   -1.4573272507
 15         -5.4237362473   -1.3886924482    4.4505217259   -1.4573274021
 16         -5.4237354152   -1.3886928356    4.4505212873   -1.4573274996
 17         -5.4237349050   -1.3886930331    4.4505210623   -1.4573275610
 18         -5.4237345954   -1.3886931333    4.4505209473   -1.4573275991
 19         -5.4237344092   -1.3886931840    4.4505208887   -1.4573276224
 20         -5.4237342980   -1.3886932094    4.4505208590   -1.4573276366
 21         -5.4237342320   -1.3886932221    4.4505208440   -1.4573276451
Atom SCF converged after  21 iterations to a total energy of     -5.42373423

Atom SCF Calculation for S  : Z (AE atom) =  16 : Z (PS atom) =   6
Config String:
Orbitals (num,occ):  3     2.00 4.00 0.00
Orbitals   (num,l):  3        0    1    2
Real-space Grid (nr,dr,rmax): 1203    0.0066555740    8.0000000000
Spherical Bessel Basis (nsws,lmax,cutoff):   47    2  176.3951722778
Confining potential (l,width,scale):  0    3.0000000000  100.0000000000
Confining potential (l,width,scale):  1    3.0000000000  100.0000000000
Confining potential (l,width,scale):  2    3.0000000000  100.0000000000
  1        -12.4916237786   -1.0485914554   10.1554312477   -2.4822447765
  2         -9.9747083603   -2.4807597367    8.3138131863   -2.0618837268
  3        -10.1811370131   -2.3153496392    8.4906092179   -2.1137756843
  4        -10.1856385898   -2.2984912006    8.5093862195   -2.1218167101
  5        -10.1891317560   -2.2894783333    8.5195006030   -2.1261392389
  6        -10.1911142562   -2.2849160124    8.5246320974   -2.1283733378
  7        -10.1921506977   -2.2826473329    8.5271859473   -2.1295140514
  8        -10.1926851273   -2.2815219985    8.5284534218   -2.1300957983
  9        -10.1929632671   -2.2809620806    8.5290843811   -2.1303933136
 10        -10.1931100895   -2.2806822783    8.5293998452   -2.1305460626
 11        -10.1931885828   -2.2805418782    8.5295582201   -2.1306248009
 12        -10.1932309625   -2.2804711729    8.5296380158   -2.1306655459
 13        -10.1932540142   -2.2804354512    8.5296783476   -2.1306867097
 14        -10.1932666242   -2.2804173494    8.5296987927   -2.1306977435
 15        -10.1932735535   -2.2804081489    8.5297091868   -2.1307035175
 16        -10.1932773756   -2.2804034581    8.5297144867   -2.1307065505
 17        -10.1932794908   -2.2804010586    8.5297171976   -2.1307081499
 18        -10.1932806648   -2.2803998268    8.5297185890   -2.1307089965
 19        -10.1932813181   -2.2803991920    8.5297193057   -2.1307094466
 20        -10.1932816826   -2.2803988634    8.5297196763   -2.1307096867
 21        -10.1932818864   -2.2803986926    8.5297198688   -2.1307098154
 22        -10.1932820006   -2.2803986034    8.5297199692   -2.1307098847
 23        -10.1932820648   -2.2803985565    8.5297200219   -2.1307099221
Atom SCF converged after  23 iterations to a total energy of    -10.19328206

Atom SCF Calculation for O  : Z (AE atom) =   8 : Z (PS atom) =   6
Config String:
Orbitals (num,occ):  2     2.00 4.00
Orbitals   (num,l):  2        0    1
Real-space Grid (nr,dr,rmax): 1203    0.0066555740    8.0000000000
Spherical Bessel Basis (nsws,lmax,cutoff):   47    1  176.3951722778
Confining potential (l,width,scale):  0    3.0000000000  100.0000000000
Confining potential (l,width,scale):  1    3.0000000000  100.0000000000
  1         -1.9497477053   -7.5870966769   10.1554312477   -2.4822447765
  2        -15.9466298225   -3.1778351734   13.6353006614   -3.2931224232
  3        -16.0387051750   -3.0909030611   13.7305651010   -3.3194522996
  4        -15.9025031450   -3.1083023605   13.7128101414   -3.3180850501
  5        -15.8912953362   -3.1033022259   13.7185404266   -3.3206942093
  6        -15.8793912992   -3.1043100674   13.7175820250   -3.3209366960
  7        -15.8748748605   -3.1043975610   13.7175531476   -3.3211845618
  8        -15.8725354084   -3.1044655610   13.7175148333   -3.3213149154
  9        -15.8713193866   -3.1045129589   13.7174824743   -3.3213832909
 10        -15.8706863385   -3.1045436851   13.7174593895   -3.3214192053
 11        -15.8703562731   -3.1045627330   13.7174442347   -3.3214381098
 12        -15.8701839150   -3.1045741887   13.7174347673   -3.3214480859
 13        -15.8700937727   -3.1045809294   13.7174290448   -3.3214533647
 14        -15.8700465571   -3.1045848305   13.7174256662   -3.3214561658
 15        -15.8700217888   -3.1045870593   13.7174237063   -3.3214576563
 16        -15.8700087767   -3.1045883194   13.7174225849   -3.3214584516
 17        -15.8700019307   -3.1045890258   13.7174219502   -3.3214588771
 18        -15.8699983237   -3.1045894190   13.7174215942   -3.3214591053
 19        -15.8699964206   -3.1045896366   13.7174213960   -3.3214592281
 20        -15.8699954151   -3.1045897563   13.7174212864   -3.3214592942
 21        -15.8699948832   -3.1045898219   13.7174212260   -3.3214593299
 22        -15.8699946014   -3.1045898577   13.7174211930   -3.3214593493
 23        -15.8699944520   -3.1045898771   13.7174211750   -3.3214593597
 24        -15.8699943726   -3.1045898877   13.7174211652   -3.3214593654
Atom SCF converged after  24 iterations to a total energy of    -15.86999437

Atom SCF Calculation for F  : Z (AE atom) =   9 : Z (PS atom) =   7
Config String:
Orbitals (num,occ):  5     2.00 5.00 0.00 0.00 0.00
Orbitals   (num,l):  5        0    1    0    1    2
Real-space Grid (nr,dr,rmax): 1203    0.0066555740    8.0000000000
Spherical Bessel Basis (nsws,lmax,cutoff):   47    2  176.3951722778
Confining potential (l,width,scale):  0    3.0000000000  100.0000000000
Confining potential (l,width,scale):  1    3.0000000000  100.0000000000
Confining potential (l,width,scale):  2    3.0000000000  100.0000000000
  1          2.6332518550  -14.5972660140   13.8226703094   -3.0291069145
  2        -23.5308059922   -5.0079932916   20.5389571514   -4.4513452175
  3        -24.6149887348   -4.4197114244   21.1484318815   -4.5691063800
  4        -24.4297149669   -4.3540993379   21.2171803314   -4.5817422990
  5        -24.3380738191   -4.3229830295   21.2502612251   -4.5884480400
  6        -24.3018089952   -4.3112404429   21.2628394889   -4.5911526186
  7        -24.2802545331   -4.3044544202   21.2701367409   -4.5927765476
  8        -24.2674352063   -4.3005403236   21.2743586797   -4.5937444592
  9        -24.2598104277   -4.2982856164   21.2767973152   -4.5943192207
 10        -24.2552747814   -4.2969885008   21.2782038957   -4.5946598772
 11        -24.2525760151   -4.2962434174   21.2790140058   -4.5948616023
 12        -24.2509695736   -4.2958161917   21.2794798304   -4.5949810223
 13        -24.2500128561   -4.2955717258   21.2797472047   -4.5950517245
 14        -24.2494427499   -4.2954321649   21.2799003644   -4.5950935980
 15        -24.2491028062   -4.2953527030   21.2799879022   -4.5951184111
 16        -24.2488999639   -4.2953075953   21.2800378086   -4.5951331247
 17        -24.2487788405   -4.2952820762   21.2800661810   -4.5951418567
 18        -24.2487064582   -4.2952676951   21.2800822598   -4.5951470437
 19        -24.2486631683   -4.2952596266   21.2800913392   -4.5951501282
 20        -24.2486372560   -4.2952551231   21.2800964452   -4.5951519645
 21        -24.2486217320   -4.2952526245   21.2800993032   -4.5951530592
 22        -24.2486124232   -4.2952512481   21.2801008943   -4.5951537126
 23        -24.2486068360   -4.2952504962   21.2801017744   -4.5951541033
 24        -24.2486034793   -4.2952500898   21.2801022575   -4.5951543373
 25        -24.2486014606   -4.2952498729   21.2801025203   -4.5951544776
 26        -24.2486002454   -4.2952497591   21.2801026617   -4.5951545620
 27        -24.2485995131   -4.2952497006   21.2801027367   -4.5951546128
 28        -24.2485990712   -4.2952496715   21.2801027758   -4.5951546435
 29        -24.2485988044   -4.2952496576   21.2801027957   -4.5951546620
 30        -24.2485986431   -4.2952496515   21.2801028054   -4.5951546733
 31        -24.2485985454   -4.2952496491   21.2801028100   -4.5951546801
Atom SCF converged after  31 iterations to a total energy of    -24.24859855
 
WARNING in ngwfs_initialise: Setting radial NGWF functions for species  6 (F):
Last NGWF on atom has m = -2 and does not complete set of m-values for l = 2.
This breaks symmetry and may cause unstable NGWF optimisation and poor 
convergence. Suggest increasing number of NGWFs per atom from   9 to  13.
NB: All NGWF radial function angular momenta:     0    1    0    1    2
 

========================== Calculation in vacuum ==============================
= Adjusting the following parameters: 
= is_implicit_solvent: F
= is_include_apolar: F
= write_denskern: T
= write_tightbox_ngwfs: T
= restart read filename prefix: ""
= restart write filename prefix: "vacuum_"
===============================================================================

Determining parallel strategy ...
... using space-filling curve
... NGWF load balancing: max    110;  min    109;  average    109
... Projector load balancing: max     26;  min     21;  average     22
... done
Calculating direct Ion-Ion energy ...
Ion-Ion Energy        :    830211.62027350999415
Basis initialisation ...... NGWF spheres initialised
... Projector spheres initialised
... NGWF tight boxes initialised
... Tight-boxes gathered
... NGWF basis size (local,global):    1035491  62427692
... Nonlocal pseudopotential projector initialisation
... done

========================== Sparse matrix information ===========================
                        Overlap matrix filling:   6.69%
                        Density kernel filling: 100.00%
              NGWF-Proj overlap matrix filling:   1.76%
                    Hamiltonian matrix filling:   7.54%
                  NGWF diagonal matrix filling:   0.05%
                             KS matrix filling: 100.00% 
                           KSKS matrix filling: 100.00% 
================================================================================

Sparse matrix initialisation ... done

Generating smeared ion density ... done
Smeared ion self correction:     -14544.936866
Smeared ion non-self correction: -830163.141038
NGWF initialisation ...... done
============ Calculation of NGWF S^-1 using Hotelling algorithm ================ 
         Iteration  |  Frobenius norm and Maximum abs value    (of I-S*S_n^-1)   
               1       0.78791259E+02     0.98308235E+00
               2       0.76968737E+02     0.96660818E+00
               3       0.74000112E+02     0.93487698E+00
               4       0.69752207E+02     0.87567507E+00
               5       0.64437893E+02     0.77265493E+00
               6       0.58453258E+02     0.70638587E+00
               7       0.52417855E+02     0.67244608E+00
               8       0.46834884E+02     0.64465657E+00
               9       0.40776767E+02     0.60791242E+00
              10       0.32558618E+02     0.54357519E+00
              11       0.22025568E+02     0.43767458E+00
              12       0.11393695E+02     0.28923846E+00
              13       0.38533712E+01     0.13748674E+00
              14       0.65553385E+00     0.37452945E-01
              15       0.41437314E-01     0.42406569E-02
              16       0.49721367E-03     0.82228128E-04
              17       0.15663028E-06     0.31814788E-07
              18       0.10342278E-12     0.81046281E-14
================================================================================
Calculating local pseudopotential in open BC on the fine real space grid ...
... done

MG BCs: +ve charge blocks (gridpoints):     20531 (   16083963).
MG BCs: -ve charge blocks (gridpoints):      8026 (    1081048).
MG BCs:     Elided blocks (gridpoints):    189514 (  189054814).
MG BCs: Computational effort saved:  99.9862%.
MG BCs: Charge after coarse-graining:           -9.0002321.
MG DL_MG: Calling solver with defect correction order = 8
MG DL_MG: Solver finished
MG Hartree energy from (\int phi*rho dr):              1461.276708
MG Hartree energy from (\int eps (grad phi)^2 dr):     1460.664297
MG Discrepancy due to finite box and discretization:     -0.612410 (  -0.04191%)
MG Correction to account for finite box:                  0.454111
MG Remaining discrepancy, due to discretization:         -0.158299 (  -0.01083%)
Up spin density kernel initialisation ... 
======= Optimisation of K by Palser-Manolopoulos canonical purification ======== 
         Iteration  |  Band structure energy |    c_n   
               1       -2557.78485860503633    0.5295336
               2       -2734.01323680990754    0.5191814
               3       -2918.04475254550835    0.5160003
               4       -3075.93008875074793    0.5276884
               5       -3176.92953020453024    0.5614087
               6       -3221.05550347373628    0.6073780
               7       -3236.14692604887659    0.6228916
               8       -3242.51783474418880    0.6217715
               9       -3245.62043764835471    0.6355258
              10       -3246.91947651805094    0.6566712
              11       -3247.43386749827141    0.6625577
              12       -3247.66730939989566    0.6479465
              13       -3247.78693890795330    0.6127134
              14       -3247.85049976378014    0.5640982
              15       -3247.88020621021860    0.5071503
              16       -3247.89012943259240    0.4596425
              17       -3247.89119204211238    0.4691704
              18       -3247.89140603300302    0.4935975
              19       -3247.89151298352226    0.4997626
              20       -3247.89162401222256    0.4999997
              21       -3247.89175423988308    0.5000000
              22       -3247.89187048680697    0.5000000
              23       -3247.89192866398480    0.5000000
              24       -3247.89193830198656    0.5000000
              25       -3247.89193851451455    0.5000000
Termination criterion satisfied: band energy change below threshold.
Final occupancy bounds: [    0.00000000001227:    0.99999999999980]
Closest occupancy to 0.5:     0.99999999999794
================================================================================
... done

Writing density kernel to file "complex_28601.vacuum_dkn" ... done

>>> Optimising kernel for current NGWFs:
   Initial electron number for spin 1:    7234.00000000
     Final electron number for spin 1:    7234.00000000

=================== Penalty functional idempotency correction ==================
 RMS occupancy error at iteration   1:  0.000000 (step -0.5000 Ne1=   7234.0000)
            Final RMS occupancy error   :  0.000000 (Ne1=   7234.0000)
               Final occupancy bounds   : [  0.0000,  1.0000]
================================================================================

................................................................................
<<<<<<<<<<<<<< LNV (Original version) density kernel optimisation >>>>>>>>>>>>>>
~~~~~~~~~~~~~~~~~~~~~~~~~~~~~~~~~~~~~~~~~~~~~~~~~~~~~~~~~~~~~~~~~~~~~~~~~~~~~~~~
   iter  |      energy (Eh)       | rms gradient |  commutator  |   dE (Eh)
MG BCs: +ve charge blocks (gridpoints):     31051 (   17270150).
MG BCs: -ve charge blocks (gridpoints):      8368 (    1109963).
MG BCs:     Elided blocks (gridpoints):    178985 (  187839712).
MG BCs: Computational effort saved:  99.9809%.
MG BCs: Charge after coarse-graining:           -9.0009792.
MG DL_MG: Calling solver with defect correction order = 8
MG DL_MG: Solver finished
MG Hartree energy from (\int phi*rho dr):              1425.124136
MG Hartree energy from (\int eps (grad phi)^2 dr):     1424.453137
MG Discrepancy due to finite box and discretization:     -0.670999 (  -0.04708%)
MG Correction to account for finite box:                  0.469099
MG Remaining discrepancy, due to discretization:         -0.201901 (  -0.01417%)
      ideal mu1:      -0.700241542971
             Q0:  -11594.671892555663
             G0:    -147.751180624212
   RMS gradient:       0.001856336950
MG BCs: +ve charge blocks (gridpoints):     31073 (   17346734).
MG BCs: -ve charge blocks (gridpoints):      8283 (    1093689).
MG BCs:     Elided blocks (gridpoints):    178964 (  187779402).
MG BCs: Computational effort saved:  99.9809%.
MG BCs: Charge after coarse-graining:           -9.0010018.
MG DL_MG: Calling solver with defect correction order = 8
MG DL_MG: Solver finished
MG Hartree energy from (\int phi*rho dr):              1444.693842
MG Hartree energy from (\int eps (grad phi)^2 dr):     1444.040382
MG Discrepancy due to finite box and discretization:     -0.653460 (  -0.04523%)
MG Correction to account for finite box:                  0.468335
MG Remaining discrepancy, due to discretization:         -0.185125 (  -0.01281%)
     Trial step:       0.500000000000
             Q1:  -11606.364448936074
 Quadratic coef:      62.183033931695
 Linear coef   :     -73.875590312106
           Qmin:  -11616.613580259245
Quadratic minimum step length (  0.297008627760) accepted
    Initial Ne1:    7234.00000000
      Final Ne1:    7234.00000000

=================== Penalty functional idempotency correction ==================
 RMS occupancy error at iteration   1:  0.003517 (step -0.4879 Ne1=   7234.0000)
 RMS occupancy error at iteration   2:  0.000029 (step -0.5001 Ne1=   7234.0000)
            Final RMS occupancy error   :  0.000000 (Ne1=   7234.0000)
               Final occupancy bounds   : [  0.0000,  1.0000]
================================================================================

    1        -1.159467189256E+04     1.8563E-03     1.6803E-03
MG BCs: +ve charge blocks (gridpoints):     31060 (   17316328).
MG BCs: -ve charge blocks (gridpoints):      8321 (    1101063).
MG BCs:     Elided blocks (gridpoints):    178977 (  187802434).
MG BCs: Computational effort saved:  99.9809%.
MG BCs: Charge after coarse-graining:           -9.0009928.
MG DL_MG: Calling solver with defect correction order = 8
MG DL_MG: Solver finished
MG Hartree energy from (\int phi*rho dr):              1428.627565
MG Hartree energy from (\int eps (grad phi)^2 dr):     1427.968036
MG Discrepancy due to finite box and discretization:     -0.659529 (  -0.04617%)
MG Correction to account for finite box:                  0.468515
MG Remaining discrepancy, due to discretization:         -0.191014 (  -0.01337%)
      ideal mu1:      -0.741296470664
             Q0:  -11617.054364229785
             G0:     -12.391875002773
   RMS gradient:       0.000533726654
MG BCs: +ve charge blocks (gridpoints):     31065 (   17332859).
MG BCs: -ve charge blocks (gridpoints):      8297 (    1096608).
MG BCs:     Elided blocks (gridpoints):    178971 (  187790358).
MG BCs: Computational effort saved:  99.9809%.
MG BCs: Charge after coarse-graining:           -9.0009969.
MG DL_MG: Calling solver with defect correction order = 8
MG DL_MG: Solver finished
MG Hartree energy from (\int phi*rho dr):              1432.967318
MG Hartree energy from (\int eps (grad phi)^2 dr):     1432.312075
MG Discrepancy due to finite box and discretization:     -0.655243 (  -0.04573%)
MG Correction to account for finite box:                  0.467563
MG Remaining discrepancy, due to discretization:         -0.187680 (  -0.01310%)
     Trial step:       0.385362574571
             Q1:  -11619.986338275368
 Quadratic coef:       1.843390809250
 Linear coef   :      -4.775364854834
           Qmin:  -11620.147049375868
Quadratic minimum step length (  0.499147246949) accepted
    Initial Ne1:    7233.99986573
      Final Ne1:    7234.00000000

=================== Penalty functional idempotency correction ==================
 RMS occupancy error at iteration   1:  0.001918 (step -0.4922 Ne1=   7234.0000)
 RMS occupancy error at iteration   2:  0.000016 (step -0.5006 Ne1=   7234.0000)
            Final RMS occupancy error   :  0.000000 (Ne1=   7234.0000)
               Final occupancy bounds   : [  0.0000,  1.0000]
================================================================================

    2        -1.161705436423E+04     5.3373E-04     4.8311E-04    -2.2382E+01
MG BCs: +ve charge blocks (gridpoints):     31071 (   17337934).
MG BCs: -ve charge blocks (gridpoints):      8293 (    1095218).
MG BCs:     Elided blocks (gridpoints):    178965 (  187786673).
MG BCs: Computational effort saved:  99.9809%.
MG BCs: Charge after coarse-graining:           -9.0009980.
MG DL_MG: Calling solver with defect correction order = 8
MG DL_MG: Solver finished
MG Hartree energy from (\int phi*rho dr):              1434.299594
MG Hartree energy from (\int eps (grad phi)^2 dr):     1433.645527
MG Discrepancy due to finite box and discretization:     -0.654067 (  -0.04560%)
MG Correction to account for finite box:                  0.467302
MG Remaining discrepancy, due to discretization:         -0.186765 (  -0.01302%)
      ideal mu1:      -0.765390990779
             Q0:  -11620.186907611787
             G0:      -2.009760153801
   RMS gradient:       0.000215109348
MG BCs: +ve charge blocks (gridpoints):     31070 (   17337561).
MG BCs: -ve charge blocks (gridpoints):      8302 (    1095997).
MG BCs:     Elided blocks (gridpoints):    178966 (  187786267).
MG BCs: Computational effort saved:  99.9809%.
MG BCs: Charge after coarse-graining:           -9.0009978.
MG DL_MG: Calling solver with defect correction order = 8
MG DL_MG: Solver finished
MG Hartree energy from (\int phi*rho dr):              1432.570730
MG Hartree energy from (\int eps (grad phi)^2 dr):     1431.917175
MG Discrepancy due to finite box and discretization:     -0.653555 (  -0.04562%)
MG Correction to account for finite box:                  0.466914
MG Remaining discrepancy, due to discretization:         -0.186641 (  -0.01303%)
     Trial step:       0.438580287033
             Q1:  -11620.705829791259
 Quadratic coef:       0.362519005650
 Linear coef   :      -0.881441185122
           Qmin:  -11620.722699219070
Quadratic minimum step length (  0.533189601026) accepted
    Initial Ne1:    7233.99977053
      Final Ne1:    7234.00000000

=================== Penalty functional idempotency correction ==================
 RMS occupancy error at iteration   1:  0.000692 (step -0.4965 Ne1=   7234.0000)
 RMS occupancy error at iteration   2:  0.000004 (step -0.5000 Ne1=   7234.0000)
            Final RMS occupancy error   :  0.000000 (Ne1=   7234.0000)
               Final occupancy bounds   : [  0.0000,  1.0000]
================================================================================

    3        -1.162018690761E+04     2.1511E-04     1.9471E-04    -3.1325E+00
MG BCs: +ve charge blocks (gridpoints):     31070 (   17337522).
MG BCs: -ve charge blocks (gridpoints):      8302 (    1096186).
MG BCs:     Elided blocks (gridpoints):    178966 (  187786117).
MG BCs: Computational effort saved:  99.9809%.
MG BCs: Charge after coarse-graining:           -9.0009977.
MG DL_MG: Calling solver with defect correction order = 8
MG DL_MG: Solver finished
MG Hartree energy from (\int phi*rho dr):              1432.206317
MG Hartree energy from (\int eps (grad phi)^2 dr):     1431.552859
MG Discrepancy due to finite box and discretization:     -0.653458 (  -0.04563%)
MG Correction to account for finite box:                  0.466832
MG Remaining discrepancy, due to discretization:         -0.186626 (  -0.01303%)
      ideal mu1:      -0.767055528559
             Q0:  -11620.728204536019
             G0:      -0.565646982787
   RMS gradient:       0.000114201058
MG BCs: +ve charge blocks (gridpoints):     31071 (   17338383).
MG BCs: -ve charge blocks (gridpoints):      8301 (    1096023).
MG BCs:     Elided blocks (gridpoints):    178965 (  187785419).
MG BCs: Computational effort saved:  99.9809%.
MG BCs: Charge after coarse-graining:           -9.0009980.
MG DL_MG: Calling solver with defect correction order = 8
MG DL_MG: Solver finished
MG Hartree energy from (\int phi*rho dr):              1433.331502
MG Hartree energy from (\int eps (grad phi)^2 dr):     1432.678097
MG Discrepancy due to finite box and discretization:     -0.653405 (  -0.04559%)
MG Correction to account for finite box:                  0.466688
MG Remaining discrepancy, due to discretization:         -0.186716 (  -0.01303%)
     Trial step:       0.483576724276
             Q1:  -11620.869296317338
 Quadratic coef:       0.132441933714
 Linear coef   :      -0.273533715033
           Qmin:  -11620.869437548785
Quadratic minimum step length (  0.499368040714) accepted
    Initial Ne1:    7233.99993938
      Final Ne1:    7234.00000000

=================== Penalty functional idempotency correction ==================
 RMS occupancy error at iteration   1:  0.000342 (step -0.4946 Ne1=   7234.0000)
 RMS occupancy error at iteration   2:  0.000004 (step -0.5000 Ne1=   7234.0000)
            Final RMS occupancy error   :  0.000000 (Ne1=   7234.0000)
               Final occupancy bounds   : [  0.0000,  1.0000]
================================================================================

    4        -1.162072820454E+04     1.1420E-04     1.0337E-04    -5.4130E-01
MG BCs: +ve charge blocks (gridpoints):     31071 (   17338410).
MG BCs: -ve charge blocks (gridpoints):      8300 (    1096011).
MG BCs:     Elided blocks (gridpoints):    178965 (  187785404).
MG BCs: Computational effort saved:  99.9809%.
MG BCs: Charge after coarse-graining:           -9.0009980.
MG DL_MG: Calling solver with defect correction order = 8
MG DL_MG: Solver finished
MG Hartree energy from (\int phi*rho dr):              1433.368996
MG Hartree energy from (\int eps (grad phi)^2 dr):     1432.715593
MG Discrepancy due to finite box and discretization:     -0.653403 (  -0.04559%)
MG Correction to account for finite box:                  0.466684
MG Remaining discrepancy, due to discretization:         -0.186719 (  -0.01303%)
      ideal mu1:      -0.767608824734
             Q0:  -11620.870222163852
             G0:      -0.223501347821
   RMS gradient:       0.000072024021
MG BCs: +ve charge blocks (gridpoints):     31069 (   17338643).
MG BCs: -ve charge blocks (gridpoints):      8300 (    1095759).
MG BCs:     Elided blocks (gridpoints):    178967 (  187785423).
MG BCs: Computational effort saved:  99.9809%.
MG BCs: Charge after coarse-graining:           -9.0009980.
MG DL_MG: Calling solver with defect correction order = 8
MG DL_MG: Solver finished
MG Hartree energy from (\int phi*rho dr):              1433.797019
MG Hartree energy from (\int eps (grad phi)^2 dr):     1433.143352
MG Discrepancy due to finite box and discretization:     -0.653667 (  -0.04559%)
MG Correction to account for finite box:                  0.466762
MG Remaining discrepancy, due to discretization:         -0.186905 (  -0.01304%)
     Trial step:       0.491408955287
             Q1:  -11620.943347581895
 Quadratic coef:       0.036705145796
 Linear coef   :      -0.109830563838
           Qmin:  -11620.952381984303
Quadratic minimum step length (  0.735206487589) accepted
    Initial Ne1:    7233.99996300
      Final Ne1:    7234.00000000

=================== Penalty functional idempotency correction ==================
 RMS occupancy error at iteration   1:  0.000668 (step -0.4673 Ne1=   7234.0000)
 RMS occupancy error at iteration   2:  0.000016 (step -0.5001 Ne1=   7234.0000)
            Final RMS occupancy error   :  0.000000 (Ne1=   7234.0000)
               Final occupancy bounds   : [  0.0000,  1.0000]
================================================================================

    5        -1.162087022216E+04     7.2024E-05     6.5194E-05    -1.4202E-01
MG BCs: +ve charge blocks (gridpoints):     31065 (   17338687).
MG BCs: -ve charge blocks (gridpoints):      8301 (    1095725).
MG BCs:     Elided blocks (gridpoints):    178971 (  187785413).
MG BCs: Computational effort saved:  99.9809%.
MG BCs: Charge after coarse-graining:           -9.0009980.
MG DL_MG: Calling solver with defect correction order = 8
MG DL_MG: Solver finished
MG Hartree energy from (\int phi*rho dr):              1434.008609
MG Hartree energy from (\int eps (grad phi)^2 dr):     1433.354809
MG Discrepancy due to finite box and discretization:     -0.653800 (  -0.04559%)
MG Correction to account for finite box:                  0.466802
MG Remaining discrepancy, due to discretization:         -0.186998 (  -0.01304%)
      ideal mu1:      -0.767696546835
             Q0:  -11620.951182466466
             G0:      -0.202345780229
   RMS gradient:       0.000069404326
MG BCs: +ve charge blocks (gridpoints):     31066 (   17337703).
MG BCs: -ve charge blocks (gridpoints):      8305 (    1096211).
MG BCs:     Elided blocks (gridpoints):    178970 (  187785911).
MG BCs: Computational effort saved:  99.9809%.
MG BCs: Charge after coarse-graining:           -9.0009977.
MG DL_MG: Calling solver with defect correction order = 8
MG DL_MG: Solver finished
MG Hartree energy from (\int phi*rho dr):              1432.521361
MG Hartree energy from (\int eps (grad phi)^2 dr):     1431.867344
MG Discrepancy due to finite box and discretization:     -0.654018 (  -0.04566%)
MG Correction to account for finite box:                  0.467031
MG Remaining discrepancy, due to discretization:         -0.186987 (  -0.01305%)
     Trial step:       0.601071586408
             Q1:  -11621.033533249050
 Quadratic coef:       0.039273516541
 Linear coef   :      -0.121624299125
           Qmin:  -11621.045345603872
Quadratic minimum step length (  0.930715108554) accepted
    Initial Ne1:    7233.99985331
      Final Ne1:    7234.00000000

=================== Penalty functional idempotency correction ==================
 RMS occupancy error at iteration   1:  0.002943 (step -0.3718 Ne1=   7234.0000)
 RMS occupancy error at iteration   2:  0.000123 (step -0.4994 Ne1=   7234.0000)
 RMS occupancy error at iteration   3:  0.000001 (step -0.5000 Ne1=   7234.0000)
            Final RMS occupancy error   :  0.000000 (Ne1=   7234.0000)
               Final occupancy bounds   : [  0.0000,  1.0000]
================================================================================

    6        -1.162095118247E+04     6.9404E-05     6.2823E-05    -8.0960E-02
MG BCs: +ve charge blocks (gridpoints):     31061 (   17337184).
MG BCs: -ve charge blocks (gridpoints):      8305 (    1096478).
MG BCs:     Elided blocks (gridpoints):    178975 (  187786163).
MG BCs: Computational effort saved:  99.9809%.
MG BCs: Charge after coarse-graining:           -9.0009975.
MG DL_MG: Calling solver with defect correction order = 8
MG DL_MG: Solver finished
MG Hartree energy from (\int phi*rho dr):              1431.719134
MG Hartree energy from (\int eps (grad phi)^2 dr):     1431.065018
MG Discrepancy due to finite box and discretization:     -0.654116 (  -0.04569%)
MG Correction to account for finite box:                  0.467135
MG Remaining discrepancy, due to discretization:         -0.186981 (  -0.01306%)
      ideal mu1:      -0.767680513903
             Q0:  -11621.040634969831
             G0:      -0.229835110755
   RMS gradient:       0.000073214907
MG BCs: +ve charge blocks (gridpoints):     31068 (   17339021).
MG BCs: -ve charge blocks (gridpoints):      8300 (    1095663).
MG BCs:     Elided blocks (gridpoints):    178968 (  187785141).
MG BCs: Computational effort saved:  99.9809%.
MG BCs: Charge after coarse-graining:           -9.0009981.
MG DL_MG: Calling solver with defect correction order = 8
MG DL_MG: Solver finished
MG Hartree energy from (\int phi*rho dr):              1433.908944
MG Hartree energy from (\int eps (grad phi)^2 dr):     1433.255146
MG Discrepancy due to finite box and discretization:     -0.653797 (  -0.04560%)
MG Correction to account for finite box:                  0.467023
MG Remaining discrepancy, due to discretization:         -0.186774 (  -0.01303%)
     Trial step:       0.747948131084
             Q1:  -11621.113840268576
 Quadratic coef:       0.098699442802
 Linear coef   :      -0.171904741547
           Qmin:  -11621.115486557965
Quadratic minimum step length (  0.651350334480) accepted
    Initial Ne1:    7233.99999992
      Final Ne1:    7234.00000000

=================== Penalty functional idempotency correction ==================
 RMS occupancy error at iteration   1:  0.000154 (step -0.4883 Ne1=   7234.0000)
 RMS occupancy error at iteration   2:  0.000001 (step -0.5000 Ne1=   7234.0000)
            Final RMS occupancy error   :  0.000000 (Ne1=   7234.0000)
               Final occupancy bounds   : [  0.0000,  1.0000]
================================================================================

    7        -1.162104063497E+04     7.3215E-05     6.6272E-05    -8.9453E-02
MG BCs: +ve charge blocks (gridpoints):     31067 (   17338776).
MG BCs: -ve charge blocks (gridpoints):      8300 (    1095770).
MG BCs:     Elided blocks (gridpoints):    178969 (  187785279).
MG BCs: Computational effort saved:  99.9809%.
MG BCs: Charge after coarse-graining:           -9.0009981.
MG DL_MG: Calling solver with defect correction order = 8
MG DL_MG: Solver finished
MG Hartree energy from (\int phi*rho dr):              1433.625401
MG Hartree energy from (\int eps (grad phi)^2 dr):     1432.971562
MG Discrepancy due to finite box and discretization:     -0.653839 (  -0.04561%)
MG Correction to account for finite box:                  0.467039
MG Remaining discrepancy, due to discretization:         -0.186801 (  -0.01303%)
      ideal mu1:      -0.768938911522
             Q0:  -11621.115540680359
             G0:      -0.175070184450
   RMS gradient:       0.000063894836
MG BCs: +ve charge blocks (gridpoints):     31069 (   17338833).
MG BCs: -ve charge blocks (gridpoints):      8298 (    1095706).
MG BCs:     Elided blocks (gridpoints):    178967 (  187785286).
MG BCs: Computational effort saved:  99.9809%.
MG BCs: Charge after coarse-graining:           -9.0009982.
MG DL_MG: Calling solver with defect correction order = 8
MG DL_MG: Solver finished
MG Hartree energy from (\int phi*rho dr):              1433.606489
MG Hartree energy from (\int eps (grad phi)^2 dr):     1432.952772
MG Discrepancy due to finite box and discretization:     -0.653717 (  -0.04560%)
MG Correction to account for finite box:                  0.467047
MG Remaining discrepancy, due to discretization:         -0.186670 (  -0.01302%)
     Trial step:       0.697980132493
             Q1:  -11621.189959459705
 Quadratic coef:       0.047776731191
 Linear coef   :      -0.122195510538
           Qmin:  -11621.193673604186
Quadratic minimum step length (  0.892589724209) accepted
    Initial Ne1:    7233.99999979
      Final Ne1:    7234.00000000

=================== Penalty functional idempotency correction ==================
 RMS occupancy error at iteration   1:  0.001274 (step -0.4170 Ne1=   7234.0000)
 RMS occupancy error at iteration   2:  0.000040 (step -0.4977 Ne1=   7234.0000)
            Final RMS occupancy error   :  0.000000 (Ne1=   7234.0000)
               Final occupancy bounds   : [ -0.0000,  1.0000]
================================================================================

    8        -1.162111554068E+04     6.3895E-05     5.7836E-05    -7.4906E-02
MG BCs: +ve charge blocks (gridpoints):     31069 (   17338858).
MG BCs: -ve charge blocks (gridpoints):      8298 (    1095666).
MG BCs:     Elided blocks (gridpoints):    178967 (  187785301).
MG BCs: Computational effort saved:  99.9809%.
MG BCs: Charge after coarse-graining:           -9.0009982.
MG DL_MG: Calling solver with defect correction order = 8
MG DL_MG: Solver finished
MG Hartree energy from (\int phi*rho dr):              1433.604176
MG Hartree energy from (\int eps (grad phi)^2 dr):     1432.950494
MG Discrepancy due to finite box and discretization:     -0.653682 (  -0.04560%)
MG Correction to account for finite box:                  0.467047
MG Remaining discrepancy, due to discretization:         -0.186634 (  -0.01302%)
      ideal mu1:      -0.768930611310
             Q0:  -11621.191855502198
             G0:      -0.195057558181
   RMS gradient:       0.000068024232
MG BCs: +ve charge blocks (gridpoints):     31068 (   17337846).
MG BCs: -ve charge blocks (gridpoints):      8297 (    1096195).
MG BCs:     Elided blocks (gridpoints):    178968 (  187785784).
MG BCs: Computational effort saved:  99.9809%.
MG BCs: Charge after coarse-graining:           -9.0009980.
MG DL_MG: Calling solver with defect correction order = 8
MG DL_MG: Solver finished
MG Hartree energy from (\int phi*rho dr):              1432.338660
MG Hartree energy from (\int eps (grad phi)^2 dr):     1431.685219
MG Discrepancy due to finite box and discretization:     -0.653441 (  -0.04562%)
MG Correction to account for finite box:                  0.466908
MG Remaining discrepancy, due to discretization:         -0.186533 (  -0.01302%)
     Trial step:       0.789309757931
             Q1:  -11621.261584289605
 Quadratic coef:       0.084232046624
 Linear coef   :      -0.153960834030
           Qmin:  -11621.262208590380
Quadratic minimum step length (  0.721357212074) accepted
    Initial Ne1:    7234.00130423
      Final Ne1:    7234.00000000

=================== Penalty functional idempotency correction ==================
 RMS occupancy error at iteration   1:  0.003464 (step -0.3284 Ne1=   7234.0000)
 RMS occupancy error at iteration   2:  0.000224 (step -0.4857 Ne1=   7234.0000)
 RMS occupancy error at iteration   3:  0.000003 (step -0.5000 Ne1=   7234.0000)
            Final RMS occupancy error   :  0.000000 (Ne1=   7234.0000)
               Final occupancy bounds   : [  0.0000,  1.0000]
================================================================================

    9        -1.162119185550E+04     6.8024E-05     6.1573E-05    -7.6315E-02
MG BCs: +ve charge blocks (gridpoints):     31068 (   17337928).
MG BCs: -ve charge blocks (gridpoints):      8298 (    1096151).
MG BCs:     Elided blocks (gridpoints):    178968 (  187785746).
MG BCs: Computational effort saved:  99.9809%.
MG BCs: Charge after coarse-graining:           -9.0009980.
MG DL_MG: Calling solver with defect correction order = 8
MG DL_MG: Solver finished
MG Hartree energy from (\int phi*rho dr):              1432.450317
MG Hartree energy from (\int eps (grad phi)^2 dr):     1431.796826
MG Discrepancy due to finite box and discretization:     -0.653492 (  -0.04562%)
MG Correction to account for finite box:                  0.466954
MG Remaining discrepancy, due to discretization:         -0.186538 (  -0.01302%)
      ideal mu1:      -0.767958686372
   10        -1.162126887064E+04     6.3057E-05     5.7078E-05    -7.7015E-02
Finished density kernel iterations (  10)

Writing density kernel to file "complex_28601.vacuum_dkn" ... done


>>> Density kernel optimised for the current NGWF basis:
     ~~~~~~~~~~~~~~~~~~~~~~~~~~~~~~~~~~~~~~~~~~~~~~~~~~~~~~~~~~~
     Total energy                =  -1.16212688706410E+04  Eh
     Estimated bandgap           =  -4.6540E-01  Eh
     RMS occupancy error         =   6.2484E-10
     [H,K] commutator            =   5.7078E-05
     Occupancy bounds            = [  0.000:  1.000]
     ~~~~~~~~~~~~~~~~~~~~~~~~~~~~~~~~~~~~~~~~~~~~~~~~~~~~~~~~~~~




################################################################################
########################### NGWF CG iteration  001 #############################
################################################################################
****** Reciprocal space K.E. preconditioning with k_zero =  3.5000 a0^-1 *******

>>> Checking for convergence of NGWFs:   NOT CONVERGED
  ========================================================================
         NGWF RMS gradient =  1.6174E-03 >  2.0000E-06  | above tolerance
  ========================================================================

>>> Improving NGWFs using line search:
============ Calculation of NGWF S^-1 using Hotelling algorithm ================ 
         Iteration  |  Frobenius norm and Maximum abs value    (of I-S*S_n^-1)   
               1       0.20448817E+00     0.57648180E-02
               2       0.97166551E-03     0.49173419E-04
               3       0.37860443E-07     0.35623422E-08
               4       0.12687604E-12     0.68833828E-14
================================================================================
MG BCs: +ve charge blocks (gridpoints):     30594 (   17281499).
MG BCs: -ve charge blocks (gridpoints):      8305 (    1095555).
MG BCs:     Elided blocks (gridpoints):    179443 (  187842771).
MG BCs: Computational effort saved:  99.9811%.
MG BCs: Charge after coarse-graining:           -9.0009988.
MG DL_MG: Calling solver with defect correction order = 8
MG DL_MG: Solver finished
MG Hartree energy from (\int phi*rho dr):              1399.869765
MG Hartree energy from (\int eps (grad phi)^2 dr):     1399.217193
MG Discrepancy due to finite box and discretization:     -0.652572 (  -0.04662%)
MG Correction to account for finite box:                  0.466855
MG Remaining discrepancy, due to discretization:         -0.185717 (  -0.01327%)
============ Calculation of NGWF S^-1 using Hotelling algorithm ================ 
         Iteration  |  Frobenius norm and Maximum abs value    (of I-S*S_n^-1)   
               1       0.18860234E+01     0.45577624E-01
               2       0.74137683E-01     0.28207216E-02
               3       0.15710117E-03     0.11901136E-04
               4       0.14016460E-08     0.21710611E-09
               5       0.10913275E-12     0.75495166E-14
================================================================================
------------------------------- NGWF line search -------------------------------
RMS gradient                =       0.00161739207683
Trial step length           =               0.122474
Gradient along search dir.  =       -284.92235185698
Functional at step 0        =  -11621.26887064101174
Functional at step 1        =  -11653.47091237874702
Functional predicted        =  -11734.28456603149607
Selected quadratic step     =               0.793309
--------------------------- NGWF line search finished --------------------------
                                               
Writing NGWFs to file "complex_28601.vacuum_tightbox_ngwfs"....  done

>>> Optimising kernel for current NGWFs:
   Initial electron number for spin 1:    7270.08764772
     Final electron number for spin 1:    7234.00000000

=================== Penalty functional idempotency correction ==================
 RMS occupancy error at iteration   1:  0.004342 (step -0.4859 Ne1=   7234.0000)
 RMS occupancy error at iteration   2:  0.000070 (step -0.5002 Ne1=   7234.0000)
            Final RMS occupancy error   :  0.000000 (Ne1=   7234.0000)
               Final occupancy bounds   : [  0.0000,  1.0000]
================================================================================

................................................................................
<<<<<<<<<<<<<< LNV (Original version) density kernel optimisation >>>>>>>>>>>>>>
~~~~~~~~~~~~~~~~~~~~~~~~~~~~~~~~~~~~~~~~~~~~~~~~~~~~~~~~~~~~~~~~~~~~~~~~~~~~~~~~
   iter  |      energy (Eh)       | rms gradient |  commutator  |   dE (Eh)
MG BCs: +ve charge blocks (gridpoints):     24872 (   16993024).
MG BCs: -ve charge blocks (gridpoints):      8439 (    1076992).
MG BCs:     Elided blocks (gridpoints):    185173 (  188149809).
MG BCs: Computational effort saved:  99.9838%.
MG BCs: Charge after coarse-graining:           -9.0006931.
MG DL_MG: Calling solver with defect correction order = 8
MG DL_MG: Solver finished
MG Hartree energy from (\int phi*rho dr):              1244.320894
MG Hartree energy from (\int eps (grad phi)^2 dr):     1243.668722
MG Discrepancy due to finite box and discretization:     -0.652172 (  -0.05241%)
MG Correction to account for finite box:                  0.466394
MG Remaining discrepancy, due to discretization:         -0.185777 (  -0.01493%)
      ideal mu1:      -0.707858051113
             Q0:  -11733.327231813804
             G0:     -10.089284954987
   RMS gradient:       0.000485089108
MG BCs: +ve charge blocks (gridpoints):     24933 (   17017879).
MG BCs: -ve charge blocks (gridpoints):      8420 (    1070133).
MG BCs:     Elided blocks (gridpoints):    185112 (  188131813).
MG BCs: Computational effort saved:  99.9838%.
MG BCs: Charge after coarse-graining:           -9.0006865.
MG DL_MG: Calling solver with defect correction order = 8
MG DL_MG: Solver finished
MG Hartree energy from (\int phi*rho dr):              1266.006433
MG Hartree energy from (\int eps (grad phi)^2 dr):     1265.349273
MG Discrepancy due to finite box and discretization:     -0.657160 (  -0.05191%)
MG Correction to account for finite box:                  0.465105
MG Remaining discrepancy, due to discretization:         -0.192054 (  -0.01517%)
     Trial step:       0.754568940816
             Q1:  -11732.331972529762
 Quadratic coef:       8.608320346120
 Linear coef   :      -7.613061062078
           Qmin:  -11735.010449224534
Quadratic minimum step length (  0.333664361397) accepted
    Initial Ne1:    7233.99958832
      Final Ne1:    7234.00000000

=================== Penalty functional idempotency correction ==================
 RMS occupancy error at iteration   1:  0.000368 (step -0.4985 Ne1=   7234.0000)
 RMS occupancy error at iteration   2:  0.000000 (step -0.5000 Ne1=   7234.0000)
            Final RMS occupancy error   :  0.000000 (Ne1=   7234.0000)
               Final occupancy bounds   : [  0.0000,  1.0000]
================================================================================

    1        -1.173332723181E+04     4.8509E-04     4.3909E-04
MG BCs: +ve charge blocks (gridpoints):     24896 (   17004274).
MG BCs: -ve charge blocks (gridpoints):      8428 (    1073791).
MG BCs:     Elided blocks (gridpoints):    185149 (  188141760).
MG BCs: Computational effort saved:  99.9838%.
MG BCs: Charge after coarse-graining:           -9.0006901.
MG DL_MG: Calling solver with defect correction order = 8
MG DL_MG: Solver finished
MG Hartree energy from (\int phi*rho dr):              1252.876112
MG Hartree energy from (\int eps (grad phi)^2 dr):     1252.221852
MG Discrepancy due to finite box and discretization:     -0.654259 (  -0.05222%)
MG Correction to account for finite box:                  0.465790
MG Remaining discrepancy, due to discretization:         -0.188470 (  -0.01504%)
      ideal mu1:      -0.716292184944
             Q0:  -11734.980477736332
             G0:      -1.051846567315
   RMS gradient:       0.000157443602
MG BCs: +ve charge blocks (gridpoints):     24901 (   17005020).
MG BCs: -ve charge blocks (gridpoints):      8427 (    1074227).
MG BCs:     Elided blocks (gridpoints):    185144 (  188140578).
MG BCs: Computational effort saved:  99.9838%.
MG BCs: Charge after coarse-graining:           -9.0006899.
MG DL_MG: Calling solver with defect correction order = 8
MG DL_MG: Solver finished
MG Hartree energy from (\int phi*rho dr):              1254.545201
MG Hartree energy from (\int eps (grad phi)^2 dr):     1253.890858
MG Discrepancy due to finite box and discretization:     -0.654343 (  -0.05216%)
MG Correction to account for finite box:                  0.465536
MG Remaining discrepancy, due to discretization:         -0.188807 (  -0.01505%)
     Trial step:       0.501769632170
             Q1:  -11735.203230512096
 Quadratic coef:       0.305031889417
 Linear coef   :      -0.527784665181
           Qmin:  -11735.208778991433
Quadratic minimum step length (  0.434096116670) accepted
    Initial Ne1:    7233.99994357
      Final Ne1:    7234.00000000

=================== Penalty functional idempotency correction ==================
 RMS occupancy error at iteration   1:  0.000169 (step -0.4986 Ne1=   7234.0000)
 RMS occupancy error at iteration   2:  0.000001 (step -0.5000 Ne1=   7234.0000)
            Final RMS occupancy error   :  0.000000 (Ne1=   7234.0000)
               Final occupancy bounds   : [  0.0000,  1.0000]
================================================================================

    2        -1.173498047774E+04     1.5744E-04     1.4251E-04    -1.6532E+00
MG BCs: +ve charge blocks (gridpoints):     24900 (   17004892).
MG BCs: -ve charge blocks (gridpoints):      8426 (    1074151).
MG BCs:     Elided blocks (gridpoints):    185145 (  188140782).
MG BCs: Computational effort saved:  99.9838%.
MG BCs: Charge after coarse-graining:           -9.0006900.
MG DL_MG: Calling solver with defect correction order = 8
MG DL_MG: Solver finished
MG Hartree energy from (\int phi*rho dr):              1254.319625
MG Hartree energy from (\int eps (grad phi)^2 dr):     1253.665294
MG Discrepancy due to finite box and discretization:     -0.654331 (  -0.05217%)
MG Correction to account for finite box:                  0.465571
MG Remaining discrepancy, due to discretization:         -0.188760 (  -0.01505%)
      ideal mu1:      -0.717498262666
             Q0:  -11735.209325479809
             G0:      -0.204208702584
   RMS gradient:       0.000068937297
MG BCs: +ve charge blocks (gridpoints):     24901 (   17004009).
MG BCs: -ve charge blocks (gridpoints):      8429 (    1074633).
MG BCs:     Elided blocks (gridpoints):    185144 (  188141183).
MG BCs: Computational effort saved:  99.9838%.
MG BCs: Charge after coarse-graining:           -9.0006900.
MG DL_MG: Calling solver with defect correction order = 8
MG DL_MG: Solver finished
MG Hartree energy from (\int phi*rho dr):              1253.664247
MG Hartree energy from (\int eps (grad phi)^2 dr):     1253.010240
MG Discrepancy due to finite box and discretization:     -0.654007 (  -0.05217%)
MG Correction to account for finite box:                  0.465276
MG Remaining discrepancy, due to discretization:         -0.188731 (  -0.01505%)
     Trial step:       0.466707883786
             Q1:  -11735.277955519618
 Quadratic coef:       0.026675771625
 Linear coef   :      -0.095305811433
           Qmin:  -11735.294451393134
Quadratic minimum step length (  0.833714844151) accepted
    Initial Ne1:    7233.99997920
      Final Ne1:    7234.00000000

=================== Penalty functional idempotency correction ==================
 RMS occupancy error at iteration   1:  0.000341 (step -0.4823 Ne1=   7234.0000)
 RMS occupancy error at iteration   2:  0.000004 (step -0.5000 Ne1=   7234.0000)
            Final RMS occupancy error   :  0.000000 (Ne1=   7234.0000)
               Final occupancy bounds   : [  0.0000,  1.0000]
================================================================================

    3        -1.173520932548E+04     6.8937E-05     6.2400E-05    -2.2885E-01
MG BCs: +ve charge blocks (gridpoints):     24901 (   17003312).
MG BCs: -ve charge blocks (gridpoints):      8430 (    1075035).
MG BCs:     Elided blocks (gridpoints):    185144 (  188141478).
MG BCs: Computational effort saved:  99.9838%.
MG BCs: Charge after coarse-graining:           -9.0006900.
MG DL_MG: Calling solver with defect correction order = 8
MG DL_MG: Solver finished
MG Hartree energy from (\int phi*rho dr):              1253.148677
MG Hartree energy from (\int eps (grad phi)^2 dr):     1252.494931
MG Discrepancy due to finite box and discretization:     -0.653746 (  -0.05217%)
MG Correction to account for finite box:                  0.465036
MG Remaining discrepancy, due to discretization:         -0.188710 (  -0.01506%)
      ideal mu1:      -0.716225529902
             Q0:  -11735.294113413780
             G0:      -0.112122438500
   RMS gradient:       0.000051244068
MG BCs: +ve charge blocks (gridpoints):     24899 (   17003612).
MG BCs: -ve charge blocks (gridpoints):      8430 (    1074957).
MG BCs:     Elided blocks (gridpoints):    185146 (  188141256).
MG BCs: Computational effort saved:  99.9838%.
MG BCs: Charge after coarse-graining:           -9.0006900.
MG DL_MG: Calling solver with defect correction order = 8
MG DL_MG: Solver finished
MG Hartree energy from (\int phi*rho dr):              1253.289059
MG Hartree energy from (\int eps (grad phi)^2 dr):     1252.635930
MG Discrepancy due to finite box and discretization:     -0.653130 (  -0.05211%)
MG Correction to account for finite box:                  0.464588
MG Remaining discrepancy, due to discretization:         -0.188542 (  -0.01504%)
     Trial step:       0.623779841446
             Q1:  -11735.339677036973
 Quadratic coef:       0.024376093717
 Linear coef   :      -0.069939716910
           Qmin:  -11735.344281049929
Quadratic minimum step length (  0.894872370259) accepted
    Initial Ne1:    7233.99998509
      Final Ne1:    7234.00000000

=================== Penalty functional idempotency correction ==================
 RMS occupancy error at iteration   1:  0.000895 (step -0.4518 Ne1=   7234.0000)
 RMS occupancy error at iteration   2:  0.000011 (step -0.5000 Ne1=   7234.0000)
            Final RMS occupancy error   :  0.000000 (Ne1=   7234.0000)
               Final occupancy bounds   : [  0.0000,  1.0000]
================================================================================

    4        -1.173529411341E+04     5.1244E-05     4.6385E-05    -8.4788E-02
MG BCs: +ve charge blocks (gridpoints):     24899 (   17003749).
MG BCs: -ve charge blocks (gridpoints):      8429 (    1074894).
MG BCs:     Elided blocks (gridpoints):    185146 (  188141182).
MG BCs: Computational effort saved:  99.9838%.
MG BCs: Charge after coarse-graining:           -9.0006900.
MG DL_MG: Calling solver with defect correction order = 8
MG DL_MG: Solver finished
MG Hartree energy from (\int phi*rho dr):              1253.354537
MG Hartree energy from (\int eps (grad phi)^2 dr):     1252.701672
MG Discrepancy due to finite box and discretization:     -0.652865 (  -0.05209%)
MG Correction to account for finite box:                  0.464396
MG Remaining discrepancy, due to discretization:         -0.188469 (  -0.01504%)
      ideal mu1:      -0.716665206516
             Q0:  -11735.343573389109
             G0:      -0.136922241703
   RMS gradient:       0.000056676576
MG BCs: +ve charge blocks (gridpoints):     24894 (   17005866).
MG BCs: -ve charge blocks (gridpoints):      8427 (    1074100).
MG BCs:     Elided blocks (gridpoints):    185151 (  188139859).
MG BCs: Computational effort saved:  99.9838%.
MG BCs: Charge after coarse-graining:           -9.0006896.
MG DL_MG: Calling solver with defect correction order = 8
MG DL_MG: Solver finished
MG Hartree energy from (\int phi*rho dr):              1254.670330
MG Hartree energy from (\int eps (grad phi)^2 dr):     1254.018540
MG Discrepancy due to finite box and discretization:     -0.651790 (  -0.05195%)
MG Correction to account for finite box:                  0.463435
MG Remaining discrepancy, due to discretization:         -0.188355 (  -0.01501%)
     Trial step:       0.747130072501
             Q1:  -11735.391501241131
 Quadratic coef:       0.054370872349
 Linear coef   :      -0.102298724371
           Qmin:  -11735.391692117741
Quadratic minimum step length (  0.702862121332) accepted
    Initial Ne1:    7233.99997150
      Final Ne1:    7234.00000000

=================== Penalty functional idempotency correction ==================
 RMS occupancy error at iteration   1:  0.002259 (step -0.3947 Ne1=   7234.0000)
 RMS occupancy error at iteration   2:  0.000034 (step -0.4999 Ne1=   7234.0000)
            Final RMS occupancy error   :  0.000000 (Ne1=   7234.0000)
               Final occupancy bounds   : [  0.0000,  1.0000]
================================================================================

    5        -1.173534357339E+04     5.6677E-05     5.1302E-05    -4.9460E-02
MG BCs: +ve charge blocks (gridpoints):     24894 (   17005742).
MG BCs: -ve charge blocks (gridpoints):      8427 (    1074141).
MG BCs:     Elided blocks (gridpoints):    185151 (  188139942).
MG BCs: Computational effort saved:  99.9838%.
MG BCs: Charge after coarse-graining:           -9.0006896.
MG DL_MG: Calling solver with defect correction order = 8
MG DL_MG: Solver finished
MG Hartree energy from (\int phi*rho dr):              1254.590973
MG Hartree energy from (\int eps (grad phi)^2 dr):     1253.939113
MG Discrepancy due to finite box and discretization:     -0.651860 (  -0.05196%)
MG Correction to account for finite box:                  0.463499
MG Remaining discrepancy, due to discretization:         -0.188360 (  -0.01501%)
      ideal mu1:      -0.718090230813
             Q0:  -11735.393054487417
             G0:      -0.095767917340
   RMS gradient:       0.000045367534
MG BCs: +ve charge blocks (gridpoints):     24896 (   17005289).
MG BCs: -ve charge blocks (gridpoints):      8427 (    1074399).
MG BCs:     Elided blocks (gridpoints):    185149 (  188140137).
MG BCs: Computational effort saved:  99.9838%.
MG BCs: Charge after coarse-graining:           -9.0006897.
MG DL_MG: Calling solver with defect correction order = 8
MG DL_MG: Solver finished
MG Hartree energy from (\int phi*rho dr):              1254.109630
MG Hartree energy from (\int eps (grad phi)^2 dr):     1253.458289
MG Discrepancy due to finite box and discretization:     -0.651341 (  -0.05194%)
MG Correction to account for finite box:                  0.462896
MG Remaining discrepancy, due to discretization:         -0.188445 (  -0.01503%)
     Trial step:       0.724658145382
             Q1:  -11735.430991913192
 Quadratic coef:       0.031461575592
 Linear coef   :      -0.069399001367
           Qmin:  -11735.431325150123
Quadratic minimum step length (  0.799237652200) accepted
    Initial Ne1:    7233.99998336
      Final Ne1:    7234.00000000

=================== Penalty functional idempotency correction ==================
 RMS occupancy error at iteration   1:  0.002843 (step -0.3741 Ne1=   7234.0000)
 RMS occupancy error at iteration   2:  0.000059 (step -0.4995 Ne1=   7234.0000)
 RMS occupancy error at iteration   3:  0.000000 (step -0.5000 Ne1=   7234.0000)
            Final RMS occupancy error   :  0.000000 (Ne1=   7234.0000)
               Final occupancy bounds   : [  0.0000,  1.0000]
================================================================================

    6        -1.173539305449E+04     4.5368E-05     4.1065E-05    -4.9481E-02
MG BCs: +ve charge blocks (gridpoints):     24896 (   17005224).
MG BCs: -ve charge blocks (gridpoints):      8427 (    1074443).
MG BCs:     Elided blocks (gridpoints):    185149 (  188140158).
[...]

    7        -1.176992234900E+04     1.0581E-08     9.5772E-09    -3.3760E-09

Reusing previously generated solute cavity.
MG BCs: +ve charge blocks (gridpoints):     29280 (   19224101).
MG BCs: -ve charge blocks (gridpoints):      8416 (    1044454).
MG BCs:     Elided blocks (gridpoints):    180765 (  185951270).
MG BCs: Computational effort saved:  99.9817%.
MG BCs: Charge after coarse-graining:           -9.0009722.
MG DL_MG: Calling solver with defect correction order = 8
MG DL_MG: Solver finished
MG Hartree energy from (\int phi*rho dr):              1209.513160
MG Hartree energy from (\int eps (grad phi)^2 dr):     1209.318938
MG Discrepancy due to finite box and discretization:     -0.194222 (  -0.01606%)
MG Correction to account for finite box:                  0.006292
MG Remaining discrepancy, due to discretization:         -0.187930 (  -0.01554%)
      ideal mu1:      -0.485167430528
             Q0:  -11769.922348998021
             G0:      -0.000000005345
   RMS gradient:       0.000000008397

Reusing previously generated solute cavity.
MG BCs: +ve charge blocks (gridpoints):     29280 (   19224101).
MG BCs: -ve charge blocks (gridpoints):      8416 (    1044454).
MG BCs:     Elided blocks (gridpoints):    180765 (  185951270).
MG BCs: Computational effort saved:  99.9817%.
MG BCs: Charge after coarse-graining:           -9.0009722.
MG DL_MG: Calling solver with defect correction order = 8
MG DL_MG: Solver finished
MG Hartree energy from (\int phi*rho dr):              1209.513196
MG Hartree energy from (\int eps (grad phi)^2 dr):     1209.318974
MG Discrepancy due to finite box and discretization:     -0.194222 (  -0.01606%)
MG Correction to account for finite box:                  0.006292
MG Remaining discrepancy, due to discretization:         -0.187930 (  -0.01554%)
     Trial step:       0.302564764229
             Q1:  -11769.922349000000
 Quadratic coef:      -0.000000000362
 Linear coef   :      -0.000000001617
         Quadratic fit unsuccessful: proceeding to cubic fit

Reusing previously generated solute cavity.
MG BCs: +ve charge blocks (gridpoints):     29280 (   19224101).
MG BCs: -ve charge blocks (gridpoints):      8416 (    1044453).
MG BCs:     Elided blocks (gridpoints):    180765 (  185951271).
MG BCs: Computational effort saved:  99.9817%.
MG BCs: Charge after coarse-graining:           -9.0009722.
MG DL_MG: Calling solver with defect correction order = 8
MG DL_MG: Solver finished
MG Hartree energy from (\int phi*rho dr):              1209.513233
MG Hartree energy from (\int eps (grad phi)^2 dr):     1209.319011
MG Discrepancy due to finite box and discretization:     -0.194222 (  -0.01606%)
MG Correction to account for finite box:                  0.006292
MG Remaining discrepancy, due to discretization:         -0.187930 (  -0.01554%)
             Q2:  -11769.922349000932
  Cubic LS coeff:       0.564704929917
Predicted energy:  -11769.922349000972
Cubic minimum step length accepted
    Initial Ne1:    7234.00000000
      Final Ne1:    7234.00000000

=================== Penalty functional idempotency correction ==================
 RMS occupancy error at iteration   1:  0.000000 (step -0.5000 Ne1=   7234.0000)
            Final RMS occupancy error   :  0.000000 (Ne1=   7234.0000)
               Final occupancy bounds   : [ -0.0000,  1.0000]
================================================================================

    8        -1.176992234900E+04     8.3969E-09     7.6006E-09    -9.3132E-10

Reusing previously generated solute cavity.
MG BCs: +ve charge blocks (gridpoints):     29280 (   19224101).
MG BCs: -ve charge blocks (gridpoints):      8416 (    1044454).
MG BCs:     Elided blocks (gridpoints):    180765 (  185951270).
MG BCs: Computational effort saved:  99.9817%.
MG BCs: Charge after coarse-graining:           -9.0009722.
MG DL_MG: Calling solver with defect correction order = 8
MG DL_MG: Solver finished
MG Hartree energy from (\int phi*rho dr):              1209.513228
MG Hartree energy from (\int eps (grad phi)^2 dr):     1209.319006
MG Discrepancy due to finite box and discretization:     -0.194222 (  -0.01606%)
MG Correction to account for finite box:                  0.006292
MG Remaining discrepancy, due to discretization:         -0.187930 (  -0.01554%)
      ideal mu1:      -0.485167502643
             Q0:  -11769.922349000815
             G0:      -0.000000003713
   RMS gradient:       0.000000011478

Reusing previously generated solute cavity.
MG BCs: +ve charge blocks (gridpoints):     29280 (   19224102).
MG BCs: -ve charge blocks (gridpoints):      8416 (    1044453).
MG BCs:     Elided blocks (gridpoints):    180765 (  185951270).
MG BCs: Computational effort saved:  99.9817%.
MG BCs: Charge after coarse-graining:           -9.0009722.
MG DL_MG: Calling solver with defect correction order = 8
MG DL_MG: Solver finished
MG Hartree energy from (\int phi*rho dr):              1209.513271
MG Hartree energy from (\int eps (grad phi)^2 dr):     1209.319049
MG Discrepancy due to finite box and discretization:     -0.194222 (  -0.01606%)
MG Correction to account for finite box:                  0.006292
MG Remaining discrepancy, due to discretization:         -0.187930 (  -0.01554%)
     Trial step:       0.413351925094
             Q1:  -11769.922349001863
 Quadratic coef:       0.000000000487
 Linear coef   :      -0.000000001535
           Qmin:  -11769.922349002023
Quadratic minimum step length (  0.650628259321) accepted
    Initial Ne1:    7234.00000000
      Final Ne1:    7234.00000000

=================== Penalty functional idempotency correction ==================
 RMS occupancy error at iteration   1:  0.000000 (step -0.5000 Ne1=   7234.0000)
            Final RMS occupancy error   :  0.000000 (Ne1=   7234.0000)
               Final occupancy bounds   : [ -0.0000,  1.0000]
================================================================================

    9        -1.176992234900E+04     1.1478E-08     1.0389E-08    -2.7940E-09

Reusing previously generated solute cavity.
MG BCs: +ve charge blocks (gridpoints):     29280 (   19224102).
MG BCs: -ve charge blocks (gridpoints):      8416 (    1044453).
MG BCs:     Elided blocks (gridpoints):    180765 (  185951270).
MG BCs: Computational effort saved:  99.9817%.
MG BCs: Charge after coarse-graining:           -9.0009722.
MG DL_MG: Calling solver with defect correction order = 8
MG DL_MG: Solver finished
MG Hartree energy from (\int phi*rho dr):              1209.513296
MG Hartree energy from (\int eps (grad phi)^2 dr):     1209.319074
MG Discrepancy due to finite box and discretization:     -0.194222 (  -0.01606%)
MG Correction to account for finite box:                  0.006292
MG Remaining discrepancy, due to discretization:         -0.187930 (  -0.01554%)
      ideal mu1:      -0.485167553560
   10        -1.176992234900E+04     2.1747E-08     1.9685E-08    -3.4925E-10
Finished density kernel iterations (  10)

Writing density kernel to file "complex_28601.dkn" ... done


>>> Density kernel optimised for the current NGWF basis:
     ~~~~~~~~~~~~~~~~~~~~~~~~~~~~~~~~~~~~~~~~~~~~~~~~~~~~~~~~~~~
     Total energy                =  -1.17699223490012E+04  Eh
     Estimated bandgap           =   9.1941E-02  Eh
     RMS occupancy error         =   3.4092E-16
     [H,K] commutator            =   1.9685E-08
     Occupancy bounds            = [ -0.000:  1.000]
     ~~~~~~~~~~~~~~~~~~~~~~~~~~~~~~~~~~~~~~~~~~~~~~~~~~~~~~~~~~~




################################################################################
########################### NGWF CG iteration  004 #############################
################################################################################
****** Reciprocal space K.E. preconditioning with k_zero =  3.5000 a0^-1 *******

>>> Checking for convergence of NGWFs: 
           ........................................................
           |         *** NGWF optimisation converged ***          |
           | RMS NGWF gradient =    0.00000196399648              |
           | Criteria satisfied:                                  |
           | -> RMS NGWF gradient lower than set threshold.       |
           ========================================================

Reusing previously generated solute cavity.
MG BCs: +ve charge blocks (gridpoints):     29280 (   19224102).
MG BCs: -ve charge blocks (gridpoints):      8416 (    1044453).
MG BCs:     Elided blocks (gridpoints):    180765 (  185951270).
MG BCs: Computational effort saved:  99.9817%.
MG BCs: Charge after coarse-graining:           -9.0009722.
MG DL_MG: Calling solver with defect correction order = 8
MG DL_MG: Solver finished
MG Hartree energy from (\int phi*rho dr):              1209.513296
MG Hartree energy from (\int eps (grad phi)^2 dr):     1209.319074
MG Discrepancy due to finite box and discretization:     -0.194222 (  -0.01606%)
MG Correction to account for finite box:                  0.006292
MG Remaining discrepancy, due to discretization:         -0.187930 (  -0.01554%)

================================================================================
           ---------------- ENERGY COMPONENTS (Eh) ----------------
           | Kinetic                    :     8612.81919081191154 |
           | Pseudo. (local,OBC,corr'd) :    -5107.14771537271008 |
           | Pseudopotential (non-local):     1413.35783623410816 |
           | Hartree (molecular)        :     1209.51329571614292 |
           | Exchange-correlation       :    -3402.65503880743472 |
           | Ion-ion (open BC)          :   830211.62027350999415 |
           | Smeared ion non-self corr. :  -830163.14103793120012 |
           | Smeared ion self corr.     :   -14544.93686558573609 |
           | Solvent cavitation energy  :        2.30441136222842 |
           | Solute-solvent dis-rep en. :       -1.65669893859007 |
           | Total                      :   -11769.92234900122457 |
           --------------------------------------------------------
           ------ LOCAL ENERGY COMPONENTS FROM MATRIX TRACES ------
           | Pseudopotential (local)    :    -5107.14771537271645 |
           | Hartree                    :    -2012.85814431171912 |
           --------------------------------------------------------
           Integrated density           :     7233.99999999884494
           Integrated density tr(KS)    :     7234.00000000000000
================================================================================


                        <<<<< CALCULATION SUMMARY >>>>>                         
|ITER|    RMS GRADIENT   |     TOTAL ENERGY    |   step   |     Epredicted              
   0     0.00004041284865 -11769.85896064853296   0.616280 -11769.91377360068873        
   1     0.00000985273342 -11769.92181661527138   0.083699 -11769.92225910041452        
   2     0.00000437810970 -11769.92233050474897   0.015551 -11769.92234673773237        
   3     0.00000196399648 -11769.92234900116455  <-- CG                                 

=================== Finished the calculation in solvent ========================
= Adjusting the following parameters: 
= read_denskern: F
= read_tightbox_ngwfs: F
= maxit_pen: 0 (restored to user-specified value)
= restart read filename prefix: ""
= restart write filename prefix: ""
================================================================================

================================================================================
IS: Calculation in solvent completed (NGWFs converged).      

Individual components of total energy in solvent:     hartree           kcal/mol
- Usual non-electrostatic DFT terms:    -12980.08335714094574    -8145125.104025
- Electrostatic fixed charge energy:      1209.51329571614292      758981.035601
- Apolar cavitation energy:                  2.30441136222842        1446.039931
- Apolar dispersion-repulsion energy:       -1.65669893859007       -1039.594257
 -------------------------------------------------------------------------------
- Total energy in solvent:              -11769.92234900116455    -7385737.622751

Components of total energy in solvent:                hartree           kcal/mol
- Usual non-electrostatic DFT terms:    -12980.08335714094574    -8145125.104025
- Electrostatic energy:                   1209.51329571614292      758981.035601
- Apolar energy terms:                       0.64771242363835         406.445673
 -------------------------------------------------------------------------------
- Total energy in solvent:              -11769.92234900116455    -7385737.622751

Calculation of free energy of solvation:              hartree           kcal/mol
- Total energy in solvent:         (+)  -11769.92234900116455    -7385737.622751
- Total energy in vacuum:          (-)  -11766.01990121882409    -7383288.799849
 -------------------------------------------------------------------------------
- Total free energy of solvation:           -3.90244778234046       -2448.822902

Components of polar term in f.e. of solvation:        hartree           kcal/mol
- Electrostatic:                            -4.50041557683471       -2824.053350
- Change in nonelectrostatic DFT terms:     -0.04974462914470         -31.215225
 -------------------------------------------------------------------------------
- Polar term in f.e. of solvation:          -4.55016020597941       -2855.268576

Components of free energy of solvation:               hartree           kcal/mol
- Polar term in f.e. of solvation: (+)      -4.55016020597941       -2855.268576
- Apolar (cavitation, dis., rep.): (+)       0.64771242363835         406.445673
 -------------------------------------------------------------------------------
- Total free energy of solvation:           -3.90244778234106       -2448.822902
================================================================================


------------------------------ TIMING INFORMATION ------------------------------
AVERAGE TIME:   35564.961s on     60 node(s)                                    
TOTAL TIME:     35564.963s on     60 node(s)                                    
================= AVERAGE TIMINGS FROM ALL NODES (CUMULATIVE) ==================
|| TAG                                    #calls    cpu time   %total  Gflops ||
|| work_imbalance                       :     1        0.00s   0.000%  ------ ||
|| sparse_set_to_garbage                :   176        0.03s   0.000%  ------ ||
|| parallel_prepare_fd_halos_request    :  1947        0.03s   0.000%  ------ ||
|| ngwfs_initialise_from_radial         :     1        0.11s   0.000%  ------ ||
|| parallel_prepare_fd_halos_alloc      :  1947        0.15s   0.000%  ------ ||
|| basis_extract_function_from_box      :  3601        0.16s   0.000%  ------ ||
|| parallel_prepare_fd_halos_satisfy    :  1947        0.65s   0.002%  ------ ||
|| pseudopotentials_nonlocal_mat        :    30        1.91s   0.005%  ------ ||
|| openbc_locps_radial                  :     1        3.79s   0.011%  ------ ||
|| density_init_guess_real              :     1        7.89s   0.022%  ------ ||
|| restart_kernel_read                  :     1        8.80s   0.025%  ------ ||
|| restart_ngwfs_tightbox_input         :     1        9.44s   0.027%  ------ ||
|| parallel_prepare_fd_halos_comms_imbal:  1947       10.10s   0.028%  ------ ||
|| parallel_prepare_fd_halos_clear      :  1947       19.04s   0.054%  ------ ||
|| sparse_init                          :     2       22.65s   0.064%  ------ ||
|| parallel_prepare_fd_halos_comms_wait :  1947       22.68s   0.064%  ------ ||
|| projectors_func_ovlp_box             :    30       26.08s   0.073%  ------ ||
|| function_ops_brappd_ketppd           :    30       28.77s   0.081%  ------ ||
|| projectors_init_fftbox_recip         :   142       32.91s   0.093%  ------ ||
|| palser_mano_kernel_optimise          :     1       35.35s   0.099%  ------ ||
|| basis_copy_function_to_box           : 58495       41.77s   0.117%  ------ ||
|| ngwf_gradient_coeffs                 :    16       49.34s   0.139%  ------ ||
|| parallel_prepare_fd_halos            :  1947       52.67s   0.148%  ------ ||
|| fourier_apply_box_pair               :  5142       52.88s   0.149% 562.958 ||
|| pseudo_make_structure_factor         :     2       59.42s   0.167%  ------ ||
|| sparse_embed_hotelling_invert_embed  :    30       78.82s   0.222%  ------ ||
|| restart_kernel_write                 :    17      101.54s   0.286%  ------ ||
|| finite_difference_derivative         :  1947      120.13s   0.338%  ------ ||
|| integrals_kinetic                    :    30      145.64s   0.410%  ------ ||
|| projectors_gradient_batch            :   112      171.58s   0.482%  ------ ||
|| basis_dot_function_with_box          : 8.874M     179.37s   0.504%  ------ ||
|| sparse_trace                         :  5499      205.85s   0.579%  ------ ||
|| openbc_locps_on_grid                 :     2      289.61s   0.814%  ------ ||
|| kernel_purify                        :   495      295.09s   0.830%  ------ ||
|| basis_add_function_to_box            : 18.50M     421.92s   1.186%  ------ ||
|| lnv_gradient_norm                    :   160      432.20s   1.215%  ------ ||
|| hamiltonian_energy_components        :     4      548.50s   1.542%  ------ ||
|| kernel_fix                           :   160      556.86s   1.566%  ------ ||
|| integrals_locpot_mat_els_batch       :  1183      718.07s   2.019%  ------ ||
|| ngwf_gradient_build_batch            :   112      747.51s   2.102%  ------ ||
|| ngwf_gradient_batch                  :   112     1032.77s   2.904%  ------ ||
|| restart_ngwfs_tightbox_output        :    14     1069.12s   3.006%  ------ ||
|| density_batch_row_sums               :  2261     1097.83s   3.087%  ------ ||
|| ngwf_gradient_lnv                    :    16     1158.29s   3.257%  ------ ||
|| cell_grid_deposit_box_real           : 37521     1406.69s   3.955%  ------ ||
|| fourier_apply_cell_forward           :  9073     1576.52s   4.433%  84.326 ||
|| cell_grid_extract_box_real           : 42058     1730.87s   4.867%  ------ ||
|| fourier_apply_cell_backward          :  9723     1743.95s   4.904%  81.691 ||
|| sparse_product                       :  6769     1858.74s   5.226%  ------ ||
|| density_fftbox_deposit_to_cell       : 35530     2161.15s   6.077%  ------ ||
|| density_fftbox_interpolate_multiply  : 35530     3591.97s  10.100%  ------ ||
|| potential_apply_to_ngwf_batch        :  1183     3738.76s  10.512%  ------ ||
|| xc_energy_potential                  :   324     4326.62s  12.165%  ------ ||
|| fourier_apply_box                    : 122.2k    4442.25s  12.491% 772.474 ||
|| integrals_locpot_dbl_grid            :   169     4474.43s  12.581%  ------ ||
|| multigrid_prepare_bound_cond         :   324     4843.39s  13.618%  ------ ||
|| density_batch_interp_deposit         :  2261     6697.12s  18.831%  ------ ||
|| nlxc_vdw_energy                      :   648     7027.39s  19.759%  ------ ||
|| dl_mg_solver_calls                   :   324     7730.98s  21.738%  ------ ||
|| density_on_dbl_grid                  :   323     8095.70s  22.763%  ------ ||
|| multigrid_calculate_hartree          :   324    12745.60s  35.838%  ------ ||
|| hamiltonian_lhxc_calculate           :   319    25047.21s  70.427%  ------ ||
|| lnv_denskernel_optimise_cg           :    16    30284.29s  85.152%  ------ ||
|| ngwf_cg_optimise                     :     2    34553.91s  97.157%  ------ ||
|| total_time                           :     1    35564.96s 100.000%  ------ ||
================================================================================
Overhead of generating timer report: 
- 0 ms averaging over threads,
- 15 ms ensuring consistency across MPI ranks,
- 0 ms printing in order.

Job completed: 19-01-2020 18:54 (-0000)

Application 38638700 resources: utime ~7095354s, stime ~246587s, Rss ~3833632, inblocks ~322653439, outblocks ~66696326
