 +---------------------------------------------------------------+
 |                                                               |
 |        ####### #     # ####### ####### ####### ######         |
 |        #     # ##    # #          #    #       #     #        |
 |        #     # # #   # #          #    #       #     #        |
 |        #     # #  #  # #####      #    #####   ######         |
 |        #     # #   # # #          #    #       #              |
 |        #     # #    ## #          #    #       #              |
 |        ####### #     # #######    #    ####### #              |
 |                                                               |
 |        Linear-Scaling Ab Initio Total Energy Program          |
 |                                                               |
 |          Release for academic collaborators of ODG            |
 |                                             Version 5.3.2.6.  |
 |                                                               |
 +---------------------------------------------------------------+
 |                                                               |
 |  Authors:                                                     |
 |  Jacek Dziedzic, Peter D. Haynes, Nicholas D. M. Hine,        |
 |  Arash. A. Mostofi, Mike C. Payne and Chris-Kriton Skylaris   |
 |                                                               |
 |  Contributors:                                                |
 |  J. Aarons, L. Andrinopoulos, P. W. Avraam, R. A. Bell,       |
 |  A. Bhandari, G. A. Bramley, R. J. Charlton, S. J. Clark,     |
 |  R. J. Clements, G. C. Constantinescu, F. Corsetti,           |
 |  N. Corsini, O. Dieguez, S. M. M. Dubois, K. K. B. Duff,      |
 |  J. M. Escartin, A. Greco, H. Helal, Q. O. Hill, L. P. Lee,   |
 |  J.-H. Li, E. B. Linscott, G. Moynihan, D. D. O`Regan,        |
 |  O. K. Okan, M. J. S. Phipps, C. J. Pickard,                  |
 |  J. C. A. Prentice, M. I. J. Probert, L. E. Ratcliff,         |
 |  M. Robinson, A. Ruiz Serrano, J. S. Spencer, E. W. Tait,     |
 |  G. Teobaldi, D. Turban, V. Vitale, K. A. Wilkinson,          |
 |  C. Weber, J. C. Womack, N. Yeung and T. J. Zuehlsdorff       |
 |                                                               |
 |                                   Copyright (c) 2004-2019     |
 |                                                               |
 |  Please cite:                                                 |
 |  "Introducing ONETEP: Linear-scaling density functional       |
 |   simulations on parallel computers".                         |
 |   C.-K. Skylaris, P. D. Haynes, A. A. Mostofi, M. C. Payne.   |
 |   J. Chem. Phys. 122 084119 (2005).                           |
 |                                                               |
 |          in all publications arising from your use of ONETEP. |
 |                                                               |
 +---------------------------------------------------------------+
 |                                                               |
 |   ONETEP is based on developments described in the following  |
 |   publications:                                               |
 |                                                               |
 |  "Nonorthogonal generalized Wannier function pseudopotential  |
 |   plane-wave method".                                         |
 |   C.-K. Skylaris, A. A. Mostofi, P. D. Haynes, O. Dieguez,    |
 |   M. C. Payne.                                                |
 |   Phys. Rev. B 66 035119 (2002).                              |
 |                                                               |
 |  "Preconditioned iterative minimization for linear-scaling    |
 |   electronic structure calculations".                         |
 |   A. A. Mostofi, P. D. Haynes, C.-K. Skylaris, M. C. Payne.   |
 |   J. Chem. Phys. 119(17), pp.8842-8848 (2003).                |
 |                                                               |
 |  "Total-energy calculations on a real space grid with         |
 |   localized functions and a plane-wave basis".                |
 |   A. A. Mostofi, C.-K. Skylaris, P. D. Haynes, M. C. Payne.   |
 |   Comput. Phys. Commun. 147, pp.788-802 (2002).               |
 |                                                               |
 |  "Accurate kinetic energy evaluation in electronic structure  |
 |   calculations with localized functions on real space grids"  |
 |   C.-K. Skylaris, A. A. Mostofi, P. D. Haynes, C. J. Pickard, |
 |   M. C. Payne.                                                |
 |   Comput. Phys. Commun. 140, pp.315-322 (2001).               |
 |                                                               |
 |  "Accurate ionic forces and geometry optimization in linear-  |
 |   scaling density-functional theory with local orbitals"      |
 |   N. D. M. Hine, M. Robinson, P. D. Haynes, C.-K. Skylaris,   |
 |   M. C. Payne, and A. A. Mostofi.                             |
 |   Phys. Rev. B 83 195102 (2011).                              |
 |                                                               |
 +---------------------------------------------------------------+

Job started: 07-03-2020 08:44 (-0000)
 
Reading parameters from file "host_10361.dat" ...... done

If your calculation crashes here, before "Checking processes and threads..."
is displayed, then your stack size is insufficient.
If so, use "ulimit -s unlimited" at runtime.
You can disable this check with "check_stack_size F".

Checking processes and threads...
   Determining the default number of threads...
      No default threads set at compilation time: defaulting to 1.
      OpenMP library call suggests 4 threads.
      Hybrid MPI-OpenMP compilation detected.
      Number of MPI processes > 1.
      OMP_NUM_THREADS environment variable present and
      its value matches the one obtained from the OpenMP library call.
      Using this value as default.
      Default threads: 4
      Default applies to threads_max and threads_num_fftboxes.
      Settings in the input file override this default.
   ... done

   Running with 60 MPI processes.
   There are 6 MPI processes running on the same node as the root process.
   Each MPI process is using: 
               1 threads for simulation cell FFTs.
               1 threads for parallel FFT box operations.
               4 threads for loops over batched FFT box operations.
               4 threads in other parallel regions.
... done

Basic input checks...... done

Reading geometry and species blocks from file "host_10361.dat" ...
  <species_atomic_set> block not found: NGWF initialisation set to SOLVE
IS: Dielectric excluded regions:
    - NONE.
    
  Number of PPD points along a3 set to 1.  This is 
  the default value, it may have been provided also in the input file.
... done
 Writing xyz coordinates to file "host_10361.xyz" ... done


--------------------------------------------------------------------------------
---------------------------------- INPUT FILE ----------------------------------
--------------------------------------------------------------------------------

cutoff_energy       : 800 eV                                                    
xc_functional VV10                                                              
task SINGLEPOINT                                                                
write_xyz true                                                                  
output_detail VERBOSE                                                           
ngwf_threshold_orig : 0.000002                                                  
kernel_cutoff       : 1000                                                      
k_zero              : 3.5                                                       
elec_cg_max 0                                                                   
occ_mix 1.0                                                                     
dispersion 0                                                                    
maxit_ngwf_cg 40                                                                
minit_lnv 10                                                                    
maxit_lnv 10                                                                    
write_denskern T                                                                
write_tightbox_ngwfs T                                                          
charge 9                                                                        
is_implicit_solvent T                                                           
is_auto_solvation T                                                             
is_include_apolar T                                                             
is_smeared_ion_rep T                                                            
is_solvent_surf_tension 4.7624E-5 Ha/bohr**2                                    
is_apolar_scaling_factor 0.281075                                               
is_solvation_beta 1.3                                                           
is_density_threshold 0.00035                                                    
is_bulk_permittivity 78.54                                                      
is_dielectric_model fix_initial                                                 
is_smeared_ion_width 0.8                                                        
mg_defco_fd_order 8                                                             
is_bc_coarseness 10                                                             
is_bc_surface_coarseness 1                                                      
fine_grid_scale 2.0                                                             
%block species                                                                  
N   N   7 4 8.0                                                                 
H   H   1 1 8.0                                                                 
C   C   6 4 8.0                                                                 
S   S  16 9 8.0                                                                 
O   O   8 4 8.0                                                                 
%endblock species                                                               
%block species_pot                                                              
N   N_00.recpot                                                                 
H   H_04.recpot                                                                 
C   C_01.recpot                                                                 
S   S_00.recpot                                                                 
O   O_02.recpot                                                                 
%endblock species_pot                                                           
%block lattice_cart                                                             
139.898   0.000   0.000                                                         
0.000 144.87   0.000                                                            
0.000   0.000   168.12                                                          
%endblock lattice_cart                                                          
%block positions_abs                                                            
     Hash =  -000007304039050781736615
%endblock positions_abs                                                         

--------------------------------------------------------------------------------
-------------------------------- END INPUT FILE --------------------------------
--------------------------------------------------------------------------------


 
 ESDF WARNING(1): "kernelcutoff" (esdf_physical) has no units. Assume "bohr".
 ESDF WARNING(2): "kzero" (esdf_physical) has no units. Assume "1/bohr".
 ESDF WARNING(3
 ): "issmearedionwidth" (esdf_physical) has no units. Assume "bohr".
<<<<<<<<<<<<<<<<<<<<<<<<<<<<<<<<< Full system >>>>>>>>>>>>>>>>>>>>>>>>>>>>>>>>>>
<<<<<<<<<<<<<<<<<<<<<<<<< Pseudopotential information >>>>>>>>>>>>>>>>>>>>>>>>>>
File: N_00.recpot [ 2001 points up to Gmax=  52.9 (1/bohr)]
  Atomic number:  7;  ionic charge:  5.000000
    Shell 1: l = 0; rc = 1.48 bohr
File: H_04.recpot [ 2001 points up to Gmax=  52.9 (1/bohr)]
  Atomic number:  1;  ionic charge:  1.000000
    Local potential
File: C_01.recpot [ 2001 points up to Gmax=  52.9 (1/bohr)]
  Atomic number:  6;  ionic charge:  4.000000
    Shell 1: l = 0; rc = 1.48 bohr
File: S_00.recpot [ 2001 points up to Gmax=  52.9 (1/bohr)]
  Atomic number: 16;  ionic charge:  6.000000
    Shell 1: l = 0; rc = 1.90 bohr
    Shell 2: l = 2; rc = 1.84 bohr
File: O_02.recpot [ 2001 points up to Gmax=  52.9 (1/bohr)]
  Atomic number:  8;  ionic charge:  6.000000
    Shell 1: l = 0; rc = 1.31 bohr
<<<<<<<<<<<<<<<<<<<<<<<<<<<<<<<<<<<<<<<<>>>>>>>>>>>>>>>>>>>>>>>>>>>>>>>>>>>>>>>>

-------------------------- Atom counting information ---------------------------
Symbol    Natoms    Nngwfs    Nprojs
  N        236       944       236
  H       1311      1311         0
  C        810      3240       810
  S          6        54        36
  O        239       956       239
.......   ......    ......    ......
Totals:   2602      6505      1321
--------------------------------------------------------------------------------

=============================== PSINC grid sizes ===============================
                      Simulation cell:  275 x 286 x 336
                              FFT-box:   99 x  99 x  99
                                  PPD:    5 x  11 x   1
Grid space d1=  0.508720000000a0 (KE cutoff=  29.35259Eh = 798.72452eV)
Grid space d2=  0.506538461538a0 (KE cutoff=  29.60596Eh = 805.61916eV)
Grid space d3=  0.500357142857a0 (KE cutoff=  30.34197Eh = 825.64705eV)
================================================================================

********************* Fourier parallelisation information **********************
       Coarse grid (whole simulation cell) dimensions:    275   286   336
          Real-space ('12') slabs/node (min max mean):      5     6     5
         Recip-space ('23') slabs/node (min max mean):      2     3     2
********************************************************************************

********************* Fourier parallelisation information **********************
       Double grid (whole simulation cell) dimensions:    550   572   672
          Real-space ('12') slabs/node (min max mean):     11    12    11
         Recip-space ('23') slabs/node (min max mean):      4     5     4
********************************************************************************
ONETEP fine grid is 550 x 572 x 672 gridpoints, 139.8980 x 144.8700 x 168.1200 bohr.
FD multigrid is     545 x 569 x 665 gridpoints, 138.6262 x 144.1102 x 166.3688 bohr.


Calculating local pseudopotential in open BC on a radial grid ...
Discrepancy between calculated realspace psloc and -Z/x on [5a0,262.342a0]:
max |rel. diff| # avg |rel. diff| #  avg rel. diff #  f # pseudopotential file
 0.000258413739    0.000003708905   0.000000070960   56  'N_00.recpot'
 0.000398954828    0.000016185045  -0.000000074508   56  'H_04.recpot'
 0.000375346405    0.000017198923   0.000000144535   56  'C_01.recpot'
 0.000466850533    0.000020125278   0.000000461745   56  'S_00.recpot'
 0.000671508953    0.000026045986   0.000000155458   56  'O_02.recpot'
... done

Atom SCF Calculation for N  : Z (AE atom) =   7 : Z (PS atom) =   5
Config String:
Orbitals (num,occ):  2     2.00 3.00
Orbitals   (num,l):  2        0    1
Real-space Grid (nr,dr,rmax): 1203    0.0066555740    8.0000000000
Spherical Bessel Basis (nsws,lmax,cutoff):   47    1  176.3951722778
Confining potential (l,width,scale):  0    3.0000000000  100.0000000000
Confining potential (l,width,scale):  1    3.0000000000  100.0000000000
  1         -4.7366890484   -3.4501654188    7.0523828109   -1.9619316308
  2         -9.7225420322   -2.0763080851    8.3068355706   -2.2908832437
  3         -9.7134243553   -2.1270543915    8.2534567806   -2.2819809971
  4         -9.7235185949   -2.1427582218    8.2369947390   -2.2802814234
  5         -9.7258373845   -2.1477905863    8.2317116314   -2.2798536235
  6         -9.7268932325   -2.1503512400    8.2290229806   -2.2796830099
  7         -9.7273189469   -2.1516634231    8.2276451699   -2.2796169657
  8         -9.7274675212   -2.1523365544    8.2269384796   -2.2795940092
  9         -9.7275041773   -2.1526817003    8.2265762312   -2.2795881371
 10         -9.7275008637   -2.1528585007    8.2263907413   -2.2795884060
 11         -9.7274868305   -2.1529489544    8.2262958841   -2.2795903922
 12         -9.7274755655   -2.1529859230    8.2262571347   -2.2795920452
 13         -9.7274662327   -2.1530083995    8.2262335832   -2.2795934369
 14         -9.7274589439   -2.1530220534    8.2262192809   -2.2795945372
 15         -9.7274534633   -2.1530303399    8.2262106039   -2.2795953734
 16         -9.7274494492   -2.1530353634    8.2262053452   -2.2795959920
 17         -9.7274465654   -2.1530384053    8.2262021621   -2.2795964406
 18         -9.7274445237   -2.1530402447    8.2262002378   -2.2795967611
 19         -9.7274430947   -2.1530413553    8.2261990762   -2.2795969874
 20         -9.7274421038   -2.1530420249    8.2261983762   -2.2795971458
 21         -9.7274414219   -2.1530424277    8.2261979551   -2.2795972557
 22         -9.7274409555   -2.1530426696    8.2261977024   -2.2795973315
 23         -9.7274406382   -2.1530428144    8.2261975510   -2.2795973835
 24         -9.7274404232   -2.1530429010    8.2261974606   -2.2795974190
 25         -9.7274402783   -2.1530429525    8.2261974067   -2.2795974432
 26         -9.7274401808   -2.1530429831    8.2261973748   -2.2795974596
Atom SCF converged after  26 iterations to a total energy of     -9.72744018

Atom SCF Calculation for H  : Z (AE atom) =   1 : Z (PS atom) =   1
Config String:
Orbitals (num,occ):  1     1.00
Orbitals   (num,l):  1        0
Real-space Grid (nr,dr,rmax): 1203    0.0066555740    8.0000000000
Spherical Bessel Basis (nsws,lmax,cutoff):   47    0  176.3951722778
Confining potential (l,width,scale):  0    3.0000000000  100.0000000000
  1         -0.3178661827   -0.2469879004    0.2820953124   -0.2487802071
  2         -0.3961824611   -0.2455070831    0.2902209900   -0.2567664324
  3         -0.4406462424   -0.2424227551    0.2948173255   -0.2622129794
  4         -0.4569739054   -0.2416771342    0.2960118236   -0.2639986016
  5         -0.4627745219   -0.2416114401    0.2961916694   -0.2644992007
  6         -0.4648634749   -0.2416666130    0.2961598921   -0.2646237065
  7         -0.4656347011   -0.2417155160    0.2961132802   -0.2646490719
  8         -0.4659271144   -0.2417438448    0.2960836537   -0.2646515522
  9         -0.4660407254   -0.2417580788    0.2960682004   -0.2646501482
 10         -0.4660857867   -0.2417647566    0.2960608087   -0.2646488305
 11         -0.4661039568   -0.2417677717    0.2960574330   -0.2646480606
 12         -0.4661113773   -0.2417691018    0.2960559329   -0.2646476727
 13         -0.4661144368   -0.2417696800    0.2960552775   -0.2646474903
 14         -0.4661157072   -0.2417699291    0.2960549942   -0.2646474079
 15         -0.4661162374   -0.2417700356    0.2960548727   -0.2646473715
 16         -0.4661164596   -0.2417700810    0.2960548208   -0.2646473556
 17         -0.4661165529   -0.2417701003    0.2960547987   -0.2646473488
Atom SCF converged after  17 iterations to a total energy of     -0.46611655

Atom SCF Calculation for C  : Z (AE atom) =   6 : Z (PS atom) =   4
Config String:
Orbitals (num,occ):  2     2.00 2.00
Orbitals   (num,l):  2        0    1
Real-space Grid (nr,dr,rmax): 1203    0.0066555740    8.0000000000
Spherical Bessel Basis (nsws,lmax,cutoff):   47    1  176.3951722778
Confining potential (l,width,scale):  0    3.0000000000  100.0000000000
Confining potential (l,width,scale):  1    3.0000000000  100.0000000000
  1         -5.2812238291   -1.3293161250    4.5135249990   -1.4716766231
  2         -5.3996591362   -1.3542148509    4.4876064308   -1.4645117417
  3         -5.4111847148   -1.3757224423    4.4645718036   -1.4593107263
  4         -5.4199203659   -1.3833334895    4.4563636676   -1.4579885221
  5         -5.4226876204   -1.3865104950    4.4529090432   -1.4575385943
  6         -5.4235070726   -1.3878131251    4.4514866831   -1.4573882877
  7         -5.4237271252   -1.3883401868    4.4509094528   -1.4573411661
  8         -5.4237693051   -1.3885521813    4.4506766230   -1.4573281030
  9         -5.4237656430   -1.3886371046    4.4505830704   -1.4573255254
 10         -5.4237547927   -1.3886709976    4.4505456041   -1.4573257244
 11         -5.4237478594   -1.3886817763    4.4505336403   -1.4573262476
 12         -5.4237429748   -1.3886873440    4.4505274417   -1.4573266921
 13         -5.4237397042   -1.3886902144    4.4505242350   -1.4573270222
 14         -5.4237375865   -1.3886916908    4.4505225792   -1.4573272507
 15         -5.4237362473   -1.3886924482    4.4505217259   -1.4573274021
 16         -5.4237354152   -1.3886928356    4.4505212873   -1.4573274996
 17         -5.4237349050   -1.3886930331    4.4505210623   -1.4573275610
 18         -5.4237345954   -1.3886931333    4.4505209473   -1.4573275991
 19         -5.4237344092   -1.3886931840    4.4505208887   -1.4573276224
 20         -5.4237342980   -1.3886932094    4.4505208590   -1.4573276366
 21         -5.4237342320   -1.3886932221    4.4505208440   -1.4573276451
Atom SCF converged after  21 iterations to a total energy of     -5.42373423

Atom SCF Calculation for S  : Z (AE atom) =  16 : Z (PS atom) =   6
Config String:
Orbitals (num,occ):  3     2.00 4.00 0.00
Orbitals   (num,l):  3        0    1    2
Real-space Grid (nr,dr,rmax): 1203    0.0066555740    8.0000000000
Spherical Bessel Basis (nsws,lmax,cutoff):   47    2  176.3951722778
Confining potential (l,width,scale):  0    3.0000000000  100.0000000000
Confining potential (l,width,scale):  1    3.0000000000  100.0000000000
Confining potential (l,width,scale):  2    3.0000000000  100.0000000000
  1        -12.4916237786   -1.0485914554   10.1554312477   -2.4822447765
  2         -9.9747083603   -2.4807597367    8.3138131863   -2.0618837268
  3        -10.1811370131   -2.3153496392    8.4906092179   -2.1137756843
  4        -10.1856385898   -2.2984912006    8.5093862195   -2.1218167101
  5        -10.1891317560   -2.2894783333    8.5195006030   -2.1261392389
  6        -10.1911142562   -2.2849160124    8.5246320974   -2.1283733378
  7        -10.1921506977   -2.2826473329    8.5271859473   -2.1295140514
  8        -10.1926851273   -2.2815219985    8.5284534218   -2.1300957983
  9        -10.1929632671   -2.2809620806    8.5290843811   -2.1303933136
 10        -10.1931100895   -2.2806822783    8.5293998452   -2.1305460626
 11        -10.1931885828   -2.2805418782    8.5295582201   -2.1306248009
 12        -10.1932309625   -2.2804711729    8.5296380158   -2.1306655459
 13        -10.1932540142   -2.2804354512    8.5296783476   -2.1306867097
 14        -10.1932666242   -2.2804173494    8.5296987927   -2.1306977435
 15        -10.1932735535   -2.2804081489    8.5297091868   -2.1307035175
 16        -10.1932773756   -2.2804034581    8.5297144867   -2.1307065505
 17        -10.1932794908   -2.2804010586    8.5297171976   -2.1307081499
 18        -10.1932806648   -2.2803998268    8.5297185890   -2.1307089965
 19        -10.1932813181   -2.2803991920    8.5297193057   -2.1307094466
 20        -10.1932816826   -2.2803988634    8.5297196763   -2.1307096867
 21        -10.1932818864   -2.2803986926    8.5297198688   -2.1307098154
 22        -10.1932820006   -2.2803986034    8.5297199692   -2.1307098847
 23        -10.1932820648   -2.2803985565    8.5297200219   -2.1307099221
Atom SCF converged after  23 iterations to a total energy of    -10.19328206

Atom SCF Calculation for O  : Z (AE atom) =   8 : Z (PS atom) =   6
Config String:
Orbitals (num,occ):  2     2.00 4.00
Orbitals   (num,l):  2        0    1
Real-space Grid (nr,dr,rmax): 1203    0.0066555740    8.0000000000
Spherical Bessel Basis (nsws,lmax,cutoff):   47    1  176.3951722778
Confining potential (l,width,scale):  0    3.0000000000  100.0000000000
Confining potential (l,width,scale):  1    3.0000000000  100.0000000000
  1         -1.9497477053   -7.5870966769   10.1554312477   -2.4822447765
  2        -15.9466298225   -3.1778351734   13.6353006614   -3.2931224232
  3        -16.0387051750   -3.0909030611   13.7305651010   -3.3194522996
  4        -15.9025031450   -3.1083023605   13.7128101414   -3.3180850501
  5        -15.8912953362   -3.1033022259   13.7185404266   -3.3206942093
  6        -15.8793912992   -3.1043100674   13.7175820250   -3.3209366960
  7        -15.8748748605   -3.1043975610   13.7175531476   -3.3211845618
  8        -15.8725354084   -3.1044655610   13.7175148333   -3.3213149154
  9        -15.8713193866   -3.1045129589   13.7174824743   -3.3213832909
 10        -15.8706863385   -3.1045436851   13.7174593895   -3.3214192053
 11        -15.8703562731   -3.1045627330   13.7174442347   -3.3214381098
 12        -15.8701839150   -3.1045741887   13.7174347673   -3.3214480859
 13        -15.8700937727   -3.1045809294   13.7174290448   -3.3214533647
 14        -15.8700465571   -3.1045848305   13.7174256662   -3.3214561658
 15        -15.8700217888   -3.1045870593   13.7174237063   -3.3214576563
 16        -15.8700087767   -3.1045883194   13.7174225849   -3.3214584516
 17        -15.8700019307   -3.1045890258   13.7174219502   -3.3214588771
 18        -15.8699983237   -3.1045894190   13.7174215942   -3.3214591053
 19        -15.8699964206   -3.1045896366   13.7174213960   -3.3214592281
 20        -15.8699954151   -3.1045897563   13.7174212864   -3.3214592942
 21        -15.8699948832   -3.1045898219   13.7174212260   -3.3214593299
 22        -15.8699946014   -3.1045898577   13.7174211930   -3.3214593493
 23        -15.8699944520   -3.1045898771   13.7174211750   -3.3214593597
 24        -15.8699943726   -3.1045898877   13.7174211652   -3.3214593654
Atom SCF converged after  24 iterations to a total energy of    -15.86999437

========================== Calculation in vacuum ==============================
= Adjusting the following parameters: 
= is_implicit_solvent: F
= is_include_apolar: F
= write_denskern: T
= write_tightbox_ngwfs: T
= restart read filename prefix: ""
= restart write filename prefix: "vacuum_"
===============================================================================

Determining parallel strategy ...
... using space-filling curve
... NGWF load balancing: max    109;  min    108;  average    108
... Projector load balancing: max     25;  min     21;  average     22
... done
Calculating direct Ion-Ion energy ...
Ion-Ion Energy        :    822209.73539580544457
Basis initialisation ...... NGWF spheres initialised
... Projector spheres initialised
... NGWF tight boxes initialised
... Tight-boxes gathered
... NGWF basis size (local,global):    1030012  62099035
... Nonlocal pseudopotential projector initialisation
... done

========================== Sparse matrix information ===========================
                        Overlap matrix filling:   6.73%
                        Density kernel filling: 100.00%
              NGWF-Proj overlap matrix filling:   1.80%
                    Hamiltonian matrix filling:   7.62%
                  NGWF diagonal matrix filling:   0.05%
                             KS matrix filling: 100.00% 
                           KSKS matrix filling: 100.00% 
================================================================================

Sparse matrix initialisation ... done

Generating smeared ion density ... done
Smeared ion self correction:     -14457.169564
Smeared ion non-self correction: -822161.761903
NGWF initialisation ...... done
============ Calculation of NGWF S^-1 using Hotelling algorithm ================ 
         Iteration  |  Frobenius norm and Maximum abs value    (of I-S*S_n^-1)   
               1       0.78496564E+02     0.98275147E+00
               2       0.76655060E+02     0.96595245E+00
               3       0.73665305E+02     0.93361907E+00
               4       0.69403310E+02     0.87350860E+00
               5       0.64085619E+02     0.77009133E+00
               6       0.58108461E+02     0.70130616E+00
               7       0.52098289E+02     0.66915718E+00
               8       0.46540171E+02     0.64361242E+00
               9       0.40463810E+02     0.60484015E+00
              10       0.32192204E+02     0.53952356E+00
              11       0.21629146E+02     0.43339617E+00
              12       0.11062802E+02     0.29791361E+00
              13       0.36684248E+01     0.14557016E+00
              14       0.59003285E+00     0.36136294E-01
              15       0.29145440E-01     0.24810983E-02
              16       0.16112008E-03     0.18256862E-04
              17       0.78120840E-08     0.10451304E-08
              18       0.95464219E-13     0.53290705E-14
================================================================================
Calculating local pseudopotential in open BC on the fine real space grid ...
... done

MG BCs: +ve charge blocks (gridpoints):     20160 (   15854824).
MG BCs: -ve charge blocks (gridpoints):      7970 (    1074548).
MG BCs:     Elided blocks (gridpoints):    189885 (  189290453).
MG BCs: Computational effort saved:  99.9864%.
MG BCs: Charge after coarse-graining:           -9.0002224.
MG DL_MG: Calling solver with defect correction order = 8
MG DL_MG: Solver finished
MG Hartree energy from (\int phi*rho dr):              1452.235200
MG Hartree energy from (\int eps (grad phi)^2 dr):     1451.622880
MG Discrepancy due to finite box and discretization:     -0.612320 (  -0.04216%)
MG Correction to account for finite box:                  0.454971
MG Remaining discrepancy, due to discretization:         -0.157349 (  -0.01083%)
Up spin density kernel initialisation ... 
======= Optimisation of K by Palser-Manolopoulos canonical purification ======== 
         Iteration  |  Band structure energy |    c_n   
               1       -2576.18202645078145    0.5263205
               2       -2752.09383806666528    0.5169153
               3       -2931.48034967642252    0.5161494
               4       -3079.94134074323347    0.5309862
               5       -3169.98096597380254    0.5685023
               6       -3207.11839579137722    0.6129439
               7       -3219.81649799972820    0.6231673
               8       -3225.44229078059880    0.6240262
               9       -3228.14941551798120    0.6417920
              10       -3229.25995070578028    0.6622916
              11       -3229.71086529259583    0.6587628
              12       -3229.92948109560211    0.6193648
              13       -3230.05337657251130    0.5388580
              14       -3230.12116607573989    0.3904198
              15       -3230.13443363161423    0.3002459
              16       -3230.13541047951367    0.3095911
              17       -3230.13599921140940    0.3466182
              18       -3230.13658720117382    0.3906738
              19       -3230.13716205880564    0.4366957
              20       -3230.13763189890142    0.4756243
              21       -3230.13788059562557    0.4959440
              22       -3230.13793309182392    0.4998812
              23       -3230.13793501978989    0.5000036
              24       -3230.13793502231692    0.5000036
Termination criterion satisfied: band energy change below threshold.
Final occupancy bounds: [    0.00000000000000:    1.00000000000000]
Closest occupancy to 0.5:     1.00000000000000
================================================================================
... done

Writing density kernel to file "host_10361.vacuum_dkn" ... done

>>> Optimising kernel for current NGWFs:
   Initial electron number for spin 1:    7192.00000000
     Final electron number for spin 1:    7192.00000000

=================== Penalty functional idempotency correction ==================
 RMS occupancy error at iteration   1:  0.000000 (step -0.5000 Ne1=   7192.0000)
            Final RMS occupancy error   :  0.000000 (Ne1=   7192.0000)
               Final occupancy bounds   : [ -0.0000,  1.0000]
================================================================================

................................................................................
<<<<<<<<<<<<<< LNV (Original version) density kernel optimisation >>>>>>>>>>>>>>
~~~~~~~~~~~~~~~~~~~~~~~~~~~~~~~~~~~~~~~~~~~~~~~~~~~~~~~~~~~~~~~~~~~~~~~~~~~~~~~~
   iter  |      energy (Eh)       | rms gradient |  commutator  |   dE (Eh)
MG BCs: +ve charge blocks (gridpoints):     30857 (   17060810).
MG BCs: -ve charge blocks (gridpoints):      8321 (    1103735).
MG BCs:     Elided blocks (gridpoints):    179174 (  188055280).
MG BCs: Computational effort saved:  99.9810%.
MG BCs: Charge after coarse-graining:           -9.0009719.
MG DL_MG: Calling solver with defect correction order = 8
MG DL_MG: Solver finished
MG Hartree energy from (\int phi*rho dr):              1416.884534
MG Hartree energy from (\int eps (grad phi)^2 dr):     1416.218378
MG Discrepancy due to finite box and discretization:     -0.666156 (  -0.04702%)
MG Correction to account for finite box:                  0.465707
MG Remaining discrepancy, due to discretization:         -0.200448 (  -0.01415%)
      ideal mu1:      -0.707683177699
             Q0:  -11522.917165905237
             G0:    -149.326616019513
   RMS gradient:       0.001878543736
MG BCs: +ve charge blocks (gridpoints):     30856 (   17136631).
MG BCs: -ve charge blocks (gridpoints):      8209 (    1086793).
MG BCs:     Elided blocks (gridpoints):    179177 (  187996401).
MG BCs: Computational effort saved:  99.9811%.
MG BCs: Charge after coarse-graining:           -9.0009926.
MG DL_MG: Calling solver with defect correction order = 8
MG DL_MG: Solver finished
MG Hartree energy from (\int phi*rho dr):              1436.076854
MG Hartree energy from (\int eps (grad phi)^2 dr):     1435.427553
MG Discrepancy due to finite box and discretization:     -0.649300 (  -0.04521%)
MG Correction to account for finite box:                  0.465474
MG Remaining discrepancy, due to discretization:         -0.183826 (  -0.01280%)
     Trial step:       0.500000000000
             Q1:  -11534.872084120056
 Quadratic coef:      62.708389794938
 Linear coef   :     -74.663308009757
           Qmin:  -11545.141502956425
Quadratic minimum step length (  0.297660760601) accepted
    Initial Ne1:    7192.00000000
      Final Ne1:    7192.00000000

=================== Penalty functional idempotency correction ==================
 RMS occupancy error at iteration   1:  0.003594 (step -0.4877 Ne1=   7192.0000)
 RMS occupancy error at iteration   2:  0.000029 (step -0.5001 Ne1=   7192.0000)
            Final RMS occupancy error   :  0.000000 (Ne1=   7192.0000)
               Final occupancy bounds   : [  0.0000,  1.0000]
================================================================================

    1        -1.152291716591E+04     1.8785E-03     1.6991E-03
MG BCs: +ve charge blocks (gridpoints):     30849 (   17107346).
MG BCs: -ve charge blocks (gridpoints):      8245 (    1094107).
MG BCs:     Elided blocks (gridpoints):    179184 (  188018372).
MG BCs: Computational effort saved:  99.9810%.
MG BCs: Charge after coarse-graining:           -9.0009841.
MG DL_MG: Calling solver with defect correction order = 8
MG DL_MG: Solver finished
MG Hartree energy from (\int phi*rho dr):              1420.103854
MG Hartree energy from (\int eps (grad phi)^2 dr):     1419.448820
MG Discrepancy due to finite box and discretization:     -0.655034 (  -0.04613%)
MG Correction to account for finite box:                  0.465394
MG Remaining discrepancy, due to discretization:         -0.189640 (  -0.01335%)
      ideal mu1:      -0.748395997144
             Q0:  -11545.590665733442
             G0:     -12.537069352163
   RMS gradient:       0.000540360271
MG BCs: +ve charge blocks (gridpoints):     30848 (   17123478).
MG BCs: -ve charge blocks (gridpoints):      8222 (    1089530).
MG BCs:     Elided blocks (gridpoints):    179185 (  188006817).
MG BCs: Computational effort saved:  99.9811%.
MG BCs: Charge after coarse-graining:           -9.0009879.
MG DL_MG: Calling solver with defect correction order = 8
MG DL_MG: Solver finished
MG Hartree energy from (\int phi*rho dr):              1424.235636
MG Hartree energy from (\int eps (grad phi)^2 dr):     1423.584521
MG Discrepancy due to finite box and discretization:     -0.651116 (  -0.04572%)
MG Correction to account for finite box:                  0.464816
MG Remaining discrepancy, due to discretization:         -0.186300 (  -0.01308%)
     Trial step:       0.385785407060
             Q1:  -11548.557403979707
 Quadratic coef:       1.869880157101
 Linear coef   :      -4.836618403366
           Qmin:  -11548.718256222457
Quadratic minimum step length (  0.498934862871) accepted
    Initial Ne1:    7191.99987168
      Final Ne1:    7192.00000000

=================== Penalty functional idempotency correction ==================
 RMS occupancy error at iteration   1:  0.001952 (step -0.4923 Ne1=   7192.0000)
 RMS occupancy error at iteration   2:  0.000014 (step -0.5003 Ne1=   7192.0000)
            Final RMS occupancy error   :  0.000000 (Ne1=   7192.0000)
               Final occupancy bounds   : [  0.0000,  1.0000]
================================================================================

    2        -1.154559066573E+04     5.4036E-04     4.8874E-04    -2.2673E+01
MG BCs: +ve charge blocks (gridpoints):     30859 (   17128135).
MG BCs: -ve charge blocks (gridpoints):      8211 (    1088188).
MG BCs:     Elided blocks (gridpoints):    179174 (  188003502).
MG BCs: Computational effort saved:  99.9811%.
MG BCs: Charge after coarse-graining:           -9.0009891.
MG DL_MG: Calling solver with defect correction order = 8
MG DL_MG: Solver finished
MG Hartree energy from (\int phi*rho dr):              1425.500584
MG Hartree energy from (\int eps (grad phi)^2 dr):     1424.850526
MG Discrepancy due to finite box and discretization:     -0.650058 (  -0.04560%)
MG Correction to account for finite box:                  0.464666
MG Remaining discrepancy, due to discretization:         -0.185392 (  -0.01301%)
      ideal mu1:      -0.771063076607
             Q0:  -11548.759215366561
             G0:      -1.997606084515
   RMS gradient:       0.000215851634
MG BCs: +ve charge blocks (gridpoints):     30858 (   17127881).
MG BCs: -ve charge blocks (gridpoints):      8223 (    1088873).
MG BCs:     Elided blocks (gridpoints):    179175 (  188003071).
MG BCs: Computational effort saved:  99.9810%.
MG BCs: Charge after coarse-graining:           -9.0009888.
MG DL_MG: Calling solver with defect correction order = 8
MG DL_MG: Solver finished
MG Hartree energy from (\int phi*rho dr):              1423.785310
MG Hartree energy from (\int eps (grad phi)^2 dr):     1423.135578
MG Discrepancy due to finite box and discretization:     -0.649732 (  -0.04563%)
MG Correction to account for finite box:                  0.464479
MG Remaining discrepancy, due to discretization:         -0.185253 (  -0.01301%)
     Trial step:       0.438727465711
             Q1:  -11549.275486158906
 Quadratic coef:       0.360133862603
 Linear coef   :      -0.876404654948
           Qmin:  -11549.292409547235
Quadratic minimum step length (  0.533833156404) accepted
    Initial Ne1:    7191.99988169
      Final Ne1:    7192.00000000

=================== Penalty functional idempotency correction ==================
 RMS occupancy error at iteration   1:  0.000687 (step -0.4968 Ne1=   7192.0000)
 RMS occupancy error at iteration   2:  0.000003 (step -0.5000 Ne1=   7192.0000)
            Final RMS occupancy error   :  0.000000 (Ne1=   7192.0000)
               Final occupancy bounds   : [  0.0000,  1.0000]
================================================================================

    3        -1.154875921537E+04     2.1585E-04     1.9523E-04    -3.1685E+00
MG BCs: +ve charge blocks (gridpoints):     30857 (   17127631).
MG BCs: -ve charge blocks (gridpoints):      8227 (    1089110).
MG BCs:     Elided blocks (gridpoints):    179176 (  188003084).
MG BCs: Computational effort saved:  99.9810%.
MG BCs: Charge after coarse-graining:           -9.0009889.
MG DL_MG: Calling solver with defect correction order = 8
MG DL_MG: Solver finished
MG Hartree energy from (\int phi*rho dr):              1423.421432
MG Hartree energy from (\int eps (grad phi)^2 dr):     1422.771758
MG Discrepancy due to finite box and discretization:     -0.649674 (  -0.04564%)
MG Correction to account for finite box:                  0.464440
MG Remaining discrepancy, due to discretization:         -0.185234 (  -0.01301%)
      ideal mu1:      -0.772152330995
             Q0:  -11549.297952611581
             G0:      -0.546751698775
   RMS gradient:       0.000113007597
MG BCs: +ve charge blocks (gridpoints):     30849 (   17128691).
MG BCs: -ve charge blocks (gridpoints):      8223 (    1089050).
MG BCs:     Elided blocks (gridpoints):    179184 (  188002084).
MG BCs: Computational effort saved:  99.9811%.
MG BCs: Charge after coarse-graining:           -9.0009889.
MG DL_MG: Calling solver with defect correction order = 8
MG DL_MG: Solver finished
MG Hartree energy from (\int phi*rho dr):              1424.590315
MG Hartree energy from (\int eps (grad phi)^2 dr):     1423.940668
MG Discrepancy due to finite box and discretization:     -0.649647 (  -0.04560%)
MG Correction to account for finite box:                  0.464341
MG Remaining discrepancy, due to discretization:         -0.185306 (  -0.01301%)
     Trial step:       0.483949654222
             Q1:  -11549.431336467154
 Quadratic coef:       0.131216439995
 Linear coef   :      -0.264600295567
           Qmin:  -11549.431345417424
Quadratic minimum step length (  0.487946562000) accepted
    Initial Ne1:    7191.99997038
      Final Ne1:    7192.00000000

=================== Penalty functional idempotency correction ==================
 RMS occupancy error at iteration   1:  0.000295 (step -0.4970 Ne1=   7192.0000)
 RMS occupancy error at iteration   2:  0.000002 (step -0.5000 Ne1=   7192.0000)
            Final RMS occupancy error   :  0.000000 (Ne1=   7192.0000)
               Final occupancy bounds   : [  0.0000,  1.0000]
================================================================================

    4        -1.154929795261E+04     1.1301E-04     1.0221E-04    -5.3874E-01
MG BCs: +ve charge blocks (gridpoints):     30850 (   17128711).
MG BCs: -ve charge blocks (gridpoints):      8223 (    1089042).
MG BCs:     Elided blocks (gridpoints):    179183 (  188002072).
MG BCs: Computational effort saved:  99.9811%.
MG BCs: Charge after coarse-graining:           -9.0009889.
MG DL_MG: Calling solver with defect correction order = 8
MG DL_MG: Solver finished
MG Hartree energy from (\int phi*rho dr):              1424.600454
MG Hartree energy from (\int eps (grad phi)^2 dr):     1423.950807
MG Discrepancy due to finite box and discretization:     -0.649647 (  -0.04560%)
MG Correction to account for finite box:                  0.464340
MG Remaining discrepancy, due to discretization:         -0.185307 (  -0.01301%)
      ideal mu1:      -0.772514297328
             Q0:  -11549.432114997413
             G0:      -0.195132292797
   RMS gradient:       0.000067723750
MG BCs: +ve charge blocks (gridpoints):     30851 (   17129082).
MG BCs: -ve charge blocks (gridpoints):      8216 (    1088789).
MG BCs:     Elided blocks (gridpoints):    179182 (  188001954).
MG BCs: Computational effort saved:  99.9811%.
MG BCs: Charge after coarse-graining:           -9.0009888.
MG DL_MG: Calling solver with defect correction order = 8
MG DL_MG: Solver finished
MG Hartree energy from (\int phi*rho dr):              1425.024944
MG Hartree energy from (\int eps (grad phi)^2 dr):     1424.375135
MG Discrepancy due to finite box and discretization:     -0.649810 (  -0.04560%)
MG Correction to account for finite box:                  0.464325
MG Remaining discrepancy, due to discretization:         -0.185484 (  -0.01302%)
     Trial step:       0.485943998789
             Q1:  -11549.494983524084
 Quadratic coef:       0.031954839984
 Linear coef   :      -0.094823366655
           Qmin:  -11549.502460138150
Quadratic minimum step length (  0.720999479171) accepted
    Initial Ne1:    7191.99998431
      Final Ne1:    7192.00000000

=================== Penalty functional idempotency correction ==================
 RMS occupancy error at iteration   1:  0.000436 (step -0.4815 Ne1=   7192.0000)
 RMS occupancy error at iteration   2:  0.000008 (step -0.5000 Ne1=   7192.0000)
            Final RMS occupancy error   :  0.000000 (Ne1=   7192.0000)
               Final occupancy bounds   : [  0.0000,  1.0000]
================================================================================

    5        -1.154943211500E+04     6.7724E-05     6.1255E-05    -1.3416E-01
MG BCs: +ve charge blocks (gridpoints):     30857 (   17129335).
MG BCs: -ve charge blocks (gridpoints):      8211 (    1088639).
MG BCs:     Elided blocks (gridpoints):    179176 (  188001851).
MG BCs: Computational effort saved:  99.9811%.
MG BCs: Charge after coarse-graining:           -9.0009887.
MG DL_MG: Calling solver with defect correction order = 8
MG DL_MG: Solver finished
MG Hartree energy from (\int phi*rho dr):              1425.227552
MG Hartree energy from (\int eps (grad phi)^2 dr):     1424.577662
MG Discrepancy due to finite box and discretization:     -0.649890 (  -0.04560%)
MG Correction to account for finite box:                  0.464319
MG Remaining discrepancy, due to discretization:         -0.185570 (  -0.01302%)
      ideal mu1:      -0.772735012565
             Q0:  -11549.501952257706
             G0:      -0.182694065660
   RMS gradient:       0.000066090943
MG BCs: +ve charge blocks (gridpoints):     30856 (   17128425).
MG BCs: -ve charge blocks (gridpoints):      8213 (    1089058).
MG BCs:     Elided blocks (gridpoints):    179177 (  188002342).
MG BCs: Computational effort saved:  99.9811%.
MG BCs: Charge after coarse-graining:           -9.0009885.
MG DL_MG: Calling solver with defect correction order = 8
MG DL_MG: Solver finished
MG Hartree energy from (\int phi*rho dr):              1423.849388
MG Hartree energy from (\int eps (grad phi)^2 dr):     1423.199454
MG Discrepancy due to finite box and discretization:     -0.649934 (  -0.04565%)
MG Correction to account for finite box:                  0.464359
MG Remaining discrepancy, due to discretization:         -0.185575 (  -0.01303%)
     Trial step:       0.591916691801
             Q1:  -11549.584633391816
 Quadratic coef:       0.025458532848
 Linear coef   :      -0.108139666957
           Qmin:  -11549.616787896897
Quadratic minimum step length (  1.257135953219) accepted
    Initial Ne1:    7191.99995150
      Final Ne1:    7192.00000000

=================== Penalty functional idempotency correction ==================
 RMS occupancy error at iteration   1:  0.003758 (step -0.3500 Ne1=   7192.0000)
 RMS occupancy error at iteration   2:  0.000170 (step -0.4992 Ne1=   7192.0000)
 RMS occupancy error at iteration   3:  0.000001 (step -0.5000 Ne1=   7192.0000)
            Final RMS occupancy error   :  0.000000 (Ne1=   7192.0000)
               Final occupancy bounds   : [  0.0000,  1.0000]
================================================================================

    6        -1.154950195226E+04     6.6091E-05     5.9778E-05    -6.9837E-02
MG BCs: +ve charge blocks (gridpoints):     30854 (   17127492).
MG BCs: -ve charge blocks (gridpoints):      8213 (    1089538).
MG BCs:     Elided blocks (gridpoints):    179179 (  188002795).
MG BCs: Computational effort saved:  99.9811%.
MG BCs: Charge after coarse-graining:           -9.0009882.
MG DL_MG: Calling solver with defect correction order = 8
MG DL_MG: Solver finished
MG Hartree energy from (\int phi*rho dr):              1422.312005
MG Hartree energy from (\int eps (grad phi)^2 dr):     1421.662027
MG Discrepancy due to finite box and discretization:     -0.649978 (  -0.04570%)
MG Correction to account for finite box:                  0.464399
MG Remaining discrepancy, due to discretization:         -0.185579 (  -0.01305%)
      ideal mu1:      -0.772664548480
             Q0:  -11549.591407986009
             G0:      -0.365309178086
   RMS gradient:       0.000092914392
MG BCs: +ve charge blocks (gridpoints):     30850 (   17130687).
MG BCs: -ve charge blocks (gridpoints):      8213 (    1088114).
MG BCs:     Elided blocks (gridpoints):    179182 (  188001024).
MG BCs: Computational effort saved:  99.9811%.
MG BCs: Charge after coarse-graining:           -9.0009893.
MG DL_MG: Calling solver with defect correction order = 8
MG DL_MG: Solver finished
MG Hartree energy from (\int phi*rho dr):              1426.227531
MG Hartree energy from (\int eps (grad phi)^2 dr):     1425.577896
MG Discrepancy due to finite box and discretization:     -0.649634 (  -0.04555%)
MG Correction to account for finite box:                  0.464289
MG Remaining discrepancy, due to discretization:         -0.185345 (  -0.01300%)
     Trial step:       0.862623761888
             Q1:  -11549.669942948152
 Quadratic coef:       0.236589415308
 Linear coef   :      -0.315124377452
           Qmin:  -11549.696340166867
Quadratic minimum step length (  0.574484229539) accepted
    Initial Ne1:    7191.99999991
      Final Ne1:    7192.00000000

=================== Penalty functional idempotency correction ==================
 RMS occupancy error at iteration   1:  0.000124 (step -0.4933 Ne1=   7192.0000)
 RMS occupancy error at iteration   2:  0.000001 (step -0.5000 Ne1=   7192.0000)
            Final RMS occupancy error   :  0.000000 (Ne1=   7192.0000)
               Final occupancy bounds   : [  0.0000,  1.0000]
================================================================================

    7        -1.154959140799E+04     9.2914E-05     8.4039E-05    -8.9456E-02
MG BCs: +ve charge blocks (gridpoints):     30853 (   17129553).
MG BCs: -ve charge blocks (gridpoints):      8213 (    1088659).
MG BCs:     Elided blocks (gridpoints):    179180 (  188001613).
MG BCs: Computational effort saved:  99.9811%.
MG BCs: Charge after coarse-graining:           -9.0009889.
MG DL_MG: Calling solver with defect correction order = 8
MG DL_MG: Solver finished
MG Hartree energy from (\int phi*rho dr):              1424.912037
MG Hartree energy from (\int eps (grad phi)^2 dr):     1424.262287
MG Discrepancy due to finite box and discretization:     -0.649750 (  -0.04560%)
MG Correction to account for finite box:                  0.464329
MG Remaining discrepancy, due to discretization:         -0.185421 (  -0.01301%)
      ideal mu1:      -0.774055359726
             Q0:  -11549.696502733859
             G0:      -0.222288313636
   RMS gradient:       0.000072420540
MG BCs: +ve charge blocks (gridpoints):     30855 (   17129494).
MG BCs: -ve charge blocks (gridpoints):      8213 (    1088688).
MG BCs:     Elided blocks (gridpoints):    179178 (  188001643).
MG BCs: Computational effort saved:  99.9811%.
MG BCs: Charge after coarse-graining:           -9.0009891.
MG DL_MG: Calling solver with defect correction order = 8
MG DL_MG: Solver finished
MG Hartree energy from (\int phi*rho dr):              1424.910917
MG Hartree energy from (\int eps (grad phi)^2 dr):     1424.261329
MG Discrepancy due to finite box and discretization:     -0.649587 (  -0.04559%)
MG Correction to account for finite box:                  0.464337
MG Remaining discrepancy, due to discretization:         -0.185250 (  -0.01300%)
     Trial step:       0.703962887679
             Q1:  -11549.786337187979
 Quadratic coef:       0.066648269045
 Linear coef   :      -0.156482723165
           Qmin:  -11549.788353741395
Quadratic minimum step length (  0.826413283118) accepted
    Initial Ne1:    7191.99999989
      Final Ne1:    7192.00000000

=================== Penalty functional idempotency correction ==================
 RMS occupancy error at iteration   1:  0.000923 (step -0.4506 Ne1=   7192.0000)
 RMS occupancy error at iteration   2:  0.000015 (step -0.4999 Ne1=   7192.0000)
            Final RMS occupancy error   :  0.000000 (Ne1=   7192.0000)
               Final occupancy bounds   : [ -0.0000,  1.0000]
================================================================================

    8        -1.154969650273E+04     7.2421E-05     6.5503E-05    -1.0509E-01
MG BCs: +ve charge blocks (gridpoints):     30854 (   17129535).
MG BCs: -ve charge blocks (gridpoints):      8214 (    1088675).
MG BCs:     Elided blocks (gridpoints):    179179 (  188001615).
MG BCs: Computational effort saved:  99.9811%.
MG BCs: Charge after coarse-graining:           -9.0009891.
MG DL_MG: Calling solver with defect correction order = 8
MG DL_MG: Solver finished
MG Hartree energy from (\int phi*rho dr):              1424.912169
MG Hartree energy from (\int eps (grad phi)^2 dr):     1424.262610
MG Discrepancy due to finite box and discretization:     -0.649559 (  -0.04559%)
MG Correction to account for finite box:                  0.464338
MG Remaining discrepancy, due to discretization:         -0.185221 (  -0.01300%)
      ideal mu1:      -0.774231157851
             Q0:  -11549.787348984974
             G0:      -0.220772794849
   RMS gradient:       0.000072604820
MG BCs: +ve charge blocks (gridpoints):     30857 (   17128566).
MG BCs: -ve charge blocks (gridpoints):      8220 (    1089128).
MG BCs:     Elided blocks (gridpoints):    179176 (  188002131).
MG BCs: Computational effort saved:  99.9811%.
MG BCs: Charge after coarse-graining:           -9.0009889.
MG DL_MG: Calling solver with defect correction order = 8
MG DL_MG: Solver finished
MG Hartree energy from (\int phi*rho dr):              1423.436655
MG Hartree energy from (\int eps (grad phi)^2 dr):     1422.787392
MG Discrepancy due to finite box and discretization:     -0.649263 (  -0.04561%)
MG Correction to account for finite box:                  0.464150
MG Remaining discrepancy, due to discretization:         -0.185113 (  -0.01300%)
     Trial step:       0.762734738425
             Q1:  -11549.870909168152
 Quadratic coef:       0.084830896752
 Linear coef   :      -0.168391079930
           Qmin:  -11549.870913926774
Quadratic minimum step length (  0.757022094665) accepted
    Initial Ne1:    7192.00000780
      Final Ne1:    7192.00000000

=================== Penalty functional idempotency correction ==================
 RMS occupancy error at iteration   1:  0.002855 (step -0.3727 Ne1=   7192.0000)
 RMS occupancy error at iteration   2:  0.000110 (step -0.4983 Ne1=   7192.0000)
 RMS occupancy error at iteration   3:  0.000001 (step -0.5000 Ne1=   7192.0000)
            Final RMS occupancy error   :  0.000000 (Ne1=   7192.0000)
               Final occupancy bounds   : [  0.0000,  1.0000]
================================================================================

    9        -1.154978734898E+04     7.2605E-05     6.5669E-05    -9.0846E-02
MG BCs: +ve charge blocks (gridpoints):     30857 (   17128566).
MG BCs: -ve charge blocks (gridpoints):      8220 (    1089122).
MG BCs:     Elided blocks (gridpoints):    179176 (  188002137).
MG BCs: Computational effort saved:  99.9811%.
MG BCs: Charge after coarse-graining:           -9.0009889.
MG DL_MG: Calling solver with defect correction order = 8
MG DL_MG: Solver finished
MG Hartree energy from (\int phi*rho dr):              1423.455965
MG Hartree energy from (\int eps (grad phi)^2 dr):     1422.806663
MG Discrepancy due to finite box and discretization:     -0.649301 (  -0.04561%)
MG Correction to account for finite box:                  0.464187
MG Remaining discrepancy, due to discretization:         -0.185114 (  -0.01300%)
      ideal mu1:      -0.773793642057
   10        -1.154987214690E+04     6.8760E-05     6.2192E-05    -8.4798E-02
Finished density kernel iterations (  10)

Writing density kernel to file "host_10361.vacuum_dkn" ... done


>>> Density kernel optimised for the current NGWF basis:
     ~~~~~~~~~~~~~~~~~~~~~~~~~~~~~~~~~~~~~~~~~~~~~~~~~~~~~~~~~~~
     Total energy                =  -1.15498721468998E+04  Eh
     Estimated bandgap           =  -4.7299E-01  Eh
     RMS occupancy error         =   1.1544E-10
     [H,K] commutator            =   6.2192E-05
     Occupancy bounds            = [  0.000:  1.000]
     ~~~~~~~~~~~~~~~~~~~~~~~~~~~~~~~~~~~~~~~~~~~~~~~~~~~~~~~~~~~




################################################################################
########################### NGWF CG iteration  001 #############################
################################################################################
****** Reciprocal space K.E. preconditioning with k_zero =  3.5000 a0^-1 *******

>>> Checking for convergence of NGWFs:   NOT CONVERGED
  ========================================================================
         NGWF RMS gradient =  1.6156E-03 >  2.0000E-06  | above tolerance
  ========================================================================

>>> Improving NGWFs using line search:
============ Calculation of NGWF S^-1 using Hotelling algorithm ================ 
         Iteration  |  Frobenius norm and Maximum abs value    (of I-S*S_n^-1)   
               1       0.20216356E+00     0.54555225E-02
               2       0.95037259E-03     0.43215255E-04
               3       0.36005750E-07     0.27517298E-08
               4       0.12738538E-12     0.54400928E-14
================================================================================
MG BCs: +ve charge blocks (gridpoints):     30344 (   17068431).
MG BCs: -ve charge blocks (gridpoints):      8251 (    1088639).
MG BCs:     Elided blocks (gridpoints):    179685 (  188062755).
MG BCs: Computational effort saved:  99.9813%.
MG BCs: Charge after coarse-graining:           -9.0009887.
MG DL_MG: Calling solver with defect correction order = 8
MG DL_MG: Solver finished
MG Hartree energy from (\int phi*rho dr):              1391.183313
MG Hartree energy from (\int eps (grad phi)^2 dr):     1390.534863
MG Discrepancy due to finite box and discretization:     -0.648450 (  -0.04661%)
MG Correction to account for finite box:                  0.464128
MG Remaining discrepancy, due to discretization:         -0.184322 (  -0.01325%)
============ Calculation of NGWF S^-1 using Hotelling algorithm ================ 
         Iteration  |  Frobenius norm and Maximum abs value    (of I-S*S_n^-1)   
               1       0.18724678E+01     0.41714018E-01
               2       0.73092333E-01     0.23387403E-02
               3       0.15083766E-03     0.92604174E-05
               4       0.12160596E-08     0.16389677E-09
               5       0.11056034E-12     0.51070259E-14
================================================================================
------------------------------- NGWF line search -------------------------------
RMS gradient                =       0.00161564693249
Trial step length           =               0.122474
Gradient along search dir.  =       -282.44081141357
Functional at step 0        =  -11549.87214689981192
Functional at step 1        =  -11581.79442117747385
Functional predicted        =  -11661.93279044569135
Selected quadratic step     =               0.793516
--------------------------- NGWF line search finished --------------------------
                                               
Writing NGWFs to file "host_10361.vacuum_tightbox_ngwfs"....  done

>>> Optimising kernel for current NGWFs:
   Initial electron number for spin 1:    7227.66798402
     Final electron number for spin 1:    7192.00000000

=================== Penalty functional idempotency correction ==================
 RMS occupancy error at iteration   1:  0.004330 (step -0.4857 Ne1=   7192.0000)
 RMS occupancy error at iteration   2:  0.000072 (step -0.5003 Ne1=   7192.0000)
            Final RMS occupancy error   :  0.000000 (Ne1=   7192.0000)
               Final occupancy bounds   : [  0.0000,  1.0000]
================================================================================

................................................................................
<<<<<<<<<<<<<< LNV (Original version) density kernel optimisation >>>>>>>>>>>>>>
~~~~~~~~~~~~~~~~~~~~~~~~~~~~~~~~~~~~~~~~~~~~~~~~~~~~~~~~~~~~~~~~~~~~~~~~~~~~~~~~
   iter  |      energy (Eh)       | rms gradient |  commutator  |   dE (Eh)
MG BCs: +ve charge blocks (gridpoints):     24518 (   16737980).
MG BCs: -ve charge blocks (gridpoints):      8400 (    1070570).
MG BCs:     Elided blocks (gridpoints):    185527 (  188411275).
MG BCs: Computational effort saved:  99.9840%.
MG BCs: Charge after coarse-graining:           -9.0006857.
MG DL_MG: Calling solver with defect correction order = 8
MG DL_MG: Solver finished
MG Hartree energy from (\int phi*rho dr):              1237.043246
MG Hartree energy from (\int eps (grad phi)^2 dr):     1236.394873
MG Discrepancy due to finite box and discretization:     -0.648373 (  -0.05241%)
MG Correction to account for finite box:                  0.463871
MG Remaining discrepancy, due to discretization:         -0.184502 (  -0.01491%)
      ideal mu1:      -0.713372549961
             Q0:  -11660.982226892840
             G0:      -9.970636904410
   RMS gradient:       0.000485416070
MG BCs: +ve charge blocks (gridpoints):     24584 (   16763435).
MG BCs: -ve charge blocks (gridpoints):      8381 (    1063143).
MG BCs:     Elided blocks (gridpoints):    185461 (  188393247).
MG BCs: Computational effort saved:  99.9840%.
MG BCs: Charge after coarse-graining:           -9.0006789.
MG DL_MG: Calling solver with defect correction order = 8
MG DL_MG: Solver finished
MG Hartree energy from (\int phi*rho dr):              1259.020862
MG Hartree energy from (\int eps (grad phi)^2 dr):     1258.367488
MG Discrepancy due to finite box and discretization:     -0.653373 (  -0.05190%)
MG Correction to account for finite box:                  0.462604
MG Remaining discrepancy, due to discretization:         -0.190770 (  -0.01515%)
     Trial step:       0.759873048184
             Q1:  -11659.990366720594
 Quadratic coef:       8.568278429133
 Linear coef   :      -7.576418256888
           Qmin:  -11662.657070739187
Quadratic minimum step length (  0.335955237846) accepted
    Initial Ne1:    7191.99954139
      Final Ne1:    7192.00000000

=================== Penalty functional idempotency correction ==================
 RMS occupancy error at iteration   1:  0.000371 (step -0.4985 Ne1=   7192.0000)
 RMS occupancy error at iteration   2:  0.000000 (step -0.5000 Ne1=   7192.0000)
            Final RMS occupancy error   :  0.000000 (Ne1=   7192.0000)
               Final occupancy bounds   : [  0.0000,  1.0000]
================================================================================

    1        -1.166098222689E+04     4.8542E-04     4.3905E-04
MG BCs: +ve charge blocks (gridpoints):     24552 (   16749427).
MG BCs: -ve charge blocks (gridpoints):      8393 (    1067364).
MG BCs:     Elided blocks (gridpoints):    185493 (  188403034).
MG BCs: Computational effort saved:  99.9840%.
MG BCs: Charge after coarse-graining:           -9.0006825.
MG DL_MG: Calling solver with defect correction order = 8
MG DL_MG: Solver finished
MG Hartree energy from (\int phi*rho dr):              1245.730251
MG Hartree energy from (\int eps (grad phi)^2 dr):     1245.079789
MG Discrepancy due to finite box and discretization:     -0.650461 (  -0.05222%)
MG Correction to account for finite box:                  0.463271
MG Remaining discrepancy, due to discretization:         -0.187191 (  -0.01503%)
      ideal mu1:      -0.721611598184
             Q0:  -11662.626632199041
             G0:      -1.065914131992
   RMS gradient:       0.000159560236
MG BCs: +ve charge blocks (gridpoints):     24556 (   16749945).
MG BCs: -ve charge blocks (gridpoints):      8389 (    1067772).
MG BCs:     Elided blocks (gridpoints):    185489 (  188402108).
MG BCs: Computational effort saved:  99.9840%.
MG BCs: Charge after coarse-graining:           -9.0006823.
MG DL_MG: Calling solver with defect correction order = 8
MG DL_MG: Solver finished
MG Hartree energy from (\int phi*rho dr):              1247.348330
MG Hartree energy from (\int eps (grad phi)^2 dr):     1246.697757
MG Discrepancy due to finite box and discretization:     -0.650573 (  -0.05216%)
MG Correction to account for finite box:                  0.463040
MG Remaining discrepancy, due to discretization:         -0.187533 (  -0.01503%)
     Trial step:       0.505255708167
             Q1:  -11662.852720990428
 Quadratic coef:       0.312470408218
 Linear coef   :      -0.538559199605
           Qmin:  -11662.858690982728
Quadratic minimum step length (  0.435417406943) accepted
    Initial Ne1:    7191.99993576
      Final Ne1:    7192.00000000

=================== Penalty functional idempotency correction ==================
 RMS occupancy error at iteration   1:  0.000178 (step -0.4981 Ne1=   7192.0000)
 RMS occupancy error at iteration   2:  0.000001 (step -0.5000 Ne1=   7192.0000)
            Final RMS occupancy error   :  0.000000 (Ne1=   7192.0000)
               Final occupancy bounds   : [  0.0000,  1.0000]
================================================================================

    2        -1.166262663220E+04     1.5956E-04     1.4432E-04    -1.6444E+00
MG BCs: +ve charge blocks (gridpoints):     24556 (   16749899).
MG BCs: -ve charge blocks (gridpoints):      8389 (    1067715).
MG BCs:     Elided blocks (gridpoints):    185489 (  188402211).
MG BCs: Computational effort saved:  99.9840%.
MG BCs: Charge after coarse-graining:           -9.0006823.
MG DL_MG: Calling solver with defect correction order = 8
MG DL_MG: Solver finished
MG Hartree energy from (\int phi*rho dr):              1247.124125
MG Hartree energy from (\int eps (grad phi)^2 dr):     1246.473570
MG Discrepancy due to finite box and discretization:     -0.650555 (  -0.05216%)
MG Correction to account for finite box:                  0.463072
MG Remaining discrepancy, due to discretization:         -0.187484 (  -0.01503%)
      ideal mu1:      -0.722838822902
             Q0:  -11662.859262374812
             G0:      -0.208335351184
   RMS gradient:       0.000070089671
MG BCs: +ve charge blocks (gridpoints):     24555 (   16748693).
MG BCs: -ve charge blocks (gridpoints):      8392 (    1068308).
MG BCs:     Elided blocks (gridpoints):    185490 (  188402824).
MG BCs: Computational effort saved:  99.9840%.
MG BCs: Charge after coarse-graining:           -9.0006824.
MG DL_MG: Calling solver with defect correction order = 8
MG DL_MG: Solver finished
MG Hartree energy from (\int phi*rho dr):              1246.386123
MG Hartree energy from (\int eps (grad phi)^2 dr):     1245.735794
MG Discrepancy due to finite box and discretization:     -0.650329 (  -0.05218%)
MG Correction to account for finite box:                  0.462870
MG Remaining discrepancy, due to discretization:         -0.187459 (  -0.01504%)
     Trial step:       0.469038516855
             Q1:  -11662.929224690422
 Quadratic coef:       0.027754988518
 Linear coef   :      -0.097717304128
           Qmin:  -11662.945270981156
Quadratic minimum step length (  0.825674623678) accepted
    Initial Ne1:    7191.99997644
      Final Ne1:    7192.00000000

=================== Penalty functional idempotency correction ==================
 RMS occupancy error at iteration   1:  0.000380 (step -0.4752 Ne1=   7192.0000)
 RMS occupancy error at iteration   2:  0.000007 (step -0.4999 Ne1=   7192.0000)
            Final RMS occupancy error   :  0.000000 (Ne1=   7192.0000)
               Final occupancy bounds   : [ -0.0000,  1.0000]
================================================================================

    3        -1.166285926237E+04     7.0090E-05     6.3395E-05    -2.3263E-01
MG BCs: +ve charge blocks (gridpoints):     24554 (   16747816).
MG BCs: -ve charge blocks (gridpoints):      8393 (    1068774).
MG BCs:     Elided blocks (gridpoints):    185491 (  188403235).
MG BCs: Computational effort saved:  99.9840%.
MG BCs: Charge after coarse-graining:           -9.0006825.
MG DL_MG: Calling solver with defect correction order = 8
MG DL_MG: Solver finished
MG Hartree energy from (\int phi*rho dr):              1245.824577
MG Hartree energy from (\int eps (grad phi)^2 dr):     1245.174416
MG Discrepancy due to finite box and discretization:     -0.650161 (  -0.05219%)
MG Correction to account for finite box:                  0.462720
MG Remaining discrepancy, due to discretization:         -0.187442 (  -0.01505%)
      ideal mu1:      -0.721604503255
             Q0:  -11662.944793284754
             G0:      -0.110584583669
   RMS gradient:       0.000051279166
MG BCs: +ve charge blocks (gridpoints):     24552 (   16748335).
MG BCs: -ve charge blocks (gridpoints):      8393 (    1068575).
MG BCs:     Elided blocks (gridpoints):    185493 (  188402915).
MG BCs: Computational effort saved:  99.9840%.
MG BCs: Charge after coarse-graining:           -9.0006824.
MG DL_MG: Calling solver with defect correction order = 8
MG DL_MG: Solver finished
MG Hartree energy from (\int phi*rho dr):              1246.037360
MG Hartree energy from (\int eps (grad phi)^2 dr):     1245.387508
MG Discrepancy due to finite box and discretization:     -0.649852 (  -0.05215%)
MG Correction to account for finite box:                  0.462578
MG Remaining discrepancy, due to discretization:         -0.187274 (  -0.01503%)
     Trial step:       0.622312783811
             Q1:  -11662.987603239482
 Quadratic coef:       0.026008245382
 Linear coef   :      -0.068818200110
           Qmin:  -11662.990316777370
Quadratic minimum step length (  0.823324393045) accepted
    Initial Ne1:    7191.99999605
      Final Ne1:    7192.00000000

=================== Penalty functional idempotency correction ==================
 RMS occupancy error at iteration   1:  0.000848 (step -0.4427 Ne1=   7192.0000)
 RMS occupancy error at iteration   2:  0.000021 (step -0.4990 Ne1=   7192.0000)
            Final RMS occupancy error   :  0.000000 (Ne1=   7192.0000)
               Final occupancy bounds   : [ -0.0000,  1.0000]
================================================================================

    4        -1.166294479328E+04     5.1279E-05     4.6381E-05    -8.5531E-02
MG BCs: +ve charge blocks (gridpoints):     24551 (   16748506).
MG BCs: -ve charge blocks (gridpoints):      8391 (    1068525).
MG BCs:     Elided blocks (gridpoints):    185494 (  188402794).
MG BCs: Computational effort saved:  99.9840%.
MG BCs: Charge after coarse-graining:           -9.0006824.
MG DL_MG: Calling solver with defect correction order = 8
MG DL_MG: Solver finished
MG Hartree energy from (\int phi*rho dr):              1246.109468
MG Hartree energy from (\int eps (grad phi)^2 dr):     1245.459710
MG Discrepancy due to finite box and discretization:     -0.649758 (  -0.05214%)
MG Correction to account for finite box:                  0.462537
MG Remaining discrepancy, due to discretization:         -0.187221 (  -0.01502%)
      ideal mu1:      -0.722224114880
             Q0:  -11662.990068494808
             G0:      -0.115883279954
   RMS gradient:       0.000052207400
MG BCs: +ve charge blocks (gridpoints):     24553 (   16750815).
MG BCs: -ve charge blocks (gridpoints):      8388 (    1067718).
MG BCs:     Elided blocks (gridpoints):    185492 (  188401292).
MG BCs: Computational effort saved:  99.9840%.
MG BCs: Charge after coarse-graining:           -9.0006819.
MG DL_MG: Calling solver with defect correction order = 8
MG DL_MG: Solver finished
MG Hartree energy from (\int phi*rho dr):              1247.321139
MG Hartree energy from (\int eps (grad phi)^2 dr):     1246.671648
MG Discrepancy due to finite box and discretization:     -0.649491 (  -0.05207%)
MG Correction to account for finite box:                  0.462374
MG Remaining discrepancy, due to discretization:         -0.187118 (  -0.01500%)
     Trial step:       0.715796964939
             Q1:  -11663.029240528238
 Quadratic coef:       0.043776866649
 Linear coef   :      -0.082948900078
           Qmin:  -11663.029361622383
Quadratic minimum step length (  0.678150076354) accepted
    Initial Ne1:    7192.00044922
      Final Ne1:    7192.00000000

=================== Penalty functional idempotency correction ==================
 RMS occupancy error at iteration   1:  0.001769 (step -0.3946 Ne1=   7192.0000)
 RMS occupancy error at iteration   2:  0.000076 (step -0.4953 Ne1=   7192.0000)
 RMS occupancy error at iteration   3:  0.000000 (step -0.5000 Ne1=   7192.0000)
            Final RMS occupancy error   :  0.000000 (Ne1=   7192.0000)
               Final occupancy bounds   : [  0.0000,  1.0000]
================================================================================

    5        -1.166299006849E+04     5.2207E-05     4.7220E-05    -4.5275E-02
MG BCs: +ve charge blocks (gridpoints):     24554 (   16750694).
MG BCs: -ve charge blocks (gridpoints):      8388 (    1067759).
MG BCs:     Elided blocks (gridpoints):    185491 (  188401372).
MG BCs: Computational effort saved:  99.9840%.
MG BCs: Charge after coarse-graining:           -9.0006819.
MG DL_MG: Calling solver with defect correction order = 8
MG DL_MG: Solver finished
MG Hartree energy from (\int phi*rho dr):              1247.256948
MG Hartree energy from (\int eps (grad phi)^2 dr):     1246.607458
MG Discrepancy due to finite box and discretization:     -0.649490 (  -0.05207%)
MG Correction to account for finite box:                  0.462369
MG Remaining discrepancy, due to discretization:         -0.187122 (  -0.01500%)
      ideal mu1:      -0.723486593594
             Q0:  -11663.031225924031
             G0:      -0.075552265711
   RMS gradient:       0.000040377277
MG BCs: +ve charge blocks (gridpoints):     24552 (   16750307).
MG BCs: -ve charge blocks (gridpoints):      8391 (    1068022).
MG BCs:     Elided blocks (gridpoints):    185493 (  188401496).
MG BCs: Computational effort saved:  99.9840%.
MG BCs: Charge after coarse-graining:           -9.0006820.
MG DL_MG: Calling solver with defect correction order = 8
MG DL_MG: Solver finished
MG Hartree energy from (\int phi*rho dr):              1246.818686
MG Hartree energy from (\int eps (grad phi)^2 dr):     1246.169211
MG Discrepancy due to finite box and discretization:     -0.649475 (  -0.05209%)
MG Correction to account for finite box:                  0.462289
MG Remaining discrepancy, due to discretization:         -0.187185 (  -0.01501%)
     Trial step:       0.696719288112
             Q1:  -11663.062613795744
 Quadratic coef:       0.021250849068
 Linear coef   :      -0.052638720781
           Qmin:  -11663.063822679538
Quadratic minimum step length (  0.862892864968) accepted
    Initial Ne1:    7192.00034189
      Final Ne1:    7192.00000000

=================== Penalty functional idempotency correction ==================
 RMS occupancy error at iteration   1:  0.002269 (step -0.3763 Ne1=   7192.0000)
 RMS occupancy error at iteration   2:  0.000123 (step -0.4929 Ne1=   7192.0000)
 RMS occupancy error at iteration   3:  0.000001 (step -0.5000 Ne1=   7192.0000)
            Final RMS occupancy error   :  0.000000 (Ne1=   7192.0000)
               Final occupancy bounds   : [  0.0000,  1.0000]
================================================================================

    6        -1.166303122592E+04     4.0377E-05     3.6520E-05    -4.1157E-02
MG BCs: +ve charge blocks (gridpoints):     24551 (   16750257).
MG BCs: -ve charge blocks (gridpoints):      8391 (    1068072).
MG BCs:     Elided blocks (gridpoints):    185494 (  188401496).
MG BCs: Computational effort saved:  99.9840%.
MG BCs: Charge after coarse-graining:           -9.0006820.
MG DL_MG: Calling solver with defect correction order = 8
MG DL_MG: Solver finished
MG Hartree energy from (\int phi*rho dr):              1246.714921
MG Hartree energy from (\int eps (grad phi)^2 dr):     1246.065455
MG Discrepancy due to finite box and discretization:     -0.649466 (  -0.05209%)
MG Correction to account for finite box:                  0.462267
MG Remaining discrepancy, due to discretization:         -0.187199 (  -0.01502%)
      ideal mu1:      -0.723358481348
             Q0:  -11663.066867388785
             G0:      -0.056288057716
   RMS gradient:       0.000036472105
MG BCs: +ve charge blocks (gridpoints):     24551 (   16749211).
MG BCs: -ve charge blocks (gridpoints):      8391 (    1068280).
MG BCs:     Elided blocks (gridpoints):    185494 (  188402334).
MG BCs: Computational effort saved:  99.9840%.
MG BCs: Charge after coarse-graining:           -9.0006823.
MG DL_MG: Calling solver with defect correction order = 8
MG DL_MG: Solver finished
MG Hartree energy from (\int phi*rho dr):              1246.192783
MG Hartree energy from (\int eps (grad phi)^2 dr):     1245.543319
MG Discrepancy due to finite box and discretization:     -0.649464 (  -0.05212%)
MG Correction to account for finite box:                  0.462266
MG Remaining discrepancy, due to discretization:         -0.187199 (  -0.01502%)
     Trial step:       0.775367076034
             Q1:  -11663.082488785498
 Quadratic coef:       0.028022510014
 Linear coef   :      -0.043643906727
           Qmin:  -11663.083860786177
Quadratic minimum step length (  0.603801164290) accepted
    Initial Ne1:    7191.99999994
      Final Ne1:    7192.00000000

=================== Penalty functional idempotency correction ==================
 RMS occupancy error at iteration   1:  0.000032 (step -0.4983 Ne1=   7192.0000)
            Final RMS occupancy error   :  0.000000 (Ne1=   7192.0000)
               Final occupancy bounds   : [ -0.0000,  1.0000]
================================================================================

    7        -1.166306686739E+04     3.6472E-05     3.2988E-05    -3.5641E-02
MG BCs: +ve charge blocks (gridpoints):     24551 (   16749447).
MG BCs: -ve charge blocks (gridpoints):      8392 (    1068223).
MG BCs:     Elided blocks (gridpoints):    185494 (  188402155).
MG BCs: Computational effort saved:  99.9840%.
MG BCs: Charge after coarse-graining:           -9.0006822.
MG DL_MG: Calling solver with defect correction order = 8
MG DL_MG: Solver finished
MG Hartree energy from (\int phi*rho dr):              1246.307091
MG Hartree energy from (\int eps (grad phi)^2 dr):     1245.657625
MG Discrepancy due to finite box and discretization:     -0.649466 (  -0.05211%)
MG Correction to account for finite box:                  0.462267
MG Remaining discrepancy, due to discretization:         -0.187199 (  -0.01502%)
      ideal mu1:      -0.722886606262
             Q0:  -11663.083867289592
             G0:      -0.048756962343
   RMS gradient:       0.000033940206
MG BCs: +ve charge blocks (gridpoints):     24554 (   16749348).
MG BCs: -ve charge blocks (gridpoints):      8392 (    1068175).
MG BCs:     Elided blocks (gridpoints):    185491 (  188402302).
MG BCs: Computational effort saved:  99.9840%.
MG BCs: Charge after coarse-graining:           -9.0006823.
MG DL_MG: Calling solver with defect correction order = 8
MG DL_MG: Solver finished
MG Hartree energy from (\int phi*rho dr):              1246.205678
MG Hartree energy from (\int eps (grad phi)^2 dr):     1245.556278
MG Discrepancy due to finite box and discretization:     -0.649400 (  -0.05211%)
[...]
MG Hartree energy from (\int phi*rho dr):              1202.688770
MG Hartree energy from (\int eps (grad phi)^2 dr):     1202.495887
MG Discrepancy due to finite box and discretization:     -0.192883 (  -0.01604%)
MG Correction to account for finite box:                  0.006208
MG Remaining discrepancy, due to discretization:         -0.186675 (  -0.01552%)
             Q2:  -11697.518053941429
  Cubic LS coeff:       0.954533838926
Predicted energy:  -11697.518053941867
Cubic minimum step length accepted
    Initial Ne1:    7192.00000000
      Final Ne1:    7192.00000000

=================== Penalty functional idempotency correction ==================
 RMS occupancy error at iteration   1:  0.000000 (step -0.5000 Ne1=   7192.0000)
            Final RMS occupancy error   :  0.000000 (Ne1=   7192.0000)
               Final occupancy bounds   : [  0.0000,  1.0000]
================================================================================

    7        -1.169751805394E+04     9.3774E-09     8.4816E-09    -2.5611E-09

Reusing previously generated solute cavity.
MG BCs: +ve charge blocks (gridpoints):     28935 (   18914030).
MG BCs: -ve charge blocks (gridpoints):      8386 (    1038209).
MG BCs:     Elided blocks (gridpoints):    181110 (  186267586).
MG BCs: Computational effort saved:  99.9819%.
MG BCs: Charge after coarse-graining:           -9.0009690.
MG DL_MG: Calling solver with defect correction order = 8
MG DL_MG: Solver finished
MG Hartree energy from (\int phi*rho dr):              1202.688747
MG Hartree energy from (\int eps (grad phi)^2 dr):     1202.495864
MG Discrepancy due to finite box and discretization:     -0.192883 (  -0.01604%)
MG Correction to account for finite box:                  0.006208
MG Remaining discrepancy, due to discretization:         -0.186675 (  -0.01552%)
      ideal mu1:      -0.485610400889
             Q0:  -11697.518053941661
             G0:      -0.000000002588
   RMS gradient:       0.000000013227

Reusing previously generated solute cavity.
MG BCs: +ve charge blocks (gridpoints):     28935 (   18914030).
MG BCs: -ve charge blocks (gridpoints):      8386 (    1038209).
MG BCs:     Elided blocks (gridpoints):    181110 (  186267586).
MG BCs: Computational effort saved:  99.9819%.
MG BCs: Charge after coarse-graining:           -9.0009690.
MG DL_MG: Calling solver with defect correction order = 8
MG DL_MG: Solver finished
MG Hartree energy from (\int phi*rho dr):              1202.688772
MG Hartree energy from (\int eps (grad phi)^2 dr):     1202.495889
MG Discrepancy due to finite box and discretization:     -0.192883 (  -0.01604%)
MG Correction to account for finite box:                  0.006208
MG Remaining discrepancy, due to discretization:         -0.186675 (  -0.01552%)
     Trial step:       0.763684606600
             Q1:  -11697.518053942476
 Quadratic coef:       0.000000001161
 Linear coef   :      -0.000000001976
           Qmin:  -11697.518053942502
Quadratic minimum step length (  0.650182470451) accepted
    Initial Ne1:    7192.00000000
      Final Ne1:    7192.00000000

=================== Penalty functional idempotency correction ==================
 RMS occupancy error at iteration   1:  0.000000 (step -0.5000 Ne1=   7192.0000)
            Final RMS occupancy error   :  0.000000 (Ne1=   7192.0000)
               Final occupancy bounds   : [  0.0000,  1.0000]
================================================================================

    8        -1.169751805394E+04     1.3227E-08     1.1963E-08    -2.6776E-09

Reusing previously generated solute cavity.
MG BCs: +ve charge blocks (gridpoints):     28935 (   18914030).
MG BCs: -ve charge blocks (gridpoints):      8386 (    1038209).
MG BCs:     Elided blocks (gridpoints):    181110 (  186267586).
MG BCs: Computational effort saved:  99.9819%.
MG BCs: Charge after coarse-graining:           -9.0009690.
MG DL_MG: Calling solver with defect correction order = 8
MG DL_MG: Solver finished
MG Hartree energy from (\int phi*rho dr):              1202.688768
MG Hartree energy from (\int eps (grad phi)^2 dr):     1202.495885
MG Discrepancy due to finite box and discretization:     -0.192883 (  -0.01604%)
MG Correction to account for finite box:                  0.006208
MG Remaining discrepancy, due to discretization:         -0.186675 (  -0.01552%)
      ideal mu1:      -0.485610407436
             Q0:  -11697.518053942593
             G0:      -0.000000008667
   RMS gradient:       0.000000015027

Reusing previously generated solute cavity.
MG BCs: +ve charge blocks (gridpoints):     28935 (   18914029).
MG BCs: -ve charge blocks (gridpoints):      8386 (    1038209).
MG BCs:     Elided blocks (gridpoints):    181110 (  186267587).
MG BCs: Computational effort saved:  99.9819%.
MG BCs: Charge after coarse-graining:           -9.0009690.
MG DL_MG: Calling solver with defect correction order = 8
MG DL_MG: Solver finished
MG Hartree energy from (\int phi*rho dr):              1202.688661
MG Hartree energy from (\int eps (grad phi)^2 dr):     1202.495778
MG Discrepancy due to finite box and discretization:     -0.192883 (  -0.01604%)
MG Correction to account for finite box:                  0.006208
MG Remaining discrepancy, due to discretization:         -0.186675 (  -0.01552%)
     Trial step:       0.704651931215
             Q1:  -11697.518053940614
 Quadratic coef:       0.000000008085
 Linear coef   :      -0.000000006107
           Qmin:  -11697.518053943746
Quadratic minimum step length (  0.266115407750) accepted
    Initial Ne1:    7192.00000000
      Final Ne1:    7192.00000000

=================== Penalty functional idempotency correction ==================
 RMS occupancy error at iteration   1:  0.000000 (step -0.5000 Ne1=   7192.0000)
            Final RMS occupancy error   :  0.000000 (Ne1=   7192.0000)
               Final occupancy bounds   : [ -0.0000,  1.0000]
================================================================================

    9        -1.169751805394E+04     1.5027E-08     1.3591E-08    -9.3132E-10

Reusing previously generated solute cavity.
MG BCs: +ve charge blocks (gridpoints):     28935 (   18914031).
MG BCs: -ve charge blocks (gridpoints):      8386 (    1038209).
MG BCs:     Elided blocks (gridpoints):    181110 (  186267585).
MG BCs: Computational effort saved:  99.9819%.
MG BCs: Charge after coarse-graining:           -9.0009690.
MG DL_MG: Calling solver with defect correction order = 8
MG DL_MG: Solver finished
MG Hartree energy from (\int phi*rho dr):              1202.688728
MG Hartree energy from (\int eps (grad phi)^2 dr):     1202.495845
MG Discrepancy due to finite box and discretization:     -0.192883 (  -0.01604%)
MG Correction to account for finite box:                  0.006208
MG Remaining discrepancy, due to discretization:         -0.186675 (  -0.01552%)
      ideal mu1:      -0.485610356325
   10        -1.169751805394E+04     8.8608E-09     8.0144E-09    -6.9849E-10
Finished density kernel iterations (  10)

Writing density kernel to file "host_10361.dkn" ... done


>>> Density kernel optimised for the current NGWF basis:
     ~~~~~~~~~~~~~~~~~~~~~~~~~~~~~~~~~~~~~~~~~~~~~~~~~~~~~~~~~~~
     Total energy                =  -1.16975180539433E+04  Eh
     Estimated bandgap           =   8.4727E-02  Eh
     RMS occupancy error         =   3.4230E-16
     [H,K] commutator            =   8.0144E-09
     Occupancy bounds            = [  0.000:  1.000]
     ~~~~~~~~~~~~~~~~~~~~~~~~~~~~~~~~~~~~~~~~~~~~~~~~~~~~~~~~~~~




################################################################################
########################### NGWF CG iteration  004 #############################
################################################################################
****** Reciprocal space K.E. preconditioning with k_zero =  3.5000 a0^-1 *******

>>> Checking for convergence of NGWFs: 
           ........................................................
           |         *** NGWF optimisation converged ***          |
           | RMS NGWF gradient =    0.00000175256295              |
           | Criteria satisfied:                                  |
           | -> RMS NGWF gradient lower than set threshold.       |
           ========================================================

Reusing previously generated solute cavity.
MG BCs: +ve charge blocks (gridpoints):     28935 (   18914031).
MG BCs: -ve charge blocks (gridpoints):      8386 (    1038209).
MG BCs:     Elided blocks (gridpoints):    181110 (  186267585).
MG BCs: Computational effort saved:  99.9819%.
MG BCs: Charge after coarse-graining:           -9.0009690.
MG DL_MG: Calling solver with defect correction order = 8
MG DL_MG: Solver finished
MG Hartree energy from (\int phi*rho dr):              1202.688728
MG Hartree energy from (\int eps (grad phi)^2 dr):     1202.495845
MG Discrepancy due to finite box and discretization:     -0.192883 (  -0.01604%)
MG Correction to account for finite box:                  0.006208
MG Remaining discrepancy, due to discretization:         -0.186675 (  -0.01552%)

================================================================================
           ---------------- ENERGY COMPONENTS (Eh) ----------------
           | Kinetic                    :     8557.91924011650917 |
           | Pseudo. (local,OBC,corr'd) :    -5071.69900554231299 |
           | Pseudopotential (non-local):     1404.33113861798779 |
           | Hartree (molecular)        :     1202.68872769337622 |
           | Exchange-correlation       :    -3382.20658245884397 |
           | Ion-ion (open BC)          :   822209.73539580544457 |
           | Smeared ion non-self corr. :  -822161.76190292381216 |
           | Smeared ion self corr.     :   -14457.16956389741972 |
           | Solvent cavitation energy  :        2.29297748235946 |
           | Solute-solvent dis-rep en. :       -1.64847883650527 |
           | Total                      :   -11697.51805394311486 |
           --------------------------------------------------------
           ------ LOCAL ENERGY COMPONENTS FROM MATRIX TRACES ------
           | Pseudopotential (local)    :    -5071.69900554231026 |
           | Hartree                    :    -2003.25992043000952 |
           --------------------------------------------------------
           Integrated density           :     7191.99999999888951
           Integrated density tr(KS)    :     7192.00000000000000
================================================================================


                        <<<<< CALCULATION SUMMARY >>>>>                         
|ITER|    RMS GRADIENT   |     TOTAL ENERGY    |   step   |     Epredicted              
   0     0.00004366014720 -11697.44107616902329   0.647859 -11697.50788831912359        
   1     0.00000817401861 -11697.51780595525634   0.056022 -11697.51800846043807        
   2     0.00000376685256 -11697.51804402610287   0.011364 -11697.51805274971957        
   3     0.00000175256295 -11697.51805394329131  <-- CG                                 

=================== Finished the calculation in solvent ========================
= Adjusting the following parameters: 
= read_denskern: F
= read_tightbox_ngwfs: F
= maxit_pen: 0 (restored to user-specified value)
= restart read filename prefix: ""
= restart write filename prefix: ""
================================================================================

================================================================================
IS: Calculation in solvent completed (NGWFs converged).      

Individual components of total energy in solvent:     hartree           kcal/mol
- Usual non-electrostatic DFT terms:    -12900.85128028252075    -8095406.226226
- Electrostatic fixed charge energy:      1202.68872769337622      754698.554603
- Apolar cavitation energy:                  2.29297748235946        1438.865063
- Apolar dispersion-repulsion energy:       -1.64847883650527       -1034.436065
 -------------------------------------------------------------------------------
- Total energy in solvent:              -11697.51805394329131    -7340303.242625

Components of total energy in solvent:                hartree           kcal/mol
- Usual non-electrostatic DFT terms:    -12900.85128028252075    -8095406.226226
- Electrostatic energy:                   1202.68872769337622      754698.554603
- Apolar energy terms:                       0.64449864585419         404.428998
 -------------------------------------------------------------------------------
- Total energy in solvent:              -11697.51805394329131    -7340303.242625

Calculation of free energy of solvation:              hartree           kcal/mol
- Total energy in solvent:         (+)  -11697.51805394329131    -7340303.242625
- Total energy in vacuum:          (-)  -11693.47472841164563    -7337766.017602
 -------------------------------------------------------------------------------
- Total free energy of solvation:           -4.04332553164568       -2537.225023

Components of polar term in f.e. of solvation:        hartree           kcal/mol
- Electrostatic:                            -4.50397970525933       -2826.289875
- Change in nonelectrostatic DFT terms:     -0.18384447223980        -115.364146
 -------------------------------------------------------------------------------
- Polar term in f.e. of solvation:          -4.68782417749912       -2941.654020

Components of free energy of solvation:               hartree           kcal/mol
- Polar term in f.e. of solvation: (+)      -4.68782417749912       -2941.654020
- Apolar (cavitation, dis., rep.): (+)       0.64449864585419         404.428998
 -------------------------------------------------------------------------------
- Total free energy of solvation:           -4.04332553164494       -2537.225023
================================================================================


------------------------------ TIMING INFORMATION ------------------------------
AVERAGE TIME:   35159.274s on     60 node(s)                                    
TOTAL TIME:     35159.275s on     60 node(s)                                    
================= AVERAGE TIMINGS FROM ALL NODES (CUMULATIVE) ==================
|| TAG                                    #calls    cpu time   %total  Gflops ||
|| work_imbalance                       :     1        0.00s   0.000%  ------ ||
|| sparse_set_to_garbage                :   182        0.03s   0.000%  ------ ||
|| parallel_prepare_fd_halos_request    :  1953        0.03s   0.000%  ------ ||
|| ngwfs_initialise_from_radial         :     1        0.10s   0.000%  ------ ||
|| parallel_prepare_fd_halos_alloc      :  1953        0.15s   0.000%  ------ ||
|| basis_extract_function_from_box      :  3577        0.16s   0.000%  ------ ||
|| parallel_prepare_fd_halos_satisfy    :  1953        0.64s   0.002%  ------ ||
|| pseudopotentials_nonlocal_mat        :    31        2.16s   0.006%  ------ ||
|| openbc_locps_radial                  :     1        4.65s   0.013%  ------ ||
|| restart_ngwfs_tightbox_input         :     1        6.42s   0.018%  ------ ||
|| density_init_guess_real              :     1        7.88s   0.022%  ------ ||
|| restart_kernel_read                  :     1       11.04s   0.031%  ------ ||
|| parallel_prepare_fd_halos_comms_imbal:  1953       11.47s   0.033%  ------ ||
|| parallel_prepare_fd_halos_clear      :  1953       19.40s   0.055%  ------ ||
|| sparse_init                          :     2       23.00s   0.065%  ------ ||
|| parallel_prepare_fd_halos_comms_wait :  1953       23.48s   0.067%  ------ ||
|| projectors_func_ovlp_box             :    31       27.31s   0.078%  ------ ||
|| function_ops_brappd_ketppd           :    31       28.99s   0.082%  ------ ||
|| palser_mano_kernel_optimise          :     1       32.08s   0.091%  ------ ||
|| projectors_init_fftbox_recip         :   143       32.27s   0.092%  ------ ||
|| basis_copy_function_to_box           : 58328       41.94s   0.119%  ------ ||
|| fourier_apply_box_pair               :  5156       53.21s   0.151% 560.985 ||
|| ngwf_gradient_coeffs                 :    16       53.89s   0.153%  ------ ||
|| parallel_prepare_fd_halos            :  1953       55.19s   0.157%  ------ ||
|| pseudo_make_structure_factor         :     2       61.77s   0.176%  ------ ||
|| sparse_embed_hotelling_invert_embed  :    31       81.96s   0.233%  ------ ||
|| restart_kernel_write                 :    17       91.63s   0.261%  ------ ||
|| finite_difference_derivative         :  1953      133.65s   0.380%  ------ ||
|| integrals_kinetic                    :    31      151.77s   0.432%  ------ ||
|| projectors_gradient_batch            :   112      152.40s   0.433%  ------ ||
|| basis_dot_function_with_box          : 8.843M     177.47s   0.505%  ------ ||
|| sparse_trace                         :  5490      187.66s   0.534%  ------ ||
|| openbc_locps_on_grid                 :     2      291.84s   0.830%  ------ ||
|| kernel_purify                        :   496      326.37s   0.928%  ------ ||
|| basis_add_function_to_box            : 18.43M     427.93s   1.217%  ------ ||
|| lnv_gradient_norm                    :   160      478.93s   1.362%  ------ ||
|| hamiltonian_energy_components        :     4      533.76s   1.518%  ------ ||
|| kernel_fix                           :   160      603.05s   1.715%  ------ ||
|| ngwf_gradient_build_batch            :   112      763.20s   2.171%  ------ ||
|| integrals_locpot_mat_els_batch       :  1183      792.18s   2.253%  ------ ||
|| restart_ngwfs_tightbox_output        :    14      981.71s   2.792%  ------ ||
|| density_batch_row_sums               :  2268     1066.72s   3.034%  ------ ||
|| ngwf_gradient_batch                  :   112     1069.49s   3.042%  ------ ||
|| ngwf_gradient_lnv                    :    16     1223.64s   3.480%  ------ ||
|| cell_grid_deposit_box_real           : 37312     1331.29s   3.786%  ------ ||
|| cell_grid_extract_box_real           : 42109     1527.65s   4.345%  ------ ||
|| fourier_apply_cell_forward           :  9101     1570.46s   4.467%  84.912 ||
|| fourier_apply_cell_backward          :  9753     1685.37s   4.794%  84.791 ||
|| density_fftbox_deposit_to_cell       : 35316     1952.38s   5.553%  ------ ||
|| sparse_product                       :  6788     2021.27s   5.749%  ------ ||
|| potential_apply_to_ngwf_batch        :  1183     3579.33s  10.180%  ------ ||
|| density_fftbox_interpolate_multiply  : 35316     3667.67s  10.432%  ------ ||
|| xc_energy_potential                  :   325     4249.15s  12.085%  ------ ||
|| integrals_locpot_dbl_grid            :   169     4387.32s  12.478%  ------ ||
|| fourier_apply_box                    : 121.6k    4503.12s  12.808% 757.545 ||
|| multigrid_prepare_bound_cond         :   325     4665.84s  13.271%  ------ ||
|| density_batch_interp_deposit         :  2268     6520.31s  18.545%  ------ ||
|| nlxc_vdw_energy                      :   650     6975.55s  19.840%  ------ ||
|| dl_mg_solver_calls                   :   325     7545.57s  21.461%  ------ ||
|| density_on_dbl_grid                  :   324     8005.48s  22.769%  ------ ||
|| multigrid_calculate_hartree          :   325    12399.89s  35.268%  ------ ||
|| hamiltonian_lhxc_calculate           :   320    24553.93s  69.836%  ------ ||
|| lnv_denskernel_optimise_cg           :    16    29761.82s  84.649%  ------ ||
|| ngwf_cg_optimise                     :     2    34092.12s  96.965%  ------ ||
|| total_time                           :     1    35159.27s 100.000%  ------ ||
================================================================================
Overhead of generating timer report: 
- 0 ms averaging over threads,
- 15 ms ensuring consistency across MPI ranks,
- 0 ms printing in order.

Job completed: 07-03-2020 18:30 (-0000)

Application 39348422 resources: utime ~7043976s, stime ~235699s, Rss ~3780796, inblocks ~368630837, outblocks ~65874421
