 +---------------------------------------------------------------+
 |                                                               |
 |        ####### #     # ####### ####### ####### ######         |
 |        #     # ##    # #          #    #       #     #        |
 |        #     # # #   # #          #    #       #     #        |
 |        #     # #  #  # #####      #    #####   ######         |
 |        #     # #   # # #          #    #       #              |
 |        #     # #    ## #          #    #       #              |
 |        ####### #     # #######    #    ####### #              |
 |                                                               |
 |        Linear-Scaling Ab Initio Total Energy Program          |
 |                                                               |
 |          Release for academic collaborators of ODG            |
 |                                             Version 5.3.2.6.  |
 |                                                               |
 +---------------------------------------------------------------+
 |                                                               |
 |  Authors:                                                     |
 |  Jacek Dziedzic, Peter D. Haynes, Nicholas D. M. Hine,        |
 |  Arash. A. Mostofi, Mike C. Payne and Chris-Kriton Skylaris   |
 |                                                               |
 |  Contributors:                                                |
 |  J. Aarons, L. Andrinopoulos, P. W. Avraam, R. A. Bell,       |
 |  A. Bhandari, G. A. Bramley, R. J. Charlton, S. J. Clark,     |
 |  R. J. Clements, G. C. Constantinescu, F. Corsetti,           |
 |  N. Corsini, O. Dieguez, S. M. M. Dubois, K. K. B. Duff,      |
 |  J. M. Escartin, A. Greco, H. Helal, Q. O. Hill, L. P. Lee,   |
 |  J.-H. Li, E. B. Linscott, G. Moynihan, D. D. O`Regan,        |
 |  O. K. Okan, M. J. S. Phipps, C. J. Pickard,                  |
 |  J. C. A. Prentice, M. I. J. Probert, L. E. Ratcliff,         |
 |  M. Robinson, A. Ruiz Serrano, J. S. Spencer, E. W. Tait,     |
 |  G. Teobaldi, D. Turban, V. Vitale, K. A. Wilkinson,          |
 |  C. Weber, J. C. Womack, N. Yeung and T. J. Zuehlsdorff       |
 |                                                               |
 |                                   Copyright (c) 2004-2019     |
 |                                                               |
 |  Please cite:                                                 |
 |  "Introducing ONETEP: Linear-scaling density functional       |
 |   simulations on parallel computers".                         |
 |   C.-K. Skylaris, P. D. Haynes, A. A. Mostofi, M. C. Payne.   |
 |   J. Chem. Phys. 122 084119 (2005).                           |
 |                                                               |
 |          in all publications arising from your use of ONETEP. |
 |                                                               |
 +---------------------------------------------------------------+
 |                                                               |
 |   ONETEP is based on developments described in the following  |
 |   publications:                                               |
 |                                                               |
 |  "Nonorthogonal generalized Wannier function pseudopotential  |
 |   plane-wave method".                                         |
 |   C.-K. Skylaris, A. A. Mostofi, P. D. Haynes, O. Dieguez,    |
 |   M. C. Payne.                                                |
 |   Phys. Rev. B 66 035119 (2002).                              |
 |                                                               |
 |  "Preconditioned iterative minimization for linear-scaling    |
 |   electronic structure calculations".                         |
 |   A. A. Mostofi, P. D. Haynes, C.-K. Skylaris, M. C. Payne.   |
 |   J. Chem. Phys. 119(17), pp.8842-8848 (2003).                |
 |                                                               |
 |  "Total-energy calculations on a real space grid with         |
 |   localized functions and a plane-wave basis".                |
 |   A. A. Mostofi, C.-K. Skylaris, P. D. Haynes, M. C. Payne.   |
 |   Comput. Phys. Commun. 147, pp.788-802 (2002).               |
 |                                                               |
 |  "Accurate kinetic energy evaluation in electronic structure  |
 |   calculations with localized functions on real space grids"  |
 |   C.-K. Skylaris, A. A. Mostofi, P. D. Haynes, C. J. Pickard, |
 |   M. C. Payne.                                                |
 |   Comput. Phys. Commun. 140, pp.315-322 (2001).               |
 |                                                               |
 |  "Accurate ionic forces and geometry optimization in linear-  |
 |   scaling density-functional theory with local orbitals"      |
 |   N. D. M. Hine, M. Robinson, P. D. Haynes, C.-K. Skylaris,   |
 |   M. C. Payne, and A. A. Mostofi.                             |
 |   Phys. Rev. B 83 195102 (2011).                              |
 |                                                               |
 +---------------------------------------------------------------+

Job started: 12-02-2020 17:31 (-0000)
 
Reading parameters from file "host_15681.dat" ...... done

If your calculation crashes here, before "Checking processes and threads..."
is displayed, then your stack size is insufficient.
If so, use "ulimit -s unlimited" at runtime.
You can disable this check with "check_stack_size F".

Checking processes and threads...
   Determining the default number of threads...
      No default threads set at compilation time: defaulting to 1.
      OpenMP library call suggests 4 threads.
      Hybrid MPI-OpenMP compilation detected.
      Number of MPI processes > 1.
      OMP_NUM_THREADS environment variable present and
      its value matches the one obtained from the OpenMP library call.
      Using this value as default.
      Default threads: 4
      Default applies to threads_max and threads_num_fftboxes.
      Settings in the input file override this default.
   ... done

   Running with 30 MPI processes.
   There are 4 MPI processes running on the same node as the root process.
   Each MPI process is using: 
               1 threads for simulation cell FFTs.
               1 threads for parallel FFT box operations.
               4 threads for loops over batched FFT box operations.
               4 threads in other parallel regions.
... done

Basic input checks...... done

Reading geometry and species blocks from file "host_15681.dat" ...
  <species_atomic_set> block not found: NGWF initialisation set to SOLVE
IS: Dielectric excluded regions:
    - NONE.
    
  Number of PPD points along a3 set to 1.  This is 
  the default value, it may have been provided also in the input file.
... done
 Writing xyz coordinates to file "host_15681.xyz" ... done


--------------------------------------------------------------------------------
---------------------------------- INPUT FILE ----------------------------------
--------------------------------------------------------------------------------

cutoff_energy       : 800 eV                                                    
xc_functional VV10                                                              
task SINGLEPOINT                                                                
write_xyz true                                                                  
output_detail VERBOSE                                                           
ngwf_threshold_orig : 0.000002                                                  
kernel_cutoff       : 1000                                                      
k_zero              : 3.5                                                       
elec_cg_max 0                                                                   
occ_mix 1.0                                                                     
dispersion 0                                                                    
maxit_ngwf_cg 40                                                                
minit_lnv 10                                                                    
maxit_lnv 10                                                                    
write_denskern T                                                                
write_tightbox_ngwfs T                                                          
charge 9                                                                        
is_implicit_solvent T                                                           
is_auto_solvation T                                                             
is_include_apolar T                                                             
is_smeared_ion_rep T                                                            
is_solvent_surf_tension 4.7624E-5 Ha/bohr**2                                    
is_apolar_scaling_factor 0.281075                                               
is_solvation_beta 1.3                                                           
is_density_threshold 0.00035                                                    
is_bulk_permittivity 78.54                                                      
is_dielectric_model fix_initial                                                 
is_smeared_ion_width 0.8                                                        
mg_defco_fd_order 8                                                             
is_bc_coarseness 10                                                             
is_bc_surface_coarseness 1                                                      
fine_grid_scale 2.0                                                             
%block species                                                                  
N   N   7 4 8.0                                                                 
H   H   1 1 8.0                                                                 
C   C   6 4 8.0                                                                 
S   S  16 9 8.0                                                                 
O   O   8 4 8.0                                                                 
%endblock species                                                               
%block species_pot                                                              
N   N_00.recpot                                                                 
H   H_04.recpot                                                                 
C   C_01.recpot                                                                 
S   S_00.recpot                                                                 
O   O_02.recpot                                                                 
%endblock species_pot                                                           
%block lattice_cart                                                             
139.898   0.000   0.000                                                         
0.000 144.87   0.000                                                            
0.000   0.000   168.12                                                          
%endblock lattice_cart                                                          
%block positions_abs                                                            
     Hash =  -000005113973788727865997
%endblock positions_abs                                                         

--------------------------------------------------------------------------------
-------------------------------- END INPUT FILE --------------------------------
--------------------------------------------------------------------------------


 
 ESDF WARNING(1): "kernelcutoff" (esdf_physical) has no units. Assume "bohr".
 ESDF WARNING(2): "kzero" (esdf_physical) has no units. Assume "1/bohr".
 ESDF WARNING(3
 ): "issmearedionwidth" (esdf_physical) has no units. Assume "bohr".
<<<<<<<<<<<<<<<<<<<<<<<<<<<<<<<<< Full system >>>>>>>>>>>>>>>>>>>>>>>>>>>>>>>>>>
<<<<<<<<<<<<<<<<<<<<<<<<< Pseudopotential information >>>>>>>>>>>>>>>>>>>>>>>>>>
File: N_00.recpot [ 2001 points up to Gmax=  52.9 (1/bohr)]
  Atomic number:  7;  ionic charge:  5.000000
    Shell 1: l = 0; rc = 1.48 bohr
File: H_04.recpot [ 2001 points up to Gmax=  52.9 (1/bohr)]
  Atomic number:  1;  ionic charge:  1.000000
    Local potential
File: C_01.recpot [ 2001 points up to Gmax=  52.9 (1/bohr)]
  Atomic number:  6;  ionic charge:  4.000000
    Shell 1: l = 0; rc = 1.48 bohr
File: S_00.recpot [ 2001 points up to Gmax=  52.9 (1/bohr)]
  Atomic number: 16;  ionic charge:  6.000000
    Shell 1: l = 0; rc = 1.90 bohr
    Shell 2: l = 2; rc = 1.84 bohr
File: O_02.recpot [ 2001 points up to Gmax=  52.9 (1/bohr)]
  Atomic number:  8;  ionic charge:  6.000000
    Shell 1: l = 0; rc = 1.31 bohr
<<<<<<<<<<<<<<<<<<<<<<<<<<<<<<<<<<<<<<<<>>>>>>>>>>>>>>>>>>>>>>>>>>>>>>>>>>>>>>>>

-------------------------- Atom counting information ---------------------------
Symbol    Natoms    Nngwfs    Nprojs
  N        236       944       236
  H       1311      1311         0
  C        810      3240       810
  S          6        54        36
  O        239       956       239
.......   ......    ......    ......
Totals:   2602      6505      1321
--------------------------------------------------------------------------------

=============================== PSINC grid sizes ===============================
                      Simulation cell:  275 x 286 x 336
                              FFT-box:   99 x  99 x  99
                                  PPD:    5 x  11 x   1
Grid space d1=  0.508720000000a0 (KE cutoff=  29.35259Eh = 798.72452eV)
Grid space d2=  0.506538461538a0 (KE cutoff=  29.60596Eh = 805.61916eV)
Grid space d3=  0.500357142857a0 (KE cutoff=  30.34197Eh = 825.64705eV)
================================================================================

********************* Fourier parallelisation information **********************
       Coarse grid (whole simulation cell) dimensions:    275   286   336
          Real-space ('12') slabs/node (min max mean):     11    12    11
         Recip-space ('23') slabs/node (min max mean):      4     5     4
********************************************************************************

********************* Fourier parallelisation information **********************
       Double grid (whole simulation cell) dimensions:    550   572   672
          Real-space ('12') slabs/node (min max mean):     22    23    22
         Recip-space ('23') slabs/node (min max mean):      9    10     9
********************************************************************************
ONETEP fine grid is 550 x 572 x 672 gridpoints, 139.8980 x 144.8700 x 168.1200 bohr.
FD multigrid is     545 x 569 x 665 gridpoints, 138.6262 x 144.1102 x 166.3688 bohr.


Calculating local pseudopotential in open BC on a radial grid ...
Discrepancy between calculated realspace psloc and -Z/x on [5a0,262.342a0]:
max |rel. diff| # avg |rel. diff| #  avg rel. diff #  f # pseudopotential file
 0.000258413739    0.000003708905   0.000000070960   56  'N_00.recpot'
 0.000398954828    0.000016185045  -0.000000074508   56  'H_04.recpot'
 0.000375346405    0.000017198923   0.000000144535   56  'C_01.recpot'
 0.000466850533    0.000020125278   0.000000461745   56  'S_00.recpot'
 0.000671508953    0.000026045986   0.000000155458   56  'O_02.recpot'
... done

Atom SCF Calculation for N  : Z (AE atom) =   7 : Z (PS atom) =   5
Config String:
Orbitals (num,occ):  2     2.00 3.00
Orbitals   (num,l):  2        0    1
Real-space Grid (nr,dr,rmax): 1203    0.0066555740    8.0000000000
Spherical Bessel Basis (nsws,lmax,cutoff):   47    1  176.3951722778
Confining potential (l,width,scale):  0    3.0000000000  100.0000000000
Confining potential (l,width,scale):  1    3.0000000000  100.0000000000
  1         -4.7366890484   -3.4501654188    7.0523828109   -1.9619316308
  2         -9.7225420322   -2.0763080851    8.3068355706   -2.2908832437
  3         -9.7134243553   -2.1270543915    8.2534567806   -2.2819809971
  4         -9.7235185949   -2.1427582218    8.2369947390   -2.2802814234
  5         -9.7258373845   -2.1477905863    8.2317116314   -2.2798536235
  6         -9.7268932325   -2.1503512400    8.2290229806   -2.2796830099
  7         -9.7273189469   -2.1516634231    8.2276451699   -2.2796169657
  8         -9.7274675212   -2.1523365544    8.2269384796   -2.2795940092
  9         -9.7275041773   -2.1526817003    8.2265762312   -2.2795881371
 10         -9.7275008637   -2.1528585007    8.2263907413   -2.2795884060
 11         -9.7274868305   -2.1529489544    8.2262958841   -2.2795903922
 12         -9.7274755655   -2.1529859230    8.2262571347   -2.2795920452
 13         -9.7274662327   -2.1530083995    8.2262335832   -2.2795934369
 14         -9.7274589439   -2.1530220534    8.2262192809   -2.2795945372
 15         -9.7274534633   -2.1530303399    8.2262106039   -2.2795953734
 16         -9.7274494492   -2.1530353634    8.2262053452   -2.2795959920
 17         -9.7274465654   -2.1530384053    8.2262021621   -2.2795964406
 18         -9.7274445237   -2.1530402447    8.2262002378   -2.2795967611
 19         -9.7274430947   -2.1530413553    8.2261990762   -2.2795969874
 20         -9.7274421038   -2.1530420249    8.2261983762   -2.2795971458
 21         -9.7274414219   -2.1530424277    8.2261979551   -2.2795972557
 22         -9.7274409555   -2.1530426696    8.2261977024   -2.2795973315
 23         -9.7274406382   -2.1530428144    8.2261975510   -2.2795973835
 24         -9.7274404232   -2.1530429010    8.2261974606   -2.2795974190
 25         -9.7274402783   -2.1530429525    8.2261974067   -2.2795974432
 26         -9.7274401808   -2.1530429831    8.2261973748   -2.2795974596
Atom SCF converged after  26 iterations to a total energy of     -9.72744018

Atom SCF Calculation for H  : Z (AE atom) =   1 : Z (PS atom) =   1
Config String:
Orbitals (num,occ):  1     1.00
Orbitals   (num,l):  1        0
Real-space Grid (nr,dr,rmax): 1203    0.0066555740    8.0000000000
Spherical Bessel Basis (nsws,lmax,cutoff):   47    0  176.3951722778
Confining potential (l,width,scale):  0    3.0000000000  100.0000000000
  1         -0.3178661827   -0.2469879004    0.2820953124   -0.2487802071
  2         -0.3961824611   -0.2455070831    0.2902209900   -0.2567664324
  3         -0.4406462424   -0.2424227551    0.2948173255   -0.2622129794
  4         -0.4569739054   -0.2416771342    0.2960118236   -0.2639986016
  5         -0.4627745219   -0.2416114401    0.2961916694   -0.2644992007
  6         -0.4648634749   -0.2416666130    0.2961598921   -0.2646237065
  7         -0.4656347011   -0.2417155160    0.2961132802   -0.2646490719
  8         -0.4659271144   -0.2417438448    0.2960836537   -0.2646515522
  9         -0.4660407254   -0.2417580788    0.2960682004   -0.2646501482
 10         -0.4660857867   -0.2417647566    0.2960608087   -0.2646488305
 11         -0.4661039568   -0.2417677717    0.2960574330   -0.2646480606
 12         -0.4661113773   -0.2417691018    0.2960559329   -0.2646476727
 13         -0.4661144368   -0.2417696800    0.2960552775   -0.2646474903
 14         -0.4661157072   -0.2417699291    0.2960549942   -0.2646474079
 15         -0.4661162374   -0.2417700356    0.2960548727   -0.2646473715
 16         -0.4661164596   -0.2417700810    0.2960548208   -0.2646473556
 17         -0.4661165529   -0.2417701003    0.2960547987   -0.2646473488
Atom SCF converged after  17 iterations to a total energy of     -0.46611655

Atom SCF Calculation for C  : Z (AE atom) =   6 : Z (PS atom) =   4
Config String:
Orbitals (num,occ):  2     2.00 2.00
Orbitals   (num,l):  2        0    1
Real-space Grid (nr,dr,rmax): 1203    0.0066555740    8.0000000000
Spherical Bessel Basis (nsws,lmax,cutoff):   47    1  176.3951722778
Confining potential (l,width,scale):  0    3.0000000000  100.0000000000
Confining potential (l,width,scale):  1    3.0000000000  100.0000000000
  1         -5.2812238291   -1.3293161250    4.5135249990   -1.4716766231
  2         -5.3996591362   -1.3542148509    4.4876064308   -1.4645117417
  3         -5.4111847148   -1.3757224423    4.4645718036   -1.4593107263
  4         -5.4199203659   -1.3833334895    4.4563636676   -1.4579885221
  5         -5.4226876204   -1.3865104950    4.4529090432   -1.4575385943
  6         -5.4235070726   -1.3878131251    4.4514866831   -1.4573882877
  7         -5.4237271252   -1.3883401868    4.4509094528   -1.4573411661
  8         -5.4237693051   -1.3885521813    4.4506766230   -1.4573281030
  9         -5.4237656430   -1.3886371046    4.4505830704   -1.4573255254
 10         -5.4237547927   -1.3886709976    4.4505456041   -1.4573257244
 11         -5.4237478594   -1.3886817763    4.4505336403   -1.4573262476
 12         -5.4237429748   -1.3886873440    4.4505274417   -1.4573266921
 13         -5.4237397042   -1.3886902144    4.4505242350   -1.4573270222
 14         -5.4237375865   -1.3886916908    4.4505225792   -1.4573272507
 15         -5.4237362473   -1.3886924482    4.4505217259   -1.4573274021
 16         -5.4237354152   -1.3886928356    4.4505212873   -1.4573274996
 17         -5.4237349050   -1.3886930331    4.4505210623   -1.4573275610
 18         -5.4237345954   -1.3886931333    4.4505209473   -1.4573275991
 19         -5.4237344092   -1.3886931840    4.4505208887   -1.4573276224
 20         -5.4237342980   -1.3886932094    4.4505208590   -1.4573276366
 21         -5.4237342320   -1.3886932221    4.4505208440   -1.4573276451
Atom SCF converged after  21 iterations to a total energy of     -5.42373423

Atom SCF Calculation for S  : Z (AE atom) =  16 : Z (PS atom) =   6
Config String:
Orbitals (num,occ):  3     2.00 4.00 0.00
Orbitals   (num,l):  3        0    1    2
Real-space Grid (nr,dr,rmax): 1203    0.0066555740    8.0000000000
Spherical Bessel Basis (nsws,lmax,cutoff):   47    2  176.3951722778
Confining potential (l,width,scale):  0    3.0000000000  100.0000000000
Confining potential (l,width,scale):  1    3.0000000000  100.0000000000
Confining potential (l,width,scale):  2    3.0000000000  100.0000000000
  1        -12.4916237786   -1.0485914554   10.1554312477   -2.4822447765
  2         -9.9747083603   -2.4807597367    8.3138131863   -2.0618837268
  3        -10.1811370131   -2.3153496392    8.4906092179   -2.1137756843
  4        -10.1856385898   -2.2984912006    8.5093862195   -2.1218167101
  5        -10.1891317560   -2.2894783333    8.5195006030   -2.1261392389
  6        -10.1911142562   -2.2849160124    8.5246320974   -2.1283733378
  7        -10.1921506977   -2.2826473329    8.5271859473   -2.1295140514
  8        -10.1926851273   -2.2815219985    8.5284534218   -2.1300957983
  9        -10.1929632671   -2.2809620806    8.5290843811   -2.1303933136
 10        -10.1931100895   -2.2806822783    8.5293998452   -2.1305460626
 11        -10.1931885828   -2.2805418782    8.5295582201   -2.1306248009
 12        -10.1932309625   -2.2804711729    8.5296380158   -2.1306655459
 13        -10.1932540142   -2.2804354512    8.5296783476   -2.1306867097
 14        -10.1932666242   -2.2804173494    8.5296987927   -2.1306977435
 15        -10.1932735535   -2.2804081489    8.5297091868   -2.1307035175
 16        -10.1932773756   -2.2804034581    8.5297144867   -2.1307065505
 17        -10.1932794908   -2.2804010586    8.5297171976   -2.1307081499
 18        -10.1932806648   -2.2803998268    8.5297185890   -2.1307089965
 19        -10.1932813181   -2.2803991920    8.5297193057   -2.1307094466
 20        -10.1932816826   -2.2803988634    8.5297196763   -2.1307096867
 21        -10.1932818864   -2.2803986926    8.5297198688   -2.1307098154
 22        -10.1932820006   -2.2803986034    8.5297199692   -2.1307098847
 23        -10.1932820648   -2.2803985565    8.5297200219   -2.1307099221
Atom SCF converged after  23 iterations to a total energy of    -10.19328206

Atom SCF Calculation for O  : Z (AE atom) =   8 : Z (PS atom) =   6
Config String:
Orbitals (num,occ):  2     2.00 4.00
Orbitals   (num,l):  2        0    1
Real-space Grid (nr,dr,rmax): 1203    0.0066555740    8.0000000000
Spherical Bessel Basis (nsws,lmax,cutoff):   47    1  176.3951722778
Confining potential (l,width,scale):  0    3.0000000000  100.0000000000
Confining potential (l,width,scale):  1    3.0000000000  100.0000000000
  1         -1.9497477053   -7.5870966769   10.1554312477   -2.4822447765
  2        -15.9466298225   -3.1778351734   13.6353006614   -3.2931224232
  3        -16.0387051750   -3.0909030611   13.7305651010   -3.3194522996
  4        -15.9025031450   -3.1083023605   13.7128101414   -3.3180850501
  5        -15.8912953362   -3.1033022259   13.7185404266   -3.3206942093
  6        -15.8793912992   -3.1043100674   13.7175820250   -3.3209366960
  7        -15.8748748605   -3.1043975610   13.7175531476   -3.3211845618
  8        -15.8725354084   -3.1044655610   13.7175148333   -3.3213149154
  9        -15.8713193866   -3.1045129589   13.7174824743   -3.3213832909
 10        -15.8706863385   -3.1045436851   13.7174593895   -3.3214192053
 11        -15.8703562731   -3.1045627330   13.7174442347   -3.3214381098
 12        -15.8701839150   -3.1045741887   13.7174347673   -3.3214480859
 13        -15.8700937727   -3.1045809294   13.7174290448   -3.3214533647
 14        -15.8700465571   -3.1045848305   13.7174256662   -3.3214561658
 15        -15.8700217888   -3.1045870593   13.7174237063   -3.3214576563
 16        -15.8700087767   -3.1045883194   13.7174225849   -3.3214584516
 17        -15.8700019307   -3.1045890258   13.7174219502   -3.3214588771
 18        -15.8699983237   -3.1045894190   13.7174215942   -3.3214591053
 19        -15.8699964206   -3.1045896366   13.7174213960   -3.3214592281
 20        -15.8699954151   -3.1045897563   13.7174212864   -3.3214592942
 21        -15.8699948832   -3.1045898219   13.7174212260   -3.3214593299
 22        -15.8699946014   -3.1045898577   13.7174211930   -3.3214593493
 23        -15.8699944520   -3.1045898771   13.7174211750   -3.3214593597
 24        -15.8699943726   -3.1045898877   13.7174211652   -3.3214593654
Atom SCF converged after  24 iterations to a total energy of    -15.86999437

========================== Calculation in vacuum ==============================
= Adjusting the following parameters: 
= is_implicit_solvent: F
= is_include_apolar: F
= write_denskern: T
= write_tightbox_ngwfs: T
= restart read filename prefix: ""
= restart write filename prefix: "vacuum_"
===============================================================================

Determining parallel strategy ...
... using space-filling curve
... NGWF load balancing: max    217;  min    216;  average    217
... Projector load balancing: max     47;  min     43;  average     44
... done
Calculating direct Ion-Ion energy ...
Ion-Ion Energy        :    806647.36061806569342
Basis initialisation ...... NGWF spheres initialised
... Projector spheres initialised
... NGWF tight boxes initialised
... Tight-boxes gathered
... NGWF basis size (local,global):    1497163  45060851
... Nonlocal pseudopotential projector initialisation
... done

========================== Sparse matrix information ===========================
                        Overlap matrix filling:   6.65%
                        Density kernel filling: 100.00%
              NGWF-Proj overlap matrix filling:   1.77%
                    Hamiltonian matrix filling:   7.49%
                  NGWF diagonal matrix filling:   0.05%
                             KS matrix filling: 100.00% 
                           KSKS matrix filling: 100.00% 
================================================================================

Sparse matrix initialisation ... done

Generating smeared ion density ... done
Smeared ion self correction:     -14457.169564
Smeared ion non-self correction: -806599.308771
NGWF initialisation ...... done
============ Calculation of NGWF S^-1 using Hotelling algorithm ================ 
         Iteration  |  Frobenius norm and Maximum abs value    (of I-S*S_n^-1)   
               1       0.78462102E+02     0.98229059E+00
               2       0.76595257E+02     0.96504905E+00
               3       0.73572104E+02     0.93188528E+00
               4       0.69276975E+02     0.87142698E+00
               5       0.63935334E+02     0.76765636E+00
               6       0.57948831E+02     0.70254238E+00
               7       0.51948775E+02     0.66713467E+00
               8       0.46397378E+02     0.64410423E+00
               9       0.40281727E+02     0.60390100E+00
              10       0.31944017E+02     0.53299779E+00
              11       0.21345623E+02     0.42326532E+00
              12       0.10815690E+02     0.27872851E+00
              13       0.35197804E+01     0.13478864E+00
              14       0.54742437E+00     0.34291747E-01
              15       0.26702619E-01     0.26170242E-02
              16       0.15669133E-03     0.20110789E-04
              17       0.86834418E-08     0.14844944E-08
              18       0.91871375E-13     0.57731597E-14
================================================================================
Calculating local pseudopotential in open BC on the fine real space grid ...
... done

MG BCs: +ve charge blocks (gridpoints):     20532 (   16044796).
MG BCs: -ve charge blocks (gridpoints):      8030 (    1075345).
MG BCs:     Elided blocks (gridpoints):    189513 (  189099684).
MG BCs: Computational effort saved:  99.9861%.
MG BCs: Charge after coarse-graining:           -9.0002342.
MG DL_MG: Calling solver with defect correction order = 8
MG DL_MG: Solver finished
MG Hartree energy from (\int phi*rho dr):              1452.491779
MG Hartree energy from (\int eps (grad phi)^2 dr):     1451.879624
MG Discrepancy due to finite box and discretization:     -0.612154 (  -0.04215%)
MG Correction to account for finite box:                  0.454885
MG Remaining discrepancy, due to discretization:         -0.157270 (  -0.01083%)
Up spin density kernel initialisation ... 
======= Optimisation of K by Palser-Manolopoulos canonical purification ======== 
         Iteration  |  Band structure energy |    c_n   
               1       -2546.49098208176201    0.5275600
               2       -2722.05423124903245    0.5177605
               3       -2902.39552751906785    0.5160741
               4       -3053.49620326226614    0.5295725
               5       -3146.92295884756277    0.5655452
               6       -3186.21590368000034    0.6107587
               7       -3199.59097925789820    0.6225093
               8       -3205.41009604211285    0.6216447
               9       -3208.23190039870769    0.6374972
              10       -3209.39671009745462    0.6629123
              11       -3209.85528111918711    0.6807711
              12       -3210.05658767354589    0.6711177
              13       -3210.16435924114330    0.6249782
              14       -3210.23137099200676    0.5507387
              15       -3210.26899994508040    0.4558131
              16       -3210.27899039933709    0.4056569
              17       -3210.28011853056159    0.4348682
              18       -3210.28090424503125    0.4727784
              19       -3210.28134371670149    0.4947635
              20       -3210.28144508628111    0.4997923
              21       -3210.28144937408342    0.4999995
              22       -3210.28144938134574    0.4999995
Termination criterion satisfied: band energy change below threshold.
Final occupancy bounds: [    0.00000000000000:    1.00000000000000]
Closest occupancy to 0.5:     1.00000000000000
================================================================================
... done

Writing density kernel to file "host_15681.vacuum_dkn" ... done

>>> Optimising kernel for current NGWFs:
   Initial electron number for spin 1:    7192.00000000
     Final electron number for spin 1:    7192.00000000

=================== Penalty functional idempotency correction ==================
 RMS occupancy error at iteration   1:  0.000000 (step -0.5000 Ne1=   7192.0000)
            Final RMS occupancy error   :  0.000000 (Ne1=   7192.0000)
               Final occupancy bounds   : [ -0.0000,  1.0000]
================================================================================

................................................................................
<<<<<<<<<<<<<< LNV (Original version) density kernel optimisation >>>>>>>>>>>>>>
~~~~~~~~~~~~~~~~~~~~~~~~~~~~~~~~~~~~~~~~~~~~~~~~~~~~~~~~~~~~~~~~~~~~~~~~~~~~~~~~
   iter  |      energy (Eh)       | rms gradient |  commutator  |   dE (Eh)
MG BCs: +ve charge blocks (gridpoints):     31684 (   17269701).
MG BCs: -ve charge blocks (gridpoints):      8387 (    1104351).
MG BCs:     Elided blocks (gridpoints):    178354 (  187845773).
MG BCs: Computational effort saved:  99.9806%.
MG BCs: Charge after coarse-graining:           -9.0010248.
MG DL_MG: Calling solver with defect correction order = 8
MG DL_MG: Solver finished
MG Hartree energy from (\int phi*rho dr):              1415.069064
MG Hartree energy from (\int eps (grad phi)^2 dr):     1414.411419
MG Discrepancy due to finite box and discretization:     -0.657644 (  -0.04647%)
MG Correction to account for finite box:                  0.456943
MG Remaining discrepancy, due to discretization:         -0.200701 (  -0.01418%)
      ideal mu1:      -0.731053116374
             Q0:  -11525.567992450320
             G0:    -144.679349291050
   RMS gradient:       0.001849081155
MG BCs: +ve charge blocks (gridpoints):     31672 (   17347226).
MG BCs: -ve charge blocks (gridpoints):      8278 (    1087072).
MG BCs:     Elided blocks (gridpoints):    178366 (  187785527).
MG BCs: Computational effort saved:  99.9806%.
MG BCs: Charge after coarse-graining:           -9.0010459.
MG DL_MG: Calling solver with defect correction order = 8
MG DL_MG: Solver finished
MG Hartree energy from (\int phi*rho dr):              1435.474860
MG Hartree energy from (\int eps (grad phi)^2 dr):     1434.834364
MG Discrepancy due to finite box and discretization:     -0.640496 (  -0.04462%)
MG Correction to account for finite box:                  0.456350
MG Remaining discrepancy, due to discretization:         -0.184146 (  -0.01283%)
     Trial step:       0.500000000000
             Q1:  -11536.641408009571
 Quadratic coef:      61.266259086275
 Linear coef   :     -72.339674645525
           Qmin:  -11546.921624146893
Quadratic minimum step length (  0.295185619803) accepted
    Initial Ne1:    7192.00000000
      Final Ne1:    7192.00000000

=================== Penalty functional idempotency correction ==================
 RMS occupancy error at iteration   1:  0.003436 (step -0.4882 Ne1=   7192.0000)
 RMS occupancy error at iteration   2:  0.000026 (step -0.5001 Ne1=   7192.0000)
            Final RMS occupancy error   :  0.000000 (Ne1=   7192.0000)
               Final occupancy bounds   : [  0.0000,  1.0000]
================================================================================

    1        -1.152556799245E+04     1.8491E-03     1.6725E-03
MG BCs: +ve charge blocks (gridpoints):     31656 (   17316741).
MG BCs: -ve charge blocks (gridpoints):      8330 (    1094803).
MG BCs:     Elided blocks (gridpoints):    178381 (  187808281).
MG BCs: Computational effort saved:  99.9806%.
MG BCs: Charge after coarse-graining:           -9.0010369.
MG DL_MG: Calling solver with defect correction order = 8
MG DL_MG: Solver finished
MG Hartree energy from (\int phi*rho dr):              1419.052883
MG Hartree energy from (\int eps (grad phi)^2 dr):     1418.406425
MG Discrepancy due to finite box and discretization:     -0.646458 (  -0.04556%)
MG Correction to account for finite box:                  0.456446
MG Remaining discrepancy, due to discretization:         -0.190012 (  -0.01339%)
      ideal mu1:      -0.764854625733
             Q0:  -11547.345756808412
             G0:     -11.661046580819
   RMS gradient:       0.000521239065
MG BCs: +ve charge blocks (gridpoints):     31660 (   17332891).
MG BCs: -ve charge blocks (gridpoints):      8299 (    1089942).
MG BCs:     Elided blocks (gridpoints):    178378 (  187796992).
MG BCs: Computational effort saved:  99.9806%.
MG BCs: Charge after coarse-graining:           -9.0010412.
MG DL_MG: Calling solver with defect correction order = 8
MG DL_MG: Solver finished
MG Hartree energy from (\int phi*rho dr):              1423.634326
MG Hartree energy from (\int eps (grad phi)^2 dr):     1422.991517
MG Discrepancy due to finite box and discretization:     -0.642810 (  -0.04515%)
MG Correction to account for finite box:                  0.456182
MG Remaining discrepancy, due to discretization:         -0.186628 (  -0.01311%)
     Trial step:       0.384178096592
             Q1:  -11550.106881175656
 Quadratic coef:       1.718794312452
 Linear coef   :      -4.479918679695
           Qmin:  -11550.264906475026
Quadratic minimum step length (  0.500666839187) accepted
    Initial Ne1:    7191.99990277
      Final Ne1:    7192.00000000

=================== Penalty functional idempotency correction ==================
 RMS occupancy error at iteration   1:  0.001818 (step -0.4930 Ne1=   7192.0000)
 RMS occupancy error at iteration   2:  0.000010 (step -0.5001 Ne1=   7192.0000)
            Final RMS occupancy error   :  0.000000 (Ne1=   7192.0000)
               Final occupancy bounds   : [  0.0000,  1.0000]
================================================================================

    2        -1.154734575681E+04     5.2124E-04     4.7145E-04    -2.1778E+01
MG BCs: +ve charge blocks (gridpoints):     31664 (   17337884).
MG BCs: -ve charge blocks (gridpoints):      8292 (    1088526).
MG BCs:     Elided blocks (gridpoints):    178374 (  187793415).
MG BCs: Computational effort saved:  99.9806%.
MG BCs: Charge after coarse-graining:           -9.0010424.
MG DL_MG: Calling solver with defect correction order = 8
MG DL_MG: Solver finished
MG Hartree energy from (\int phi*rho dr):              1425.063577
MG Hartree energy from (\int eps (grad phi)^2 dr):     1424.421786
MG Discrepancy due to finite box and discretization:     -0.641791 (  -0.04504%)
MG Correction to account for finite box:                  0.456120
MG Remaining discrepancy, due to discretization:         -0.185670 (  -0.01303%)
      ideal mu1:      -0.782541552013
             Q0:  -11550.300086210016
             G0:      -1.843308935648
   RMS gradient:       0.000207503870
MG BCs: +ve charge blocks (gridpoints):     31668 (   17337451).
MG BCs: -ve charge blocks (gridpoints):      8300 (    1089312).
MG BCs:     Elided blocks (gridpoints):    178369 (  187793062).
MG BCs: Computational effort saved:  99.9806%.
MG BCs: Charge after coarse-graining:           -9.0010420.
MG DL_MG: Calling solver with defect correction order = 8
MG DL_MG: Solver finished
MG Hartree energy from (\int phi*rho dr):              1423.486137
MG Hartree energy from (\int eps (grad phi)^2 dr):     1422.844536
MG Discrepancy due to finite box and discretization:     -0.641600 (  -0.04507%)
MG Correction to account for finite box:                  0.456065
MG Remaining discrepancy, due to discretization:         -0.185535 (  -0.01303%)
     Trial step:       0.438571810888
             Q1:  -11550.764396633138
 Quadratic coef:       0.344112914812
 Linear coef   :      -0.808423337933
           Qmin:  -11550.774892781626
Quadratic minimum step length (  0.515167655761) accepted
    Initial Ne1:    7191.99995644
      Final Ne1:    7192.00000000

=================== Penalty functional idempotency correction ==================
 RMS occupancy error at iteration   1:  0.000598 (step -0.4976 Ne1=   7192.0000)
 RMS occupancy error at iteration   2:  0.000001 (step -0.5000 Ne1=   7192.0000)
            Final RMS occupancy error   :  0.000000 (Ne1=   7192.0000)
               Final occupancy bounds   : [  0.0000,  1.0000]
================================================================================

    3        -1.155030008621E+04     2.0750E-04     1.8768E-04    -2.9543E+00
MG BCs: +ve charge blocks (gridpoints):     31670 (   17337347).
MG BCs: -ve charge blocks (gridpoints):      8299 (    1089469).
MG BCs:     Elided blocks (gridpoints):    178367 (  187793009).
MG BCs: Computational effort saved:  99.9806%.
MG BCs: Charge after coarse-graining:           -9.0010420.
MG DL_MG: Calling solver with defect correction order = 8
MG DL_MG: Solver finished
MG Hartree energy from (\int phi*rho dr):              1423.217607
MG Hartree energy from (\int eps (grad phi)^2 dr):     1422.576030
MG Discrepancy due to finite box and discretization:     -0.641577 (  -0.04508%)
MG Correction to account for finite box:                  0.456056
MG Remaining discrepancy, due to discretization:         -0.185521 (  -0.01304%)
      ideal mu1:      -0.783323494570
             Q0:  -11550.779429842718
             G0:      -0.448922094390
   RMS gradient:       0.000102445821
MG BCs: +ve charge blocks (gridpoints):     31670 (   17338277).
MG BCs: -ve charge blocks (gridpoints):      8299 (    1089293).
MG BCs:     Elided blocks (gridpoints):    178367 (  187792255).
MG BCs: Computational effort saved:  99.9806%.
MG BCs: Charge after coarse-graining:           -9.0010422.
MG DL_MG: Calling solver with defect correction order = 8
MG DL_MG: Solver finished
MG Hartree energy from (\int phi*rho dr):              1424.246779
MG Hartree energy from (\int eps (grad phi)^2 dr):     1423.605111
MG Discrepancy due to finite box and discretization:     -0.641668 (  -0.04505%)
MG Correction to account for finite box:                  0.456050
MG Remaining discrepancy, due to discretization:         -0.185619 (  -0.01303%)
     Trial step:       0.475329371802
             Q1:  -11550.879901627079
 Quadratic coef:       0.112914072753
 Linear coef   :      -0.213385857115
           Qmin:  -11550.880244388916
Quadratic minimum step length (  0.449140496576) accepted
    Initial Ne1:    7191.99999059
      Final Ne1:    7192.00000000

=================== Penalty functional idempotency correction ==================
 RMS occupancy error at iteration   1:  0.000195 (step -0.4992 Ne1=   7192.0000)
 RMS occupancy error at iteration   2:  0.000000 (step -0.5000 Ne1=   7192.0000)
            Final RMS occupancy error   :  0.000000 (Ne1=   7192.0000)
               Final occupancy bounds   : [  0.0000,  1.0000]
================================================================================

    4        -1.155077942984E+04     1.0245E-04     9.2660E-05    -4.7934E-01
MG BCs: +ve charge blocks (gridpoints):     31671 (   17338239).
MG BCs: -ve charge blocks (gridpoints):      8299 (    1089305).
MG BCs:     Elided blocks (gridpoints):    178366 (  187792281).
MG BCs: Computational effort saved:  99.9806%.
MG BCs: Charge after coarse-graining:           -9.0010421.
MG DL_MG: Calling solver with defect correction order = 8
MG DL_MG: Solver finished
MG Hartree energy from (\int phi*rho dr):              1424.189932
MG Hartree energy from (\int eps (grad phi)^2 dr):     1423.548269
MG Discrepancy due to finite box and discretization:     -0.641663 (  -0.04505%)
MG Correction to account for finite box:                  0.456050
MG Remaining discrepancy, due to discretization:         -0.185613 (  -0.01303%)
      ideal mu1:      -0.783676909138
             Q0:  -11550.880718035740
             G0:      -0.105114343865
   RMS gradient:       0.000049730879
MG BCs: +ve charge blocks (gridpoints):     31675 (   17338479).
MG BCs: -ve charge blocks (gridpoints):      8299 (    1089180).
MG BCs:     Elided blocks (gridpoints):    178362 (  187792166).
MG BCs: Computational effort saved:  99.9806%.
MG BCs: Charge after coarse-graining:           -9.0010421.
MG DL_MG: Calling solver with defect correction order = 8
MG DL_MG: Solver finished
MG Hartree energy from (\int phi*rho dr):              1424.550467
MG Hartree energy from (\int eps (grad phi)^2 dr):     1423.908661
MG Discrepancy due to finite box and discretization:     -0.641805 (  -0.04505%)
MG Correction to account for finite box:                  0.456043
MG Remaining discrepancy, due to discretization:         -0.185763 (  -0.01304%)
     Trial step:       0.462049423859
             Q1:  -11550.906833477900
 Quadratic coef:       0.022452579862
 Linear coef   :      -0.048568022022
           Qmin:  -11550.906982865634
Quadratic minimum step length (  0.499738264622) accepted
    Initial Ne1:    7191.99999753
      Final Ne1:    7192.00000000

=================== Penalty functional idempotency correction ==================
 RMS occupancy error at iteration   1:  0.000068 (step -0.4997 Ne1=   7192.0000)
            Final RMS occupancy error   :  0.000000 (Ne1=   7192.0000)
               Final occupancy bounds   : [ -0.0000,  1.0000]
================================================================================

    5        -1.155088071804E+04     4.9731E-05     4.4980E-05    -1.0129E-01
MG BCs: +ve charge blocks (gridpoints):     31675 (   17338476).
MG BCs: -ve charge blocks (gridpoints):      8300 (    1089167).
MG BCs:     Elided blocks (gridpoints):    178362 (  187792182).
MG BCs: Computational effort saved:  99.9806%.
MG BCs: Charge after coarse-graining:           -9.0010421.
MG DL_MG: Calling solver with defect correction order = 8
MG DL_MG: Solver finished
MG Hartree energy from (\int phi*rho dr):              1424.579889
MG Hartree energy from (\int eps (grad phi)^2 dr):     1423.938072
MG Discrepancy due to finite box and discretization:     -0.641817 (  -0.04505%)
MG Correction to account for finite box:                  0.456042
MG Remaining discrepancy, due to discretization:         -0.185775 (  -0.01304%)
      ideal mu1:      -0.783681904172
             Q0:  -11550.907037805882
             G0:      -0.030644494066
   RMS gradient:       0.000026874484
MG BCs: +ve charge blocks (gridpoints):     31672 (   17338095).
MG BCs: -ve charge blocks (gridpoints):      8301 (    1089353).
MG BCs:     Elided blocks (gridpoints):    178365 (  187792377).
MG BCs: Computational effort saved:  99.9806%.
MG BCs: Charge after coarse-graining:           -9.0010419.
MG DL_MG: Calling solver with defect correction order = 8
MG DL_MG: Solver finished
MG Hartree energy from (\int phi*rho dr):              1423.946969
MG Hartree energy from (\int eps (grad phi)^2 dr):     1423.305152
MG Discrepancy due to finite box and discretization:     -0.641817 (  -0.04507%)
MG Correction to account for finite box:                  0.456049
MG Remaining discrepancy, due to discretization:         -0.185768 (  -0.01305%)
     Trial step:       0.480524481425
             Q1:  -11550.916624341160
 Quadratic coef:       0.005138894341
 Linear coef   :      -0.014725429620
           Qmin:  -11550.917586683865
Quadratic minimum step length (  0.688468079131) accepted
    Initial Ne1:    7192.00033176
      Final Ne1:    7192.00000000

=================== Penalty functional idempotency correction ==================
 RMS occupancy error at iteration   1:  0.000038 (step -0.4998 Ne1=   7192.0000)
            Final RMS occupancy error   :  0.000000 (Ne1=   7192.0000)
               Final occupancy bounds   : [ -0.0000,  1.0000]
================================================================================

    6        -1.155090703781E+04     2.6874E-05     2.4307E-05    -2.6320E-02
MG BCs: +ve charge blocks (gridpoints):     31673 (   17337912).
MG BCs: -ve charge blocks (gridpoints):      8301 (    1089420).
MG BCs:     Elided blocks (gridpoints):    178364 (  187792493).
MG BCs: Computational effort saved:  99.9806%.
MG BCs: Charge after coarse-graining:           -9.0010419.
MG DL_MG: Calling solver with defect correction order = 8
MG DL_MG: Solver finished
MG Hartree energy from (\int phi*rho dr):              1423.672443
MG Hartree energy from (\int eps (grad phi)^2 dr):     1423.030626
MG Discrepancy due to finite box and discretization:     -0.641817 (  -0.04508%)
MG Correction to account for finite box:                  0.456052
MG Remaining discrepancy, due to discretization:         -0.185765 (  -0.01305%)
      ideal mu1:      -0.783352381503
             Q0:  -11550.917596841115
             G0:      -0.016074635714
   RMS gradient:       0.000019490513
MG BCs: +ve charge blocks (gridpoints):     31673 (   17338378).
MG BCs: -ve charge blocks (gridpoints):      8298 (    1089213).
MG BCs:     Elided blocks (gridpoints):    178364 (  187792234).
MG BCs: Computational effort saved:  99.9806%.
MG BCs: Charge after coarse-graining:           -9.0010420.
MG DL_MG: Calling solver with defect correction order = 8
MG DL_MG: Solver finished
MG Hartree energy from (\int phi*rho dr):              1424.287884
MG Hartree energy from (\int eps (grad phi)^2 dr):     1423.646094
MG Discrepancy due to finite box and discretization:     -0.641790 (  -0.04506%)
MG Correction to account for finite box:                  0.456047
MG Remaining discrepancy, due to discretization:         -0.185743 (  -0.01304%)
     Trial step:       0.575174553246
             Q1:  -11550.921722234809
 Quadratic coef:       0.005120327722
 Linear coef   :      -0.009245721415
           Qmin:  -11550.921770566369
Quadratic minimum step length (  0.519293292689) accepted
    Initial Ne1:    7192.00013235
      Final Ne1:    7192.00000000

=================== Penalty functional idempotency correction ==================
 RMS occupancy error at iteration   1:  0.000002 (step -0.5000 Ne1=   7192.0000)
            Final RMS occupancy error   :  0.000000 (Ne1=   7192.0000)
               Final occupancy bounds   : [  0.0000,  1.0000]
================================================================================

    7        -1.155091759684E+04     1.9491E-05     1.7629E-05    -1.0559E-02
MG BCs: +ve charge blocks (gridpoints):     31673 (   17338343).
MG BCs: -ve charge blocks (gridpoints):      8298 (    1089213).
MG BCs:     Elided blocks (gridpoints):    178364 (  187792269).
MG BCs: Computational effort saved:  99.9806%.
MG BCs: Charge after coarse-graining:           -9.0010420.
MG DL_MG: Calling solver with defect correction order = 8
MG DL_MG: Solver finished
MG Hartree energy from (\int phi*rho dr):              1424.227997
MG Hartree energy from (\int eps (grad phi)^2 dr):     1423.586204
MG Discrepancy due to finite box and discretization:     -0.641793 (  -0.04506%)
MG Correction to account for finite box:                  0.456047
MG Remaining discrepancy, due to discretization:         -0.185745 (  -0.01304%)
      ideal mu1:      -0.783682459725
             Q0:  -11550.921770729707
             G0:      -0.009560840523
   RMS gradient:       0.000015032236
MG BCs: +ve charge blocks (gridpoints):     31672 (   17338415).
MG BCs: -ve charge blocks (gridpoints):      8299 (    1089161).
MG BCs:     Elided blocks (gridpoints):    178365 (  187792249).
MG BCs: Computational effort saved:  99.9806%.
MG BCs: Charge after coarse-graining:           -9.0010421.
MG DL_MG: Calling solver with defect correction order = 8
MG DL_MG: Solver finished
MG Hartree energy from (\int phi*rho dr):              1424.298574
MG Hartree energy from (\int eps (grad phi)^2 dr):     1423.656815
MG Discrepancy due to finite box and discretization:     -0.641759 (  -0.04506%)
MG Correction to account for finite box:                  0.456045
MG Remaining discrepancy, due to discretization:         -0.185714 (  -0.01304%)
     Trial step:       0.546520162141
             Q1:  -11550.925757304183
 Quadratic coef:       0.001238617637
 Linear coef   :      -0.005225192113
           Qmin:  -11550.927281436119
Quadratic minimum step length (  1.152766098203) accepted
    Initial Ne1:    7192.00017336
      Final Ne1:    7192.00000000

=================== Penalty functional idempotency correction ==================
 RMS occupancy error at iteration   1:  0.000031 (step -0.4991 Ne1=   7192.0000)
            Final RMS occupancy error   :  0.000000 (Ne1=   7192.0000)
               Final occupancy bounds   : [ -0.0000,  1.0000]
================================================================================

    8        -1.155092177073E+04     1.5032E-05     1.3596E-05    -4.1739E-03
MG BCs: +ve charge blocks (gridpoints):     31672 (   17338561).
MG BCs: -ve charge blocks (gridpoints):      8298 (    1089123).
MG BCs:     Elided blocks (gridpoints):    178365 (  187792141).
MG BCs: Computational effort saved:  99.9806%.
MG BCs: Charge after coarse-graining:           -9.0010421.
MG DL_MG: Calling solver with defect correction order = 8
MG DL_MG: Solver finished
MG Hartree energy from (\int phi*rho dr):              1424.374387
MG Hartree energy from (\int eps (grad phi)^2 dr):     1423.732667
MG Discrepancy due to finite box and discretization:     -0.641720 (  -0.04505%)
MG Correction to account for finite box:                  0.456041
MG Remaining discrepancy, due to discretization:         -0.185679 (  -0.01304%)
      ideal mu1:      -0.783737957613
             Q0:  -11550.927263421705
             G0:      -0.015872550995
   RMS gradient:       0.000019426204
MG BCs: +ve charge blocks (gridpoints):     31672 (   17338308).
MG BCs: -ve charge blocks (gridpoints):      8301 (    1089264).
MG BCs:     Elided blocks (gridpoints):    178365 (  187792253).
MG BCs: Computational effort saved:  99.9806%.
MG BCs: Charge after coarse-graining:           -9.0010421.
MG DL_MG: Calling solver with defect correction order = 8
MG DL_MG: Solver finished
MG Hartree energy from (\int phi*rho dr):              1424.010430
MG Hartree energy from (\int eps (grad phi)^2 dr):     1423.368777
MG Discrepancy due to finite box and discretization:     -0.641653 (  -0.04506%)
MG Correction to account for finite box:                  0.456029
MG Remaining discrepancy, due to discretization:         -0.185624 (  -0.01304%)
     Trial step:       0.793731639095
             Q1:  -11550.935651669512
 Quadratic coef:       0.004210298112
 Linear coef   :      -0.012598545918
           Qmin:  -11550.936688131966
Quadratic minimum step length (  1.187548272936) accepted
    Initial Ne1:    7192.00072291
      Final Ne1:    7192.00000000

=================== Penalty functional idempotency correction ==================
 RMS occupancy error at iteration   1:  0.000244 (step -0.4919 Ne1=   7192.0000)
 RMS occupancy error at iteration   2:  0.000002 (step -0.5000 Ne1=   7192.0000)
            Final RMS occupancy error   :  0.000000 (Ne1=   7192.0000)
               Final occupancy bounds   : [  0.0000,  1.0000]
================================================================================

    9        -1.155092726342E+04     1.9426E-05     1.7571E-05    -5.4927E-03
MG BCs: +ve charge blocks (gridpoints):     31671 (   17338268).
MG BCs: -ve charge blocks (gridpoints):      8300 (    1089333).
MG BCs:     Elided blocks (gridpoints):    178366 (  187792224).
MG BCs: Computational effort saved:  99.9806%.
MG BCs: Charge after coarse-graining:           -9.0010421.
MG DL_MG: Calling solver with defect correction order = 8
MG DL_MG: Solver finished
MG Hartree energy from (\int phi*rho dr):              1423.822324
MG Hartree energy from (\int eps (grad phi)^2 dr):     1423.180707
MG Discrepancy due to finite box and discretization:     -0.641617 (  -0.04506%)
MG Correction to account for finite box:                  0.456022
MG Remaining discrepancy, due to discretization:         -0.185594 (  -0.01303%)
      ideal mu1:      -0.783201389497
   10        -1.155093643684E+04     2.5428E-05     2.2999E-05    -9.1734E-03
Finished density kernel iterations (  10)

Writing density kernel to file "host_15681.vacuum_dkn" ... done


>>> Density kernel optimised for the current NGWF basis:
     ~~~~~~~~~~~~~~~~~~~~~~~~~~~~~~~~~~~~~~~~~~~~~~~~~~~~~~~~~~~
     Total energy                =  -1.15509364368358E+04  Eh
     Estimated bandgap           =  -2.9284E-01  Eh
     RMS occupancy error         =   3.2289E-10
     [H,K] commutator            =   2.2999E-05
     Occupancy bounds            = [  0.000:  1.000]
     ~~~~~~~~~~~~~~~~~~~~~~~~~~~~~~~~~~~~~~~~~~~~~~~~~~~~~~~~~~~




################################################################################
########################### NGWF CG iteration  001 #############################
################################################################################
****** Reciprocal space K.E. preconditioning with k_zero =  3.5000 a0^-1 *******

>>> Checking for convergence of NGWFs:   NOT CONVERGED
  ========================================================================
         NGWF RMS gradient =  1.6166E-03 >  2.0000E-06  | above tolerance
  ========================================================================

>>> Improving NGWFs using line search:
============ Calculation of NGWF S^-1 using Hotelling algorithm ================ 
         Iteration  |  Frobenius norm and Maximum abs value    (of I-S*S_n^-1)   
               1       0.20238193E+00     0.55718833E-02
               2       0.95388514E-03     0.44256216E-04
               3       0.36447268E-07     0.27813455E-08
               4       0.13673591E-12     0.68833828E-14
================================================================================
MG BCs: +ve charge blocks (gridpoints):     31105 (   17276087).
MG BCs: -ve charge blocks (gridpoints):      8300 (    1088865).
MG BCs:     Elided blocks (gridpoints):    178934 (  187854873).
MG BCs: Computational effort saved:  99.9809%.
MG BCs: Charge after coarse-graining:           -9.0010425.
MG DL_MG: Calling solver with defect correction order = 8
MG DL_MG: Solver finished
MG Hartree energy from (\int phi*rho dr):              1391.476642
MG Hartree energy from (\int eps (grad phi)^2 dr):     1390.835868
MG Discrepancy due to finite box and discretization:     -0.640774 (  -0.04605%)
MG Correction to account for finite box:                  0.456007
MG Remaining discrepancy, due to discretization:         -0.184767 (  -0.01328%)
============ Calculation of NGWF S^-1 using Hotelling algorithm ================ 
         Iteration  |  Frobenius norm and Maximum abs value    (of I-S*S_n^-1)   
               1       0.18717691E+01     0.43448930E-01
               2       0.73077271E-01     0.24866279E-02
               3       0.15114594E-03     0.89415259E-05
               4       0.11908009E-08     0.14069201E-09
               5       0.11513381E-12     0.59952043E-14
================================================================================
------------------------------- NGWF line search -------------------------------
RMS gradient                =       0.00161660381130
Trial step length           =               0.122474
Gradient along search dir.  =       -282.77546579020
Functional at step 0        =  -11550.93643683579285
Functional at step 1        =  -11582.89629796613008
Functional predicted        =  -11663.11991983518965
Selected quadratic step     =               0.793446
--------------------------- NGWF line search finished --------------------------
                                               
Writing NGWFs to file "host_15681.vacuum_tightbox_ngwfs"....  done

>>> Optimising kernel for current NGWFs:
   Initial electron number for spin 1:    7227.76212228
     Final electron number for spin 1:    7192.00000000

=================== Penalty functional idempotency correction ==================
 RMS occupancy error at iteration   1:  0.004365 (step -0.4854 Ne1=   7192.0000)
 RMS occupancy error at iteration   2:  0.000075 (step -0.5003 Ne1=   7192.0000)
            Final RMS occupancy error   :  0.000000 (Ne1=   7192.0000)
               Final occupancy bounds   : [  0.0000,  1.0000]
================================================================================

................................................................................
<<<<<<<<<<<<<< LNV (Original version) density kernel optimisation >>>>>>>>>>>>>>
~~~~~~~~~~~~~~~~~~~~~~~~~~~~~~~~~~~~~~~~~~~~~~~~~~~~~~~~~~~~~~~~~~~~~~~~~~~~~~~~
   iter  |      energy (Eh)       | rms gradient |  commutator  |   dE (Eh)
MG BCs: +ve charge blocks (gridpoints):     24995 (   16977892).
MG BCs: -ve charge blocks (gridpoints):      8458 (    1071064).
MG BCs:     Elided blocks (gridpoints):    185050 (  188170869).
MG BCs: Computational effort saved:  99.9838%.
MG BCs: Charge after coarse-graining:           -9.0007125.
MG DL_MG: Calling solver with defect correction order = 8
MG DL_MG: Solver finished
MG Hartree energy from (\int phi*rho dr):              1237.012807
MG Hartree energy from (\int eps (grad phi)^2 dr):     1236.372045
MG Discrepancy due to finite box and discretization:     -0.640762 (  -0.05180%)
MG Correction to account for finite box:                  0.455963
MG Remaining discrepancy, due to discretization:         -0.184799 (  -0.01494%)
      ideal mu1:      -0.721221831672
             Q0:  -11662.165422747261
             G0:      -9.828173014953
   RMS gradient:       0.000481935697
MG BCs: +ve charge blocks (gridpoints):     25070 (   17012033).
MG BCs: -ve charge blocks (gridpoints):      8424 (    1062018).
MG BCs:     Elided blocks (gridpoints):    184975 (  188145774).
MG BCs: Computational effort saved:  99.9838%.
MG BCs: Charge after coarse-graining:           -9.0007039.
MG DL_MG: Calling solver with defect correction order = 8
MG DL_MG: Solver finished
MG Hartree energy from (\int phi*rho dr):              1265.949970
MG Hartree energy from (\int eps (grad phi)^2 dr):     1265.301791
MG Discrepancy due to finite box and discretization:     -0.648179 (  -0.05120%)
MG Correction to account for finite box:                  0.455471
MG Remaining discrepancy, due to discretization:         -0.192708 (  -0.01522%)
     Trial step:       0.970873131352
             Q1:  -11657.868026923621
 Quadratic coef:      13.839304934141
 Linear coef   :      -9.541909110501
           Qmin:  -11663.810159060002
Quadratic minimum step length (  0.334698282221) accepted
    Initial Ne1:    7191.99950086
      Final Ne1:    7192.00000000

=================== Penalty functional idempotency correction ==================
 RMS occupancy error at iteration   1:  0.000364 (step -0.4985 Ne1=   7192.0000)
 RMS occupancy error at iteration   2:  0.000000 (step -0.5000 Ne1=   7192.0000)
            Final RMS occupancy error   :  0.000000 (Ne1=   7192.0000)
               Final occupancy bounds   : [  0.0000,  1.0000]
================================================================================

    1        -1.166216542275E+04     4.8194E-04     4.3590E-04
MG BCs: +ve charge blocks (gridpoints):     25024 (   16989911).
MG BCs: -ve charge blocks (gridpoints):      8450 (    1067967).
MG BCs:     Elided blocks (gridpoints):    185021 (  188161947).
MG BCs: Computational effort saved:  99.9838%.
MG BCs: Charge after coarse-graining:           -9.0007094.
MG DL_MG: Calling solver with defect correction order = 8
MG DL_MG: Solver finished
MG Hartree energy from (\int phi*rho dr):              1245.467099
MG Hartree energy from (\int eps (grad phi)^2 dr):     1244.823943
MG Discrepancy due to finite box and discretization:     -0.643156 (  -0.05164%)
MG Correction to account for finite box:                  0.455756
MG Remaining discrepancy, due to discretization:         -0.187400 (  -0.01505%)
      ideal mu1:      -0.730190639840
             Q0:  -11663.763776604435
             G0:      -1.000471217716
   RMS gradient:       0.000155410202
MG BCs: +ve charge blocks (gridpoints):     25027 (   16991301).
MG BCs: -ve charge blocks (gridpoints):      8444 (    1068349).
MG BCs:     Elided blocks (gridpoints):    185018 (  188160175).
MG BCs: Computational effort saved:  99.9838%.
MG BCs: Charge after coarse-graining:           -9.0007089.
MG DL_MG: Calling solver with defect correction order = 8
MG DL_MG: Solver finished
MG Hartree energy from (\int phi*rho dr):              1247.391588
MG Hartree energy from (\int eps (grad phi)^2 dr):     1246.748158
MG Discrepancy due to finite box and discretization:     -0.643430 (  -0.05158%)
MG Correction to account for finite box:                  0.455711
MG Remaining discrepancy, due to discretization:         -0.187719 (  -0.01505%)
     Trial step:       0.570043480200
             Q1:  -11663.947915277211
 Quadratic coef:       0.386173422012
 Linear coef   :      -0.570312094787
           Qmin:  -11663.974339959472
Quadratic minimum step length (  0.420928361173) accepted
    Initial Ne1:    7191.99993471
      Final Ne1:    7192.00000000

=================== Penalty functional idempotency correction ==================
 RMS occupancy error at iteration   1:  0.000144 (step -0.4994 Ne1=   7192.0000)
            Final RMS occupancy error   :  0.000000 (Ne1=   7192.0000)
               Final occupancy bounds   : [ -0.0000,  1.0000]
================================================================================

    2        -1.166376377660E+04     1.5541E-04     1.4056E-04    -1.5984E+00
MG BCs: +ve charge blocks (gridpoints):     25027 (   16990892).
MG BCs: -ve charge blocks (gridpoints):      8445 (    1068239).
MG BCs:     Elided blocks (gridpoints):    185018 (  188160694).
MG BCs: Computational effort saved:  99.9838%.
MG BCs: Charge after coarse-graining:           -9.0007091.
MG DL_MG: Calling solver with defect correction order = 8
MG DL_MG: Solver finished
MG Hartree energy from (\int phi*rho dr):              1246.886378
MG Hartree energy from (\int eps (grad phi)^2 dr):     1246.243024
MG Discrepancy due to finite box and discretization:     -0.643354 (  -0.05160%)
MG Correction to account for finite box:                  0.455722
MG Remaining discrepancy, due to discretization:         -0.187632 (  -0.01505%)
      ideal mu1:      -0.731537648936
             Q0:  -11663.974883199786
             G0:      -0.155521581164
   RMS gradient:       0.000060552368
MG BCs: +ve charge blocks (gridpoints):     25028 (   16989945).
MG BCs: -ve charge blocks (gridpoints):      8446 (    1068722).
MG BCs:     Elided blocks (gridpoints):    185017 (  188161158).
MG BCs: Computational effort saved:  99.9838%.
MG BCs: Charge after coarse-graining:           -9.0007091.
MG DL_MG: Calling solver with defect correction order = 8
MG DL_MG: Solver finished
MG Hartree energy from (\int phi*rho dr):              1246.244452
MG Hartree energy from (\int eps (grad phi)^2 dr):     1245.601175
MG Discrepancy due to finite box and discretization:     -0.643277 (  -0.05162%)
MG Correction to account for finite box:                  0.455687
MG Remaining discrepancy, due to discretization:         -0.187590 (  -0.01505%)
     Trial step:       0.489844330291
             Q1:  -11664.023539393442
 Quadratic coef:       0.027525171115
 Linear coef   :      -0.076181364771
           Qmin:  -11664.027594955092
Quadratic minimum step length (  0.677870619774) accepted
    Initial Ne1:    7192.00064667
      Final Ne1:    7192.00000000

=================== Penalty functional idempotency correction ==================
 RMS occupancy error at iteration   1:  0.000068 (step -0.4997 Ne1=   7192.0000)
            Final RMS occupancy error   :  0.000000 (Ne1=   7192.0000)
               Final occupancy bounds   : [ -0.0000,  1.0000]
================================================================================

    3        -1.166397488320E+04     6.0552E-05     5.4768E-05    -2.1111E-01
MG BCs: +ve charge blocks (gridpoints):     25026 (   16989511).
MG BCs: -ve charge blocks (gridpoints):      8448 (    1068965).
MG BCs:     Elided blocks (gridpoints):    185019 (  188161349).
MG BCs: Computational effort saved:  99.9838%.
MG BCs: Charge after coarse-graining:           -9.0007091.
MG DL_MG: Calling solver with defect correction order = 8
MG DL_MG: Solver finished
MG Hartree energy from (\int phi*rho dr):              1245.997856
MG Hartree energy from (\int eps (grad phi)^2 dr):     1245.354608
MG Discrepancy due to finite box and discretization:     -0.643249 (  -0.05163%)
MG Correction to account for finite box:                  0.455674
MG Remaining discrepancy, due to discretization:         -0.187575 (  -0.01505%)
      ideal mu1:      -0.730508370139
             Q0:  -11664.027696062927
             G0:      -0.037555067158
   RMS gradient:       0.000029746352
MG BCs: +ve charge blocks (gridpoints):     25027 (   16989598).
MG BCs: -ve charge blocks (gridpoints):      8448 (    1068962).
MG BCs:     Elided blocks (gridpoints):    185018 (  188161265).
MG BCs: Computational effort saved:  99.9838%.
MG BCs: Charge after coarse-graining:           -9.0007091.
MG DL_MG: Calling solver with defect correction order = 8
MG DL_MG: Solver finished
MG Hartree energy from (\int phi*rho dr):              1246.141956
MG Hartree energy from (\int eps (grad phi)^2 dr):     1245.498822
MG Discrepancy due to finite box and discretization:     -0.643134 (  -0.05161%)
MG Correction to account for finite box:                  0.455669
MG Remaining discrepancy, due to discretization:         -0.187465 (  -0.01504%)
     Trial step:       0.576238735046
             Q1:  -11664.037555646501
 Quadratic coef:       0.011781100820
 Linear coef   :      -0.021640684394
           Qmin:  -11664.037633997170
Quadratic minimum step length (  0.529245984338) accepted
    Initial Ne1:    7192.00026343
      Final Ne1:    7192.00000000

=================== Penalty functional idempotency correction ==================
 RMS occupancy error at iteration   1:  0.000021 (step -0.4999 Ne1=   7192.0000)
            Final RMS occupancy error   :  0.000000 (Ne1=   7192.0000)
               Final occupancy bounds   : [ -0.0000,  1.0000]
================================================================================

    4        -1.166402769606E+04     2.9746E-05     2.6905E-05    -5.2813E-02
MG BCs: +ve charge blocks (gridpoints):     25027 (   16989600).
MG BCs: -ve charge blocks (gridpoints):      8448 (    1068949).
MG BCs:     Elided blocks (gridpoints):    185018 (  188161276).
MG BCs: Computational effort saved:  99.9838%.
MG BCs: Charge after coarse-graining:           -9.0007091.
MG DL_MG: Calling solver with defect correction order = 8
MG DL_MG: Solver finished
MG Hartree energy from (\int phi*rho dr):              1246.130076
MG Hartree energy from (\int eps (grad phi)^2 dr):     1245.486933
MG Discrepancy due to finite box and discretization:     -0.643143 (  -0.05161%)
MG Correction to account for finite box:                  0.455669
MG Remaining discrepancy, due to discretization:         -0.187474 (  -0.01504%)
      ideal mu1:      -0.730553830731
             Q0:  -11664.037639910006
             G0:      -0.014370221809
   RMS gradient:       0.000018423776
MG BCs: +ve charge blocks (gridpoints):     25025 (   16990197).
MG BCs: -ve charge blocks (gridpoints):      8447 (    1068710).
MG BCs:     Elided blocks (gridpoints):    185020 (  188160918).
MG BCs: Computational effort saved:  99.9838%.
MG BCs: Charge after coarse-graining:           -9.0007089.
MG DL_MG: Calling solver with defect correction order = 8
MG DL_MG: Solver finished
MG Hartree energy from (\int phi*rho dr):              1246.569062
MG Hartree energy from (\int eps (grad phi)^2 dr):     1245.925959
MG Discrepancy due to finite box and discretization:     -0.643103 (  -0.05159%)
MG Correction to account for finite box:                  0.455666
MG Remaining discrepancy, due to discretization:         -0.187437 (  -0.01504%)
     Trial step:       0.552242733355
             Q1:  -11664.041912522982
 Quadratic coef:       0.003663237594
 Linear coef   :      -0.007935850570
           Qmin:  -11664.041937865206
Quadratic minimum step length (  0.598175206765) accepted
    Initial Ne1:    7192.00015557
      Final Ne1:    7192.00000000

=================== Penalty functional idempotency correction ==================
 RMS occupancy error at iteration   1:  0.000017 (step -0.4995 Ne1=   7192.0000)
            Final RMS occupancy error   :  0.000000 (Ne1=   7192.0000)
               Final occupancy bounds   : [ -0.0000,  1.0000]
================================================================================

    5        -1.166403763991E+04     1.8424E-05     1.6664E-05    -9.9438E-03
MG BCs: +ve charge blocks (gridpoints):     25025 (   16990250).
MG BCs: -ve charge blocks (gridpoints):      8447 (    1068689).
MG BCs:     Elided blocks (gridpoints):    185020 (  188160886).
MG BCs: Computational effort saved:  99.9838%.
MG BCs: Charge after coarse-graining:           -9.0007089.
MG DL_MG: Calling solver with defect correction order = 8
MG DL_MG: Solver finished
MG Hartree energy from (\int phi*rho dr):              1246.605606
MG Hartree energy from (\int eps (grad phi)^2 dr):     1245.962507
MG Discrepancy due to finite box and discretization:     -0.643100 (  -0.05159%)
MG Correction to account for finite box:                  0.455666
MG Remaining discrepancy, due to discretization:         -0.187434 (  -0.01504%)
      ideal mu1:      -0.730937064730
             Q0:  -11664.041939076385
             G0:      -0.006007600708
   RMS gradient:       0.000011916582
MG BCs: +ve charge blocks (gridpoints):     25025 (   16990159).
MG BCs: -ve charge blocks (gridpoints):      8447 (    1068742).
MG BCs:     Elided blocks (gridpoints):    185020 (  188160924).
MG BCs: Computational effort saved:  99.9838%.
MG BCs: Charge after coarse-graining:           -9.0007089.
MG DL_MG: Calling solver with defect correction order = 8
MG DL_MG: Solver finished
MG Hartree energy from (\int phi*rho dr):              1246.504617
MG Hartree energy from (\int eps (grad phi)^2 dr):     1245.861524
MG Discrepancy due to finite box and discretization:     -0.643093 (  -0.05159%)
MG Correction to account for finite box:                  0.455663
MG Remaining discrepancy, due to discretization:         -0.187430 (  -0.01504%)
     Trial step:       0.574750303357
             Q1:  -11664.044270278187
 Quadratic coef:       0.001121668527
 Linear coef   :      -0.003452870329
           Qmin:  -11664.044596348393
Quadratic minimum step length (  0.884636691405) accepted
    Initial Ne1:    7192.00041019
      Final Ne1:    7192.00000000

=================== Penalty functional idempotency correction ==================
 RMS occupancy error at iteration   1:  0.000033 (step -0.4977 Ne1=   7192.0000)
            Final RMS occupancy error   :  0.000000 (Ne1=   7192.0000)
               Final occupancy bounds   : [ -0.0000,  1.0000]
================================================================================

    6        -1.166404193908E+04     1.1917E-05     1.0778E-05    -4.2992E-03
MG BCs: +ve charge blocks (gridpoints):     25025 (   16990081).
MG BCs: -ve charge blocks (gridpoints):      8447 (    1068795).
MG BCs:     Elided blocks (gridpoints):    185020 (  188160949).
MG BCs: Computational effort saved:  99.9838%.
MG BCs: Charge after coarse-graining:           -9.0007089.
MG DL_MG: Calling solver with defect correction order = 8
MG DL_MG: Solver finished
MG Hartree energy from (\int phi*rho dr):              1246.449917
MG Hartree energy from (\int eps (grad phi)^2 dr):     1245.806828
MG Discrepancy due to finite box and discretization:     -0.643090 (  -0.05159%)
MG Correction to account for finite box:                  0.455662
MG Remaining discrepancy, due to discretization:         -0.187428 (  -0.01504%)
      ideal mu1:      -0.730790308552
             Q0:  -11664.044587588054
             G0:      -0.005357316841
   RMS gradient:       0.000011251913
MG BCs: +ve charge blocks (gridpoints):     25024 (   16989917).
MG BCs: -ve charge blocks (gridpoints):      8447 (    1068848).
MG BCs:     Elided blocks (gridpoints):    185021 (  188161060).
MG BCs: Computational effort saved:  99.9838%.
MG BCs: Charge after coarse-graining:           -9.0007090.
MG DL_MG: Calling solver with defect correction order = 8
MG DL_MG: Solver finished
MG Hartree energy from (\int phi*rho dr):              1246.386721
MG Hartree energy from (\int eps (grad phi)^2 dr):     1245.743604
MG Discrepancy due to finite box and discretization:     -0.643117 (  -0.05160%)
MG Correction to account for finite box:                  0.455674
MG Remaining discrepancy, due to discretization:         -0.187443 (  -0.01504%)
     Trial step:       0.713053438913
             Q1:  -11664.045631499379
 Quadratic coef:       0.002776141871
 Linear coef   :      -0.003820053197
           Qmin:  -11664.045901714557
Quadratic minimum step length (  0.490591294481) accepted
    Initial Ne1:    7192.00075681
      Final Ne1:    7192.00000000

=================== Penalty functional idempotency correction ==================
 RMS occupancy error at iteration   1:  0.000002 (step -0.5000 Ne1=   7192.0000)
            Final RMS occupancy error   :  0.000000 (Ne1=   7192.0000)
               Final occupancy bounds   : [  0.0000,  1.0000]
================================================================================

    7        -1.166404458759E+04     1.1252E-05     1.0177E-05    -2.6485E-03
MG BCs: +ve charge blocks (gridpoints):     25025 (   16989970).
MG BCs: -ve charge blocks (gridpoints):      8447 (    1068825).
MG BCs:     Elided blocks (gridpoints):    185020 (  188161030).
MG BCs: Computational effort saved:  99.9838%.
MG BCs: Charge after coarse-graining:           -9.0007090.
MG DL_MG: Calling solver with defect correction order = 8
MG DL_MG: Solver finished
MG Hartree energy from (\int phi*rho dr):              1246.406257
MG Hartree energy from (\int eps (grad phi)^2 dr):     1245.763149
MG Discrepancy due to finite box and discretization:     -0.643108 (  -0.05160%)
MG Correction to account for finite box:                  0.455670
MG Remaining discrepancy, due to discretization:         -0.187438 (  -0.01504%)
      ideal mu1:      -0.730697540588
             Q0:  -11664.045901903766
             G0:      -0.003342230590
   RMS gradient:       0.000008887166
MG BCs: +ve charge blocks (gridpoints):     25025 (   16989943).
MG BCs: -ve charge blocks (gridpoints):      8447 (    1068839).
MG BCs:     Elided blocks (gridpoints):    185020 (  188161043).
MG BCs: Computational effort saved:  99.9838%.
MG BCs: Charge after coarse-graining:           -9.0007090.
MG DL_MG: Calling solver with defect correction order = 8
MG DL_MG: Solver finished
MG Hartree energy from (\int phi*rho dr):              1246.360869
MG Hartree energy from (\int eps (grad phi)^2 dr):     1245.717744
MG Discrepancy due to finite box and discretization:     -0.643124 (  -0.05160%)
MG Correction to account for finite box:                  0.455675
MG Remaining discrepancy, due to discretization:         -0.187449 (  -0.01504%)
     Trial step:       0.591453979301
             Q1:  -11664.047402990283
 Quadratic coef:       0.000475689065
 Linear coef   :      -0.001976775582
           Qmin:  -11664.047955578106
Quadratic minimum step length (  1.228924386555) accepted
    Initial Ne1:    7192.00118145
      Final Ne1:    7192.00000000

=================== Penalty functional idempotency correction ==================
 RMS occupancy error at iteration   1:  0.000041 (step -0.4966 Ne1=   7192.0000)
            Final RMS occupancy error   :  0.000000 (Ne1=   7192.0000)
               Final occupancy bounds   : [ -0.0000,  1.0000]
================================================================================

    8        -1.166404590190E+04     8.8872E-06     8.0382E-06    -1.3143E-03
MG BCs: +ve charge blocks (gridpoints):     25025 (   16989904).
MG BCs: -ve charge blocks (gridpoints):      8448 (    1068851).
MG BCs:     Elided blocks (gridpoints):    185020 (  188161070).
MG BCs: Computational effort saved:  99.9838%.
[...]
               Final occupancy bounds   : [  0.0000,  1.0000]
================================================================================

    7        -1.169773457660E+04     1.1890E-08     1.0754E-08    -4.4238E-09

Reusing previously generated solute cavity.
MG BCs: +ve charge blocks (gridpoints):     29647 (   19268044).
MG BCs: -ve charge blocks (gridpoints):      8435 (    1038751).
MG BCs:     Elided blocks (gridpoints):    180398 (  185913030).
MG BCs: Computational effort saved:  99.9815%.
MG BCs: Charge after coarse-graining:           -9.0010143.
MG DL_MG: Calling solver with defect correction order = 8
MG DL_MG: Solver finished
MG Hartree energy from (\int phi*rho dr):              1202.824346
MG Hartree energy from (\int eps (grad phi)^2 dr):     1202.631940
MG Discrepancy due to finite box and discretization:     -0.192405 (  -0.01600%)
MG Correction to account for finite box:                  0.006216
MG Remaining discrepancy, due to discretization:         -0.186189 (  -0.01548%)
      ideal mu1:      -0.485517731383
             Q0:  -11697.734576602699
             G0:      -0.000000006464
   RMS gradient:       0.000000009318

Reusing previously generated solute cavity.
MG BCs: +ve charge blocks (gridpoints):     29647 (   19268043).
MG BCs: -ve charge blocks (gridpoints):      8435 (    1038751).
MG BCs:     Elided blocks (gridpoints):    180398 (  185913031).
MG BCs: Computational effort saved:  99.9815%.
MG BCs: Charge after coarse-graining:           -9.0010143.
MG DL_MG: Calling solver with defect correction order = 8
MG DL_MG: Solver finished
MG Hartree energy from (\int phi*rho dr):              1202.824382
MG Hartree energy from (\int eps (grad phi)^2 dr):     1202.631976
MG Discrepancy due to finite box and discretization:     -0.192405 (  -0.01600%)
MG Correction to account for finite box:                  0.006216
MG Remaining discrepancy, due to discretization:         -0.186189 (  -0.01548%)
     Trial step:       0.307832205882
             Q1:  -11697.734576605028
 Quadratic coef:      -0.000000000338
 Linear coef   :      -0.000000001990
         Quadratic fit unsuccessful: proceeding to cubic fit

Reusing previously generated solute cavity.
MG BCs: +ve charge blocks (gridpoints):     29647 (   19268043).
MG BCs: -ve charge blocks (gridpoints):      8435 (    1038751).
MG BCs:     Elided blocks (gridpoints):    180398 (  185913031).
MG BCs: Computational effort saved:  99.9815%.
MG BCs: Charge after coarse-graining:           -9.0010143.
MG DL_MG: Calling solver with defect correction order = 8
MG DL_MG: Solver finished
MG Hartree energy from (\int phi*rho dr):              1202.824418
MG Hartree energy from (\int eps (grad phi)^2 dr):     1202.632013
MG Discrepancy due to finite box and discretization:     -0.192405 (  -0.01600%)
MG Correction to account for finite box:                  0.006216
MG Remaining discrepancy, due to discretization:         -0.186189 (  -0.01548%)
             Q2:  -11697.734576605959
  Cubic LS coeff:       0.557361109140
Predicted energy:  -11697.734576606037
Cubic minimum step length accepted
    Initial Ne1:    7192.00000000
      Final Ne1:    7192.00000000

=================== Penalty functional idempotency correction ==================
 RMS occupancy error at iteration   1:  0.000000 (step -0.5000 Ne1=   7192.0000)
            Final RMS occupancy error   :  0.000000 (Ne1=   7192.0000)
               Final occupancy bounds   : [  0.0000,  1.0000]
================================================================================

    8        -1.169773457660E+04     9.3179E-09     8.4279E-09    -1.1642E-09

Reusing previously generated solute cavity.
MG BCs: +ve charge blocks (gridpoints):     29647 (   19268043).
MG BCs: -ve charge blocks (gridpoints):      8435 (    1038751).
MG BCs:     Elided blocks (gridpoints):    180398 (  185913031).
MG BCs: Computational effort saved:  99.9815%.
MG BCs: Charge after coarse-graining:           -9.0010143.
MG DL_MG: Calling solver with defect correction order = 8
MG DL_MG: Solver finished
MG Hartree energy from (\int phi*rho dr):              1202.824411
MG Hartree energy from (\int eps (grad phi)^2 dr):     1202.632006
MG Discrepancy due to finite box and discretization:     -0.192405 (  -0.01600%)
MG Correction to account for finite box:                  0.006216
MG Remaining discrepancy, due to discretization:         -0.186189 (  -0.01548%)
      ideal mu1:      -0.485517807589
             Q0:  -11697.734576605842
             G0:      -0.000000003733
   RMS gradient:       0.000000012398

Reusing previously generated solute cavity.
MG BCs: +ve charge blocks (gridpoints):     29647 (   19268043).
MG BCs: -ve charge blocks (gridpoints):      8435 (    1038751).
MG BCs:     Elided blocks (gridpoints):    180398 (  185913031).
MG BCs: Computational effort saved:  99.9815%.
MG BCs: Charge after coarse-graining:           -9.0010143.
MG DL_MG: Calling solver with defect correction order = 8
MG DL_MG: Solver finished
MG Hartree energy from (\int phi*rho dr):              1202.824444
MG Hartree energy from (\int eps (grad phi)^2 dr):     1202.632039
MG Discrepancy due to finite box and discretization:     -0.192405 (  -0.01600%)
MG Correction to account for finite box:                  0.006216
MG Remaining discrepancy, due to discretization:         -0.186189 (  -0.01548%)
     Trial step:       0.414214557566
             Q1:  -11697.734576606774
 Quadratic coef:       0.000000000615
 Linear coef   :      -0.000000001546
           Qmin:  -11697.734576606814
Quadratic minimum step length (  0.520835508908) accepted
    Initial Ne1:    7192.00000000
      Final Ne1:    7192.00000000

=================== Penalty functional idempotency correction ==================
 RMS occupancy error at iteration   1:  0.000000 (step -0.5000 Ne1=   7192.0000)
            Final RMS occupancy error   :  0.000000 (Ne1=   7192.0000)
               Final occupancy bounds   : [ -0.0000,  1.0000]
================================================================================

    9        -1.169773457661E+04     1.2398E-08     1.1214E-08    -3.1432E-09

Reusing previously generated solute cavity.
MG BCs: +ve charge blocks (gridpoints):     29647 (   19268043).
MG BCs: -ve charge blocks (gridpoints):      8435 (    1038751).
MG BCs:     Elided blocks (gridpoints):    180398 (  185913031).
MG BCs: Computational effort saved:  99.9815%.
MG BCs: Charge after coarse-graining:           -9.0010143.
MG DL_MG: Calling solver with defect correction order = 8
MG DL_MG: Solver finished
MG Hartree energy from (\int phi*rho dr):              1202.824453
MG Hartree energy from (\int eps (grad phi)^2 dr):     1202.632047
MG Discrepancy due to finite box and discretization:     -0.192405 (  -0.01600%)
MG Correction to account for finite box:                  0.006216
MG Remaining discrepancy, due to discretization:         -0.186189 (  -0.01548%)
      ideal mu1:      -0.485517839450
   10        -1.169773457661E+04     2.0946E-08     1.8945E-08    -6.9849E-10
Finished density kernel iterations (  10)

Writing density kernel to file "host_15681.dkn" ... done


>>> Density kernel optimised for the current NGWF basis:
     ~~~~~~~~~~~~~~~~~~~~~~~~~~~~~~~~~~~~~~~~~~~~~~~~~~~~~~~~~~~
     Total energy                =  -1.16977345766065E+04  Eh
     Estimated bandgap           =   9.0058E-02  Eh
     RMS occupancy error         =   4.9316E-16
     [H,K] commutator            =   1.8945E-08
     Occupancy bounds            = [ -0.000:  1.000]
     ~~~~~~~~~~~~~~~~~~~~~~~~~~~~~~~~~~~~~~~~~~~~~~~~~~~~~~~~~~~




################################################################################
########################### NGWF CG iteration  004 #############################
################################################################################
****** Reciprocal space K.E. preconditioning with k_zero =  3.5000 a0^-1 *******

>>> Checking for convergence of NGWFs: 
           ........................................................
           |         *** NGWF optimisation converged ***          |
           | RMS NGWF gradient =    0.00000194912503              |
           | Criteria satisfied:                                  |
           | -> RMS NGWF gradient lower than set threshold.       |
           ========================================================

Reusing previously generated solute cavity.
MG BCs: +ve charge blocks (gridpoints):     29647 (   19268043).
MG BCs: -ve charge blocks (gridpoints):      8435 (    1038751).
MG BCs:     Elided blocks (gridpoints):    180398 (  185913031).
MG BCs: Computational effort saved:  99.9815%.
MG BCs: Charge after coarse-graining:           -9.0010143.
MG DL_MG: Calling solver with defect correction order = 8
MG DL_MG: Solver finished
MG Hartree energy from (\int phi*rho dr):              1202.824453
MG Hartree energy from (\int eps (grad phi)^2 dr):     1202.632047
MG Discrepancy due to finite box and discretization:     -0.192405 (  -0.01600%)
MG Correction to account for finite box:                  0.006216
MG Remaining discrepancy, due to discretization:         -0.186189 (  -0.01548%)

================================================================================
           ---------------- ENERGY COMPONENTS (Eh) ----------------
           | Kinetic                    :     8557.07479650650021 |
           | Pseudo. (local,OBC,corr'd) :    -5071.66308873597427 |
           | Pseudopotential (non-local):     1404.44173536453354 |
           | Hartree (molecular)        :     1202.82445261973817 |
           | Exchange-correlation       :    -3381.94398697557563 |
           | Ion-ion (open BC)          :   806647.36061806569342 |
           | Smeared ion non-self corr. :  -806599.30877088871785 |
           | Smeared ion self corr.     :   -14457.16956389741972 |
           | Solvent cavitation energy  :        2.30981529721883 |
           | Solute-solvent dis-rep en. :       -1.66058396255305 |
           | Total                      :   -11697.73457660655913 |
           --------------------------------------------------------
           ------ LOCAL ENERGY COMPONENTS FROM MATRIX TRACES ------
           | Pseudopotential (local)    :    -5071.66308873599155 |
           | Hartree                    :    -2002.76035973614580 |
           --------------------------------------------------------
           Integrated density           :     7191.99999999730517
           Integrated density tr(KS)    :     7192.00000000000000
================================================================================


                        <<<<< CALCULATION SUMMARY >>>>>                         
|ITER|    RMS GRADIENT   |     TOTAL ENERGY    |   step   |     Epredicted              
   0     0.00004026045534 -11697.67195780668408   0.615829 -11697.72596134657215        
   1     0.00000989574264 -11697.73403806588612   0.084399 -11697.73448520005695        
   2     0.00000436832221 -11697.73455832886975   0.015482 -11697.73457431244424        
   3     0.00000194912503 -11697.73457660654094  <-- CG                                 

=================== Finished the calculation in solvent ========================
= Adjusting the following parameters: 
= read_denskern: F
= read_tightbox_ngwfs: F
= maxit_pen: 0 (restored to user-specified value)
= restart read filename prefix: ""
= restart write filename prefix: ""
================================================================================

================================================================================
IS: Calculation in solvent completed (NGWFs converged).      

Individual components of total energy in solvent:     hartree           kcal/mol
- Usual non-electrostatic DFT terms:    -12901.20826056094302    -8095630.234728
- Electrostatic fixed charge energy:      1202.82445261973817      754783.723279
- Apolar cavitation energy:                  2.30981529721883        1449.430951
- Apolar dispersion-repulsion energy:       -1.66058396255305       -1042.032146
 -------------------------------------------------------------------------------
- Total energy in solvent:              -11697.73457660654094    -7340439.112645

Components of total energy in solvent:                hartree           kcal/mol
- Usual non-electrostatic DFT terms:    -12901.20826056094302    -8095630.234728
- Electrostatic energy:                   1202.82445261973817      754783.723279
- Apolar energy terms:                       0.64923133466578         407.398805
 -------------------------------------------------------------------------------
- Total energy in solvent:              -11697.73457660654094    -7340439.112645

Calculation of free energy of solvation:              hartree           kcal/mol
- Total energy in solvent:         (+)  -11697.73457660654094    -7340439.112645
- Total energy in vacuum:          (-)  -11693.92482663958799    -7338048.458498
 -------------------------------------------------------------------------------
- Total free energy of solvation:           -3.80974996695295       -2390.654146

Components of polar term in f.e. of solvation:        hartree           kcal/mol
- Electrostatic:                            -4.46698042267349       -2803.072475
- Change in nonelectrostatic DFT terms:      0.00799912105686           5.019524
 -------------------------------------------------------------------------------
- Polar term in f.e. of solvation:          -4.45898130161663       -2798.052951

Components of free energy of solvation:               hartree           kcal/mol
- Polar term in f.e. of solvation: (+)      -4.45898130161663       -2798.052951
- Apolar (cavitation, dis., rep.): (+)       0.64923133466578         407.398805
 -------------------------------------------------------------------------------
- Total free energy of solvation:           -3.80974996695085       -2390.654146
================================================================================


------------------------------ TIMING INFORMATION ------------------------------
AVERAGE TIME:   48793.033s on     30 node(s)                                    
TOTAL TIME:     48793.035s on     30 node(s)                                    
================= AVERAGE TIMINGS FROM ALL NODES (CUMULATIVE) ==================
|| TAG                                    #calls    cpu time   %total  Gflops ||
|| work_imbalance                       :     1        0.00s   0.000%  ------ ||
|| parallel_prepare_fd_halos_request    :  2307        0.05s   0.000%  ------ ||
|| sparse_set_to_garbage                :   212        0.06s   0.000%  ------ ||
|| ngwfs_initialise_from_radial         :     1        0.22s   0.000%  ------ ||
|| parallel_prepare_fd_halos_alloc      :  2307        0.23s   0.000%  ------ ||
|| basis_extract_function_from_box      :  8456        0.62s   0.001%  ------ ||
|| parallel_prepare_fd_halos_satisfy    :  2307        1.35s   0.003%  ------ ||
|| pseudopotentials_nonlocal_mat        :    36        3.42s   0.007%  ------ ||
|| density_init_guess_real              :     1        3.57s   0.007%  ------ ||
|| restart_ngwfs_tightbox_input         :     1        4.28s   0.009%  ------ ||
|| restart_kernel_read                  :     1        6.78s   0.014%  ------ ||
|| openbc_locps_radial                  :     1        7.01s   0.014%  ------ ||
|| parallel_prepare_fd_halos_comms_imbal:  2307       13.94s   0.029%  ------ ||
|| parallel_prepare_fd_halos_clear      :  2307       16.39s   0.034%  ------ ||
|| sparse_init                          :     2       22.85s   0.047%  ------ ||
|| projectors_func_ovlp_box             :    36       35.01s   0.072%  ------ ||
|| palser_mano_kernel_optimise          :     1       36.25s   0.074%  ------ ||
|| parallel_prepare_fd_halos_comms_wait :  2307       36.82s   0.075%  ------ ||
|| projectors_init_fftbox_recip         :   302       38.47s   0.079%  ------ ||
|| function_ops_brappd_ketppd           :    36       38.93s   0.080%  ------ ||
|| basis_copy_function_to_box           : 137.7k      59.60s   0.122%  ------ ||
|| parallel_prepare_fd_halos            :  2307       68.80s   0.141%  ------ ||
|| restart_ngwfs_tightbox_output        :    17       71.45s   0.146%  ------ ||
|| fourier_apply_box_pair               : 12157       73.70s   0.151% 477.507 ||
|| ngwf_gradient_coeffs                 :    19      104.22s   0.214%  ------ ||
|| sparse_embed_hotelling_invert_embed  :    36      108.22s   0.222%  ------ ||
|| pseudo_make_structure_factor         :     2      116.56s   0.239%  ------ ||
|| sparse_trace                         :  6064      183.83s   0.377%  ------ ||
|| restart_kernel_write                 :    20      234.00s   0.480%  ------ ||
|| integrals_kinetic                    :    36      235.81s   0.483%  ------ ||
|| finite_difference_derivative         :  2307      255.75s   0.524%  ------ ||
|| projectors_gradient_batch            :   266      303.39s   0.622%  ------ ||
|| openbc_locps_on_grid                 :     2      328.88s   0.674%  ------ ||
|| basis_dot_function_with_box          : 20.54M     374.00s   0.766%  ------ ||
|| kernel_purify                        :   588      444.59s   0.911%  ------ ||
|| hamiltonian_energy_components        :     4      650.90s   1.334%  ------ ||
|| lnv_gradient_norm                    :   190      708.83s   1.453%  ------ ||
|| kernel_fix                           :   190      736.43s   1.509%  ------ ||
|| basis_add_function_to_box            : 43.05M     778.08s   1.595%  ------ ||
|| ngwf_gradient_build_batch            :   266     1214.54s   2.489%  ------ ||
|| cell_grid_extract_box_real           : 73233     1378.19s   2.825%  ------ ||
|| cell_grid_deposit_box_real           : 85503     1492.77s   3.059%  ------ ||
|| integrals_locpot_mat_els_batch       :  2786     1585.94s   3.250%  ------ ||
|| ngwf_gradient_batch                  :   266     1673.75s   3.430%  ------ ||
|| density_batch_row_sums               :  5362     1796.06s   3.681%  ------ ||
|| ngwf_gradient_lnv                    :    19     2025.05s   4.150%  ------ ||
|| fourier_apply_cell_forward           : 10753     2563.62s   5.254%  61.459 ||
|| fourier_apply_cell_backward          : 11523     2586.20s   5.300%  65.285 ||
|| sparse_product                       :  7729     2865.64s   5.873%  ------ ||
|| density_fftbox_deposit_to_cell       : 83111     2875.33s   5.893%  ------ ||
|| multigrid_prepare_bound_cond         :   384     4332.62s   8.880%  ------ ||
|| potential_apply_to_ngwf_batch        :  2786     5143.00s  10.540%  ------ ||
|| density_fftbox_interpolate_multiply  : 83111     5806.22s  11.900%  ------ ||
|| integrals_locpot_dbl_grid            :   199     6771.08s  13.877%  ------ ||
|| xc_energy_potential                  :   384     6878.48s  14.097%  ------ ||
|| fourier_apply_box                    : 287.1k    6971.56s  14.288% 577.851 ||
|| density_batch_interp_deposit         :  5362     9482.98s  19.435%  ------ ||
|| dl_mg_solver_calls                   :   384    10681.64s  21.892%  ------ ||
|| nlxc_vdw_energy                      :   768    11190.73s  22.935%  ------ ||
|| density_on_dbl_grid                  :   383    12545.76s  25.712%  ------ ||
|| multigrid_calculate_hartree          :   384    15335.28s  31.429%  ------ ||
|| hamiltonian_lhxc_calculate           :   379    34558.81s  70.827%  ------ ||
|| lnv_denskernel_optimise_cg           :    19    42659.93s  87.430%  ------ ||
|| ngwf_cg_optimise                     :     2    47562.92s  97.479%  ------ ||
|| total_time                           :     1    48793.03s 100.000%  ------ ||
================================================================================
Overhead of generating timer report: 
- 0 ms averaging over threads,
- 4 ms ensuring consistency across MPI ranks,
- 0 ms printing in order.

Job completed: 13-02-2020 07:04 (-0000)

