 +---------------------------------------------------------------+
 |                                                               |
 |        ####### #     # ####### ####### ####### ######         |
 |        #     # ##    # #          #    #       #     #        |
 |        #     # # #   # #          #    #       #     #        |
 |        #     # #  #  # #####      #    #####   ######         |
 |        #     # #   # # #          #    #       #              |
 |        #     # #    ## #          #    #       #              |
 |        ####### #     # #######    #    ####### #              |
 |                                                               |
 |        Linear-Scaling Ab Initio Total Energy Program          |
 |                                                               |
 |          Release for academic collaborators of ODG            |
 |                                             Version 5.3.2.6.  |
 |                                                               |
 +---------------------------------------------------------------+
 |                                                               |
 |  Authors:                                                     |
 |  Jacek Dziedzic, Peter D. Haynes, Nicholas D. M. Hine,        |
 |  Arash. A. Mostofi, Mike C. Payne and Chris-Kriton Skylaris   |
 |                                                               |
 |  Contributors:                                                |
 |  J. Aarons, L. Andrinopoulos, P. W. Avraam, R. A. Bell,       |
 |  A. Bhandari, G. A. Bramley, R. J. Charlton, S. J. Clark,     |
 |  R. J. Clements, G. C. Constantinescu, F. Corsetti,           |
 |  N. Corsini, O. Dieguez, S. M. M. Dubois, K. K. B. Duff,      |
 |  J. M. Escartin, A. Greco, H. Helal, Q. O. Hill, L. P. Lee,   |
 |  J.-H. Li, E. B. Linscott, G. Moynihan, D. D. O`Regan,        |
 |  O. K. Okan, M. J. S. Phipps, C. J. Pickard,                  |
 |  J. C. A. Prentice, M. I. J. Probert, L. E. Ratcliff,         |
 |  M. Robinson, A. Ruiz Serrano, J. S. Spencer, E. W. Tait,     |
 |  G. Teobaldi, D. Turban, V. Vitale, K. A. Wilkinson,          |
 |  C. Weber, J. C. Womack, N. Yeung and T. J. Zuehlsdorff       |
 |                                                               |
 |                                   Copyright (c) 2004-2019     |
 |                                                               |
 |  Please cite:                                                 |
 |  "Introducing ONETEP: Linear-scaling density functional       |
 |   simulations on parallel computers".                         |
 |   C.-K. Skylaris, P. D. Haynes, A. A. Mostofi, M. C. Payne.   |
 |   J. Chem. Phys. 122 084119 (2005).                           |
 |                                                               |
 |          in all publications arising from your use of ONETEP. |
 |                                                               |
 +---------------------------------------------------------------+
 |                                                               |
 |   ONETEP is based on developments described in the following  |
 |   publications:                                               |
 |                                                               |
 |  "Nonorthogonal generalized Wannier function pseudopotential  |
 |   plane-wave method".                                         |
 |   C.-K. Skylaris, A. A. Mostofi, P. D. Haynes, O. Dieguez,    |
 |   M. C. Payne.                                                |
 |   Phys. Rev. B 66 035119 (2002).                              |
 |                                                               |
 |  "Preconditioned iterative minimization for linear-scaling    |
 |   electronic structure calculations".                         |
 |   A. A. Mostofi, P. D. Haynes, C.-K. Skylaris, M. C. Payne.   |
 |   J. Chem. Phys. 119(17), pp.8842-8848 (2003).                |
 |                                                               |
 |  "Total-energy calculations on a real space grid with         |
 |   localized functions and a plane-wave basis".                |
 |   A. A. Mostofi, C.-K. Skylaris, P. D. Haynes, M. C. Payne.   |
 |   Comput. Phys. Commun. 147, pp.788-802 (2002).               |
 |                                                               |
 |  "Accurate kinetic energy evaluation in electronic structure  |
 |   calculations with localized functions on real space grids"  |
 |   C.-K. Skylaris, A. A. Mostofi, P. D. Haynes, C. J. Pickard, |
 |   M. C. Payne.                                                |
 |   Comput. Phys. Commun. 140, pp.315-322 (2001).               |
 |                                                               |
 |  "Accurate ionic forces and geometry optimization in linear-  |
 |   scaling density-functional theory with local orbitals"      |
 |   N. D. M. Hine, M. Robinson, P. D. Haynes, C.-K. Skylaris,   |
 |   M. C. Payne, and A. A. Mostofi.                             |
 |   Phys. Rev. B 83 195102 (2011).                              |
 |                                                               |
 +---------------------------------------------------------------+

Job started: 12-02-2020 01:04 (-0000)
 
Reading parameters from file "host_14161.dat" ...... done

If your calculation crashes here, before "Checking processes and threads..."
is displayed, then your stack size is insufficient.
If so, use "ulimit -s unlimited" at runtime.
You can disable this check with "check_stack_size F".

Checking processes and threads...
   Determining the default number of threads...
      No default threads set at compilation time: defaulting to 1.
      OpenMP library call suggests 4 threads.
      Hybrid MPI-OpenMP compilation detected.
      Number of MPI processes > 1.
      OMP_NUM_THREADS environment variable present and
      its value matches the one obtained from the OpenMP library call.
      Using this value as default.
      Default threads: 4
      Default applies to threads_max and threads_num_fftboxes.
      Settings in the input file override this default.
   ... done

   Running with 30 MPI processes.
   There are 4 MPI processes running on the same node as the root process.
   Each MPI process is using: 
               1 threads for simulation cell FFTs.
               1 threads for parallel FFT box operations.
               4 threads for loops over batched FFT box operations.
               4 threads in other parallel regions.
... done

Basic input checks...... done

Reading geometry and species blocks from file "host_14161.dat" ...
  <species_atomic_set> block not found: NGWF initialisation set to SOLVE
IS: Dielectric excluded regions:
    - NONE.
    
  Number of PPD points along a3 set to 1.  This is 
  the default value, it may have been provided also in the input file.
... done
 Writing xyz coordinates to file "host_14161.xyz" ... done


--------------------------------------------------------------------------------
---------------------------------- INPUT FILE ----------------------------------
--------------------------------------------------------------------------------

cutoff_energy       : 800 eV                                                    
xc_functional VV10                                                              
task SINGLEPOINT                                                                
write_xyz true                                                                  
output_detail VERBOSE                                                           
ngwf_threshold_orig : 0.000002                                                  
kernel_cutoff       : 1000                                                      
k_zero              : 3.5                                                       
elec_cg_max 0                                                                   
occ_mix 1.0                                                                     
dispersion 0                                                                    
maxit_ngwf_cg 40                                                                
minit_lnv 10                                                                    
maxit_lnv 10                                                                    
write_denskern T                                                                
write_tightbox_ngwfs T                                                          
charge 9                                                                        
is_implicit_solvent T                                                           
is_auto_solvation T                                                             
is_include_apolar T                                                             
is_smeared_ion_rep T                                                            
is_solvent_surf_tension 4.7624E-5 Ha/bohr**2                                    
is_apolar_scaling_factor 0.281075                                               
is_solvation_beta 1.3                                                           
is_density_threshold 0.00035                                                    
is_bulk_permittivity 78.54                                                      
is_dielectric_model fix_initial                                                 
is_smeared_ion_width 0.8                                                        
mg_defco_fd_order 8                                                             
is_bc_coarseness 10                                                             
is_bc_surface_coarseness 1                                                      
fine_grid_scale 2.0                                                             
%block species                                                                  
N   N   7 4 8.0                                                                 
H   H   1 1 8.0                                                                 
C   C   6 4 8.0                                                                 
S   S  16 9 8.0                                                                 
O   O   8 4 8.0                                                                 
%endblock species                                                               
%block species_pot                                                              
N   N_00.recpot                                                                 
H   H_04.recpot                                                                 
C   C_01.recpot                                                                 
S   S_00.recpot                                                                 
O   O_02.recpot                                                                 
%endblock species_pot                                                           
%block lattice_cart                                                             
139.898   0.000   0.000                                                         
0.000 144.87   0.000                                                            
0.000   0.000   168.12                                                          
%endblock lattice_cart                                                          
%block positions_abs                                                            
     Hash =  -000005116218170433706985
%endblock positions_abs                                                         

--------------------------------------------------------------------------------
-------------------------------- END INPUT FILE --------------------------------
--------------------------------------------------------------------------------


 
 ESDF WARNING(1): "kernelcutoff" (esdf_physical) has no units. Assume "bohr".
 ESDF WARNING(2): "kzero" (esdf_physical) has no units. Assume "1/bohr".
 ESDF WARNING(3
 ): "issmearedionwidth" (esdf_physical) has no units. Assume "bohr".
<<<<<<<<<<<<<<<<<<<<<<<<<<<<<<<<< Full system >>>>>>>>>>>>>>>>>>>>>>>>>>>>>>>>>>
<<<<<<<<<<<<<<<<<<<<<<<<< Pseudopotential information >>>>>>>>>>>>>>>>>>>>>>>>>>
File: N_00.recpot [ 2001 points up to Gmax=  52.9 (1/bohr)]
  Atomic number:  7;  ionic charge:  5.000000
    Shell 1: l = 0; rc = 1.48 bohr
File: H_04.recpot [ 2001 points up to Gmax=  52.9 (1/bohr)]
  Atomic number:  1;  ionic charge:  1.000000
    Local potential
File: C_01.recpot [ 2001 points up to Gmax=  52.9 (1/bohr)]
  Atomic number:  6;  ionic charge:  4.000000
    Shell 1: l = 0; rc = 1.48 bohr
File: S_00.recpot [ 2001 points up to Gmax=  52.9 (1/bohr)]
  Atomic number: 16;  ionic charge:  6.000000
    Shell 1: l = 0; rc = 1.90 bohr
    Shell 2: l = 2; rc = 1.84 bohr
File: O_02.recpot [ 2001 points up to Gmax=  52.9 (1/bohr)]
  Atomic number:  8;  ionic charge:  6.000000
    Shell 1: l = 0; rc = 1.31 bohr
<<<<<<<<<<<<<<<<<<<<<<<<<<<<<<<<<<<<<<<<>>>>>>>>>>>>>>>>>>>>>>>>>>>>>>>>>>>>>>>>

-------------------------- Atom counting information ---------------------------
Symbol    Natoms    Nngwfs    Nprojs
  N        236       944       236
  H       1311      1311         0
  C        810      3240       810
  S          6        54        36
  O        239       956       239
.......   ......    ......    ......
Totals:   2602      6505      1321
--------------------------------------------------------------------------------

=============================== PSINC grid sizes ===============================
                      Simulation cell:  275 x 286 x 336
                              FFT-box:   99 x  99 x  99
                                  PPD:    5 x  11 x   1
Grid space d1=  0.508720000000a0 (KE cutoff=  29.35259Eh = 798.72452eV)
Grid space d2=  0.506538461538a0 (KE cutoff=  29.60596Eh = 805.61916eV)
Grid space d3=  0.500357142857a0 (KE cutoff=  30.34197Eh = 825.64705eV)
================================================================================

********************* Fourier parallelisation information **********************
       Coarse grid (whole simulation cell) dimensions:    275   286   336
          Real-space ('12') slabs/node (min max mean):     11    12    11
         Recip-space ('23') slabs/node (min max mean):      4     5     4
********************************************************************************

********************* Fourier parallelisation information **********************
       Double grid (whole simulation cell) dimensions:    550   572   672
          Real-space ('12') slabs/node (min max mean):     22    23    22
         Recip-space ('23') slabs/node (min max mean):      9    10     9
********************************************************************************
ONETEP fine grid is 550 x 572 x 672 gridpoints, 139.8980 x 144.8700 x 168.1200 bohr.
FD multigrid is     545 x 569 x 665 gridpoints, 138.6262 x 144.1102 x 166.3688 bohr.


Calculating local pseudopotential in open BC on a radial grid ...
Discrepancy between calculated realspace psloc and -Z/x on [5a0,262.342a0]:
max |rel. diff| # avg |rel. diff| #  avg rel. diff #  f # pseudopotential file
 0.000258413739    0.000003708905   0.000000070960   56  'N_00.recpot'
 0.000398954828    0.000016185045  -0.000000074508   56  'H_04.recpot'
 0.000375346405    0.000017198923   0.000000144535   56  'C_01.recpot'
 0.000466850533    0.000020125278   0.000000461745   56  'S_00.recpot'
 0.000671508953    0.000026045986   0.000000155458   56  'O_02.recpot'
... done

Atom SCF Calculation for N  : Z (AE atom) =   7 : Z (PS atom) =   5
Config String:
Orbitals (num,occ):  2     2.00 3.00
Orbitals   (num,l):  2        0    1
Real-space Grid (nr,dr,rmax): 1203    0.0066555740    8.0000000000
Spherical Bessel Basis (nsws,lmax,cutoff):   47    1  176.3951722778
Confining potential (l,width,scale):  0    3.0000000000  100.0000000000
Confining potential (l,width,scale):  1    3.0000000000  100.0000000000
  1         -4.7366890484   -3.4501654188    7.0523828109   -1.9619316308
  2         -9.7225420322   -2.0763080851    8.3068355706   -2.2908832437
  3         -9.7134243553   -2.1270543915    8.2534567806   -2.2819809971
  4         -9.7235185949   -2.1427582218    8.2369947390   -2.2802814234
  5         -9.7258373845   -2.1477905863    8.2317116314   -2.2798536235
  6         -9.7268932325   -2.1503512400    8.2290229806   -2.2796830099
  7         -9.7273189469   -2.1516634231    8.2276451699   -2.2796169657
  8         -9.7274675212   -2.1523365544    8.2269384796   -2.2795940092
  9         -9.7275041773   -2.1526817003    8.2265762312   -2.2795881371
 10         -9.7275008637   -2.1528585007    8.2263907413   -2.2795884060
 11         -9.7274868305   -2.1529489544    8.2262958841   -2.2795903922
 12         -9.7274755655   -2.1529859230    8.2262571347   -2.2795920452
 13         -9.7274662327   -2.1530083995    8.2262335832   -2.2795934369
 14         -9.7274589439   -2.1530220534    8.2262192809   -2.2795945372
 15         -9.7274534633   -2.1530303399    8.2262106039   -2.2795953734
 16         -9.7274494492   -2.1530353634    8.2262053452   -2.2795959920
 17         -9.7274465654   -2.1530384053    8.2262021621   -2.2795964406
 18         -9.7274445237   -2.1530402447    8.2262002378   -2.2795967611
 19         -9.7274430947   -2.1530413553    8.2261990762   -2.2795969874
 20         -9.7274421038   -2.1530420249    8.2261983762   -2.2795971458
 21         -9.7274414219   -2.1530424277    8.2261979551   -2.2795972557
 22         -9.7274409555   -2.1530426696    8.2261977024   -2.2795973315
 23         -9.7274406382   -2.1530428144    8.2261975510   -2.2795973835
 24         -9.7274404232   -2.1530429010    8.2261974606   -2.2795974190
 25         -9.7274402783   -2.1530429525    8.2261974067   -2.2795974432
 26         -9.7274401808   -2.1530429831    8.2261973748   -2.2795974596
Atom SCF converged after  26 iterations to a total energy of     -9.72744018

Atom SCF Calculation for H  : Z (AE atom) =   1 : Z (PS atom) =   1
Config String:
Orbitals (num,occ):  1     1.00
Orbitals   (num,l):  1        0
Real-space Grid (nr,dr,rmax): 1203    0.0066555740    8.0000000000
Spherical Bessel Basis (nsws,lmax,cutoff):   47    0  176.3951722778
Confining potential (l,width,scale):  0    3.0000000000  100.0000000000
  1         -0.3178661827   -0.2469879004    0.2820953124   -0.2487802071
  2         -0.3961824611   -0.2455070831    0.2902209900   -0.2567664324
  3         -0.4406462424   -0.2424227551    0.2948173255   -0.2622129794
  4         -0.4569739054   -0.2416771342    0.2960118236   -0.2639986016
  5         -0.4627745219   -0.2416114401    0.2961916694   -0.2644992007
  6         -0.4648634749   -0.2416666130    0.2961598921   -0.2646237065
  7         -0.4656347011   -0.2417155160    0.2961132802   -0.2646490719
  8         -0.4659271144   -0.2417438448    0.2960836537   -0.2646515522
  9         -0.4660407254   -0.2417580788    0.2960682004   -0.2646501482
 10         -0.4660857867   -0.2417647566    0.2960608087   -0.2646488305
 11         -0.4661039568   -0.2417677717    0.2960574330   -0.2646480606
 12         -0.4661113773   -0.2417691018    0.2960559329   -0.2646476727
 13         -0.4661144368   -0.2417696800    0.2960552775   -0.2646474903
 14         -0.4661157072   -0.2417699291    0.2960549942   -0.2646474079
 15         -0.4661162374   -0.2417700356    0.2960548727   -0.2646473715
 16         -0.4661164596   -0.2417700810    0.2960548208   -0.2646473556
 17         -0.4661165529   -0.2417701003    0.2960547987   -0.2646473488
Atom SCF converged after  17 iterations to a total energy of     -0.46611655

Atom SCF Calculation for C  : Z (AE atom) =   6 : Z (PS atom) =   4
Config String:
Orbitals (num,occ):  2     2.00 2.00
Orbitals   (num,l):  2        0    1
Real-space Grid (nr,dr,rmax): 1203    0.0066555740    8.0000000000
Spherical Bessel Basis (nsws,lmax,cutoff):   47    1  176.3951722778
Confining potential (l,width,scale):  0    3.0000000000  100.0000000000
Confining potential (l,width,scale):  1    3.0000000000  100.0000000000
  1         -5.2812238291   -1.3293161250    4.5135249990   -1.4716766231
  2         -5.3996591362   -1.3542148509    4.4876064308   -1.4645117417
  3         -5.4111847148   -1.3757224423    4.4645718036   -1.4593107263
  4         -5.4199203659   -1.3833334895    4.4563636676   -1.4579885221
  5         -5.4226876204   -1.3865104950    4.4529090432   -1.4575385943
  6         -5.4235070726   -1.3878131251    4.4514866831   -1.4573882877
  7         -5.4237271252   -1.3883401868    4.4509094528   -1.4573411661
  8         -5.4237693051   -1.3885521813    4.4506766230   -1.4573281030
  9         -5.4237656430   -1.3886371046    4.4505830704   -1.4573255254
 10         -5.4237547927   -1.3886709976    4.4505456041   -1.4573257244
 11         -5.4237478594   -1.3886817763    4.4505336403   -1.4573262476
 12         -5.4237429748   -1.3886873440    4.4505274417   -1.4573266921
 13         -5.4237397042   -1.3886902144    4.4505242350   -1.4573270222
 14         -5.4237375865   -1.3886916908    4.4505225792   -1.4573272507
 15         -5.4237362473   -1.3886924482    4.4505217259   -1.4573274021
 16         -5.4237354152   -1.3886928356    4.4505212873   -1.4573274996
 17         -5.4237349050   -1.3886930331    4.4505210623   -1.4573275610
 18         -5.4237345954   -1.3886931333    4.4505209473   -1.4573275991
 19         -5.4237344092   -1.3886931840    4.4505208887   -1.4573276224
 20         -5.4237342980   -1.3886932094    4.4505208590   -1.4573276366
 21         -5.4237342320   -1.3886932221    4.4505208440   -1.4573276451
Atom SCF converged after  21 iterations to a total energy of     -5.42373423

Atom SCF Calculation for S  : Z (AE atom) =  16 : Z (PS atom) =   6
Config String:
Orbitals (num,occ):  3     2.00 4.00 0.00
Orbitals   (num,l):  3        0    1    2
Real-space Grid (nr,dr,rmax): 1203    0.0066555740    8.0000000000
Spherical Bessel Basis (nsws,lmax,cutoff):   47    2  176.3951722778
Confining potential (l,width,scale):  0    3.0000000000  100.0000000000
Confining potential (l,width,scale):  1    3.0000000000  100.0000000000
Confining potential (l,width,scale):  2    3.0000000000  100.0000000000
  1        -12.4916237786   -1.0485914554   10.1554312477   -2.4822447765
  2         -9.9747083603   -2.4807597367    8.3138131863   -2.0618837268
  3        -10.1811370131   -2.3153496392    8.4906092179   -2.1137756843
  4        -10.1856385898   -2.2984912006    8.5093862195   -2.1218167101
  5        -10.1891317560   -2.2894783333    8.5195006030   -2.1261392389
  6        -10.1911142562   -2.2849160124    8.5246320974   -2.1283733378
  7        -10.1921506977   -2.2826473329    8.5271859473   -2.1295140514
  8        -10.1926851273   -2.2815219985    8.5284534218   -2.1300957983
  9        -10.1929632671   -2.2809620806    8.5290843811   -2.1303933136
 10        -10.1931100895   -2.2806822783    8.5293998452   -2.1305460626
 11        -10.1931885828   -2.2805418782    8.5295582201   -2.1306248009
 12        -10.1932309625   -2.2804711729    8.5296380158   -2.1306655459
 13        -10.1932540142   -2.2804354512    8.5296783476   -2.1306867097
 14        -10.1932666242   -2.2804173494    8.5296987927   -2.1306977435
 15        -10.1932735535   -2.2804081489    8.5297091868   -2.1307035175
 16        -10.1932773756   -2.2804034581    8.5297144867   -2.1307065505
 17        -10.1932794908   -2.2804010586    8.5297171976   -2.1307081499
 18        -10.1932806648   -2.2803998268    8.5297185890   -2.1307089965
 19        -10.1932813181   -2.2803991920    8.5297193057   -2.1307094466
 20        -10.1932816826   -2.2803988634    8.5297196763   -2.1307096867
 21        -10.1932818864   -2.2803986926    8.5297198688   -2.1307098154
 22        -10.1932820006   -2.2803986034    8.5297199692   -2.1307098847
 23        -10.1932820648   -2.2803985565    8.5297200219   -2.1307099221
Atom SCF converged after  23 iterations to a total energy of    -10.19328206

Atom SCF Calculation for O  : Z (AE atom) =   8 : Z (PS atom) =   6
Config String:
Orbitals (num,occ):  2     2.00 4.00
Orbitals   (num,l):  2        0    1
Real-space Grid (nr,dr,rmax): 1203    0.0066555740    8.0000000000
Spherical Bessel Basis (nsws,lmax,cutoff):   47    1  176.3951722778
Confining potential (l,width,scale):  0    3.0000000000  100.0000000000
Confining potential (l,width,scale):  1    3.0000000000  100.0000000000
  1         -1.9497477053   -7.5870966769   10.1554312477   -2.4822447765
  2        -15.9466298225   -3.1778351734   13.6353006614   -3.2931224232
  3        -16.0387051750   -3.0909030611   13.7305651010   -3.3194522996
  4        -15.9025031450   -3.1083023605   13.7128101414   -3.3180850501
  5        -15.8912953362   -3.1033022259   13.7185404266   -3.3206942093
  6        -15.8793912992   -3.1043100674   13.7175820250   -3.3209366960
  7        -15.8748748605   -3.1043975610   13.7175531476   -3.3211845618
  8        -15.8725354084   -3.1044655610   13.7175148333   -3.3213149154
  9        -15.8713193866   -3.1045129589   13.7174824743   -3.3213832909
 10        -15.8706863385   -3.1045436851   13.7174593895   -3.3214192053
 11        -15.8703562731   -3.1045627330   13.7174442347   -3.3214381098
 12        -15.8701839150   -3.1045741887   13.7174347673   -3.3214480859
 13        -15.8700937727   -3.1045809294   13.7174290448   -3.3214533647
 14        -15.8700465571   -3.1045848305   13.7174256662   -3.3214561658
 15        -15.8700217888   -3.1045870593   13.7174237063   -3.3214576563
 16        -15.8700087767   -3.1045883194   13.7174225849   -3.3214584516
 17        -15.8700019307   -3.1045890258   13.7174219502   -3.3214588771
 18        -15.8699983237   -3.1045894190   13.7174215942   -3.3214591053
 19        -15.8699964206   -3.1045896366   13.7174213960   -3.3214592281
 20        -15.8699954151   -3.1045897563   13.7174212864   -3.3214592942
 21        -15.8699948832   -3.1045898219   13.7174212260   -3.3214593299
 22        -15.8699946014   -3.1045898577   13.7174211930   -3.3214593493
 23        -15.8699944520   -3.1045898771   13.7174211750   -3.3214593597
 24        -15.8699943726   -3.1045898877   13.7174211652   -3.3214593654
Atom SCF converged after  24 iterations to a total energy of    -15.86999437

========================== Calculation in vacuum ==============================
= Adjusting the following parameters: 
= is_implicit_solvent: F
= is_include_apolar: F
= write_denskern: T
= write_tightbox_ngwfs: T
= restart read filename prefix: ""
= restart write filename prefix: "vacuum_"
===============================================================================

Determining parallel strategy ...
... using space-filling curve
... NGWF load balancing: max    217;  min    216;  average    217
... Projector load balancing: max     47;  min     43;  average     44
... done
Calculating direct Ion-Ion energy ...
Ion-Ion Energy        :    813450.75286219210830
Basis initialisation ...... NGWF spheres initialised
... Projector spheres initialised
... NGWF tight boxes initialised
... Tight-boxes gathered
... NGWF basis size (local,global):    1494163  45057827
... Nonlocal pseudopotential projector initialisation
... done

========================== Sparse matrix information ===========================
                        Overlap matrix filling:   6.65%
                        Density kernel filling: 100.00%
              NGWF-Proj overlap matrix filling:   1.77%
                    Hamiltonian matrix filling:   7.52%
                  NGWF diagonal matrix filling:   0.05%
                             KS matrix filling: 100.00% 
                           KSKS matrix filling: 100.00% 
================================================================================

Sparse matrix initialisation ... done

Generating smeared ion density ... done
Smeared ion self correction:     -14457.169564
Smeared ion non-self correction: -813402.638685
NGWF initialisation ...... done
============ Calculation of NGWF S^-1 using Hotelling algorithm ================ 
         Iteration  |  Frobenius norm and Maximum abs value    (of I-S*S_n^-1)   
               1       0.78466403E+02     0.98244900E+00
               2       0.76603015E+02     0.96532147E+00
               3       0.73584974E+02     0.93228105E+00
               4       0.69295863E+02     0.87081565E+00
               5       0.63959484E+02     0.76689557E+00
               6       0.57976333E+02     0.70515183E+00
               7       0.51977597E+02     0.67172431E+00
               8       0.46428915E+02     0.64368353E+00
               9       0.40321663E+02     0.60387493E+00
              10       0.31995904E+02     0.53656440E+00
              11       0.21407463E+02     0.42726534E+00
              12       0.10882373E+02     0.28072520E+00
              13       0.35784621E+01     0.12846939E+00
              14       0.57844450E+00     0.34204472E-01
              15       0.31731524E-01     0.29714582E-02
              16       0.21993509E-03     0.24977574E-04
              17       0.16486118E-07     0.22435733E-08
              18       0.97117766E-13     0.56621374E-14
================================================================================
Calculating local pseudopotential in open BC on the fine real space grid ...
... done

MG BCs: +ve charge blocks (gridpoints):     20807 (   16210773).
MG BCs: -ve charge blocks (gridpoints):      7922 (    1075350).
MG BCs:     Elided blocks (gridpoints):    189238 (  188933702).
MG BCs: Computational effort saved:  99.9861%.
MG BCs: Charge after coarse-graining:           -9.0002411.
MG DL_MG: Calling solver with defect correction order = 8
MG DL_MG: Solver finished
MG Hartree energy from (\int phi*rho dr):              1452.462166
MG Hartree energy from (\int eps (grad phi)^2 dr):     1451.850410
MG Discrepancy due to finite box and discretization:     -0.611757 (  -0.04212%)
MG Correction to account for finite box:                  0.454501
MG Remaining discrepancy, due to discretization:         -0.157255 (  -0.01083%)
Up spin density kernel initialisation ... 
======= Optimisation of K by Palser-Manolopoulos canonical purification ======== 
         Iteration  |  Band structure energy |    c_n   
               1       -2564.11487571807447    0.5265376
               2       -2740.02074554656110    0.5170737
               3       -2919.53741986883097    0.5160203
               4       -3068.41723796634096    0.5303764
               5       -3159.10975064291051    0.5676382
               6       -3196.61761917821286    0.6125674
               7       -3209.38980661257710    0.6233890
               8       -3215.02970832753408    0.6265596
               9       -3217.72215273613620    0.6488585
              10       -3218.81311027482116    0.6735310
              11       -3219.26176749648312    0.6839059
              12       -3219.47557324798072    0.6689632
              13       -3219.59517134644557    0.6179361
              14       -3219.67047581980796    0.5289116
              15       -3219.71334677100185    0.3961866
              16       -3219.72011808036314    0.3477680
              17       -3219.72085368608168    0.3757933
              18       -3219.72133097144251    0.4250467
              19       -3219.72175128115214    0.4704227
              20       -3219.72208860667524    0.4951421
              21       -3219.72231467641132    0.4998683
              22       -3219.72240680623008    0.4999999
              23       -3219.72241828037386    0.5000000
              24       -3219.72241843052007    0.5000000
Termination criterion satisfied: band energy change below threshold.
Final occupancy bounds: [    0.00000000000224:    0.99999999999943]
Closest occupancy to 0.5:     0.99999999999980
================================================================================
... done

Writing density kernel to file "host_14161.vacuum_dkn" ... done

>>> Optimising kernel for current NGWFs:
   Initial electron number for spin 1:    7192.00000000
     Final electron number for spin 1:    7192.00000000

=================== Penalty functional idempotency correction ==================
 RMS occupancy error at iteration   1:  0.000000 (step -0.5000 Ne1=   7192.0000)
            Final RMS occupancy error   :  0.000000 (Ne1=   7192.0000)
               Final occupancy bounds   : [  0.0000,  1.0000]
================================================================================

................................................................................
<<<<<<<<<<<<<< LNV (Original version) density kernel optimisation >>>>>>>>>>>>>>
~~~~~~~~~~~~~~~~~~~~~~~~~~~~~~~~~~~~~~~~~~~~~~~~~~~~~~~~~~~~~~~~~~~~~~~~~~~~~~~~
   iter  |      energy (Eh)       | rms gradient |  commutator  |   dE (Eh)
MG BCs: +ve charge blocks (gridpoints):     31399 (   17415763).
MG BCs: -ve charge blocks (gridpoints):      8208 (    1103792).
MG BCs:     Elided blocks (gridpoints):    178640 (  187700270).
MG BCs: Computational effort saved:  99.9808%.
MG BCs: Charge after coarse-graining:           -9.0009923.
MG DL_MG: Calling solver with defect correction order = 8
MG DL_MG: Solver finished
MG Hartree energy from (\int phi*rho dr):              1414.953997
MG Hartree energy from (\int eps (grad phi)^2 dr):     1414.296135
MG Discrepancy due to finite box and discretization:     -0.657862 (  -0.04649%)
MG Correction to account for finite box:                  0.457315
MG Remaining discrepancy, due to discretization:         -0.200546 (  -0.01417%)
      ideal mu1:      -0.722368871229
             Q0:  -11525.370696611353
             G0:    -144.493571922906
   RMS gradient:       0.001847893606
MG BCs: +ve charge blocks (gridpoints):     31444 (   17494180).
MG BCs: -ve charge blocks (gridpoints):      8124 (    1086988).
MG BCs:     Elided blocks (gridpoints):    178594 (  187638657).
MG BCs: Computational effort saved:  99.9808%.
MG BCs: Charge after coarse-graining:           -9.0010148.
MG DL_MG: Calling solver with defect correction order = 8
MG DL_MG: Solver finished
MG Hartree energy from (\int phi*rho dr):              1435.245874
MG Hartree energy from (\int eps (grad phi)^2 dr):     1434.605119
MG Discrepancy due to finite box and discretization:     -0.640756 (  -0.04464%)
MG Correction to account for finite box:                  0.456801
MG Remaining discrepancy, due to discretization:         -0.183955 (  -0.01282%)
     Trial step:       0.500000000000
             Q1:  -11536.507777554565
 Quadratic coef:      61.109705018242
 Linear coef   :     -72.246785961453
           Qmin:  -11546.724089170693
Quadratic minimum step length (  0.295561834000) accepted
    Initial Ne1:    7192.00000000
      Final Ne1:    7192.00000000

=================== Penalty functional idempotency correction ==================
 RMS occupancy error at iteration   1:  0.003445 (step -0.4882 Ne1=   7192.0000)
 RMS occupancy error at iteration   2:  0.000026 (step -0.5001 Ne1=   7192.0000)
            Final RMS occupancy error   :  0.000000 (Ne1=   7192.0000)
               Final occupancy bounds   : [  0.0000,  1.0000]
================================================================================

    1        -1.152537069661E+04     1.8479E-03     1.6714E-03
MG BCs: +ve charge blocks (gridpoints):     31411 (   17462760).
MG BCs: -ve charge blocks (gridpoints):      8169 (    1094527).
MG BCs:     Elided blocks (gridpoints):    178627 (  187662538).
MG BCs: Computational effort saved:  99.9808%.
MG BCs: Charge after coarse-graining:           -9.0010059.
MG DL_MG: Calling solver with defect correction order = 8
MG DL_MG: Solver finished
MG Hartree energy from (\int phi*rho dr):              1418.922914
MG Hartree energy from (\int eps (grad phi)^2 dr):     1418.276183
MG Discrepancy due to finite box and discretization:     -0.646730 (  -0.04558%)
MG Correction to account for finite box:                  0.456893
MG Remaining discrepancy, due to discretization:         -0.189838 (  -0.01338%)
      ideal mu1:      -0.757738111906
             Q0:  -11547.149512303993
             G0:     -11.737195663607
   RMS gradient:       0.000522924111
MG BCs: +ve charge blocks (gridpoints):     31432 (   17479705).
MG BCs: -ve charge blocks (gridpoints):      8146 (    1089866).
MG BCs:     Elided blocks (gridpoints):    178605 (  187650254).
MG BCs: Computational effort saved:  99.9808%.
MG BCs: Charge after coarse-graining:           -9.0010100.
MG DL_MG: Calling solver with defect correction order = 8
MG DL_MG: Solver finished
MG Hartree energy from (\int phi*rho dr):              1423.446339
MG Hartree energy from (\int eps (grad phi)^2 dr):     1422.803382
MG Discrepancy due to finite box and discretization:     -0.642957 (  -0.04517%)
MG Correction to account for finite box:                  0.456497
MG Remaining discrepancy, due to discretization:         -0.186460 (  -0.01310%)
     Trial step:       0.384422836210
             Q1:  -11549.931810878217
 Quadratic coef:       1.729747471933
 Linear coef   :      -4.512046046156
           Qmin:  -11550.091930178998
Quadratic minimum step length (  0.501383458082) accepted
    Initial Ne1:    7191.99990037
      Final Ne1:    7192.00000000

=================== Penalty functional idempotency correction ==================
 RMS occupancy error at iteration   1:  0.001836 (step -0.4929 Ne1=   7192.0000)
 RMS occupancy error at iteration   2:  0.000011 (step -0.5001 Ne1=   7192.0000)
            Final RMS occupancy error   :  0.000000 (Ne1=   7192.0000)
               Final occupancy bounds   : [  0.0000,  1.0000]
================================================================================

    2        -1.154714951230E+04     5.2292E-04     4.7297E-04    -2.1779E+01
MG BCs: +ve charge blocks (gridpoints):     31441 (   17484885).
MG BCs: -ve charge blocks (gridpoints):      8137 (    1088481).
MG BCs:     Elided blocks (gridpoints):    178596 (  187646459).
MG BCs: Computational effort saved:  99.9808%.
MG BCs: Charge after coarse-graining:           -9.0010113.
MG DL_MG: Calling solver with defect correction order = 8
MG DL_MG: Solver finished
MG Hartree energy from (\int phi*rho dr):              1424.863065
MG Hartree energy from (\int eps (grad phi)^2 dr):     1424.221167
MG Discrepancy due to finite box and discretization:     -0.641898 (  -0.04505%)
MG Correction to account for finite box:                  0.456393
MG Remaining discrepancy, due to discretization:         -0.185505 (  -0.01302%)
      ideal mu1:      -0.777384106183
             Q0:  -11550.127907377435
             G0:      -1.857002629553
   RMS gradient:       0.000208241966
MG BCs: +ve charge blocks (gridpoints):     31438 (   17484663).
MG BCs: -ve charge blocks (gridpoints):      8137 (    1089159).
MG BCs:     Elided blocks (gridpoints):    178601 (  187646003).
MG BCs: Computational effort saved:  99.9808%.
MG BCs: Charge after coarse-graining:           -9.0010110.
MG DL_MG: Calling solver with defect correction order = 8
MG DL_MG: Solver finished
MG Hartree energy from (\int phi*rho dr):              1423.249911
MG Hartree energy from (\int eps (grad phi)^2 dr):     1422.608292
MG Discrepancy due to finite box and discretization:     -0.641620 (  -0.04508%)
MG Correction to account for finite box:                  0.456233
MG Remaining discrepancy, due to discretization:         -0.185387 (  -0.01303%)
     Trial step:       0.439025342076
             Q1:  -11550.596520836581
 Quadratic coef:       0.346657755528
 Linear coef   :      -0.815271214675
           Qmin:  -11550.607246973101
Quadratic minimum step length (  0.516250852894) accepted
    Initial Ne1:    7191.99995367
      Final Ne1:    7192.00000000

=================== Penalty functional idempotency correction ==================
 RMS occupancy error at iteration   1:  0.000604 (step -0.4975 Ne1=   7192.0000)
 RMS occupancy error at iteration   2:  0.000001 (step -0.5000 Ne1=   7192.0000)
            Final RMS occupancy error   :  0.000000 (Ne1=   7192.0000)
               Final occupancy bounds   : [  0.0000,  1.0000]
================================================================================

    3        -1.155012790738E+04     2.0824E-04     1.8835E-04    -2.9784E+00
MG BCs: +ve charge blocks (gridpoints):     31435 (   17484539).
MG BCs: -ve charge blocks (gridpoints):      8138 (    1089281).
MG BCs:     Elided blocks (gridpoints):    178604 (  187646005).
MG BCs: Computational effort saved:  99.9808%.
MG BCs: Charge after coarse-graining:           -9.0010110.
MG DL_MG: Calling solver with defect correction order = 8
MG DL_MG: Solver finished
MG Hartree energy from (\int phi*rho dr):              1422.972939
MG Hartree energy from (\int eps (grad phi)^2 dr):     1422.331358
MG Discrepancy due to finite box and discretization:     -0.641581 (  -0.04509%)
MG Correction to account for finite box:                  0.456205
MG Remaining discrepancy, due to discretization:         -0.185376 (  -0.01303%)
      ideal mu1:      -0.778495029732
             Q0:  -11550.611861242447
             G0:      -0.454524202568
   RMS gradient:       0.000103079454
MG BCs: +ve charge blocks (gridpoints):     31436 (   17485497).
MG BCs: -ve charge blocks (gridpoints):      8132 (    1089080).
MG BCs:     Elided blocks (gridpoints):    178603 (  187645248).
MG BCs: Computational effort saved:  99.9808%.
MG BCs: Charge after coarse-graining:           -9.0010113.
MG DL_MG: Calling solver with defect correction order = 8
MG DL_MG: Solver finished
MG Hartree energy from (\int phi*rho dr):              1424.005779
MG Hartree energy from (\int eps (grad phi)^2 dr):     1423.364166
MG Discrepancy due to finite box and discretization:     -0.641612 (  -0.04506%)
MG Correction to account for finite box:                  0.456137
MG Remaining discrepancy, due to discretization:         -0.185475 (  -0.01302%)
     Trial step:       0.476074791696
             Q1:  -11550.714161501499
 Quadratic coef:       0.114087256006
 Linear coef   :      -0.216387515058
           Qmin:  -11550.714465946759
Quadratic minimum step length (  0.451481807711) accepted
    Initial Ne1:    7191.99998990
      Final Ne1:    7192.00000000

=================== Penalty functional idempotency correction ==================
 RMS occupancy error at iteration   1:  0.000198 (step -0.4992 Ne1=   7192.0000)
 RMS occupancy error at iteration   2:  0.000000 (step -0.5000 Ne1=   7192.0000)
            Final RMS occupancy error   :  0.000000 (Ne1=   7192.0000)
               Final occupancy bounds   : [  0.0000,  1.0000]
================================================================================

    4        -1.155061186124E+04     1.0308E-04     9.3233E-05    -4.8395E-01
MG BCs: +ve charge blocks (gridpoints):     31436 (   17485457).
MG BCs: -ve charge blocks (gridpoints):      8132 (    1089072).
MG BCs:     Elided blocks (gridpoints):    178603 (  187645296).
MG BCs: Computational effort saved:  99.9808%.
MG BCs: Charge after coarse-graining:           -9.0010112.
MG DL_MG: Calling solver with defect correction order = 8
MG DL_MG: Solver finished
MG Hartree energy from (\int phi*rho dr):              1423.952322
MG Hartree energy from (\int eps (grad phi)^2 dr):     1423.310712
MG Discrepancy due to finite box and discretization:     -0.641610 (  -0.04506%)
MG Correction to account for finite box:                  0.456141
MG Remaining discrepancy, due to discretization:         -0.185469 (  -0.01302%)
      ideal mu1:      -0.778772421919
             Q0:  -11550.714953627088
             G0:      -0.106895897779
   RMS gradient:       0.000050148946
MG BCs: +ve charge blocks (gridpoints):     31437 (   17485683).
MG BCs: -ve charge blocks (gridpoints):      8132 (    1088921).
MG BCs:     Elided blocks (gridpoints):    178601 (  187645221).
MG BCs: Computational effort saved:  99.9808%.
MG BCs: Charge after coarse-graining:           -9.0010112.
MG DL_MG: Calling solver with defect correction order = 8
MG DL_MG: Solver finished
MG Hartree energy from (\int phi*rho dr):              1424.315274
MG Hartree energy from (\int eps (grad phi)^2 dr):     1423.673501
MG Discrepancy due to finite box and discretization:     -0.641773 (  -0.04506%)
MG Correction to account for finite box:                  0.456156
MG Remaining discrepancy, due to discretization:         -0.185617 (  -0.01303%)
     Trial step:       0.463615258119
             Q1:  -11550.741781943943
 Quadratic coef:       0.022730252385
 Linear coef   :      -0.049558569241
           Qmin:  -11550.741966655183
Quadratic minimum step length (  0.505408133639) accepted
    Initial Ne1:    7191.99999732
      Final Ne1:    7192.00000000

=================== Penalty functional idempotency correction ==================
 RMS occupancy error at iteration   1:  0.000071 (step -0.4997 Ne1=   7192.0000)
            Final RMS occupancy error   :  0.000000 (Ne1=   7192.0000)
               Final occupancy bounds   : [ -0.0000,  1.0000]
================================================================================

    5        -1.155071495363E+04     5.0149E-05     4.5359E-05    -1.0309E-01
MG BCs: +ve charge blocks (gridpoints):     31437 (   17485708).
MG BCs: -ve charge blocks (gridpoints):      8132 (    1088897).
MG BCs:     Elided blocks (gridpoints):    178601 (  187645220).
MG BCs: Computational effort saved:  99.9808%.
MG BCs: Charge after coarse-graining:           -9.0010112.
MG DL_MG: Calling solver with defect correction order = 8
MG DL_MG: Solver finished
MG Hartree energy from (\int phi*rho dr):              1424.347986
MG Hartree energy from (\int eps (grad phi)^2 dr):     1423.706199
MG Discrepancy due to finite box and discretization:     -0.641788 (  -0.04506%)
MG Correction to account for finite box:                  0.456157
MG Remaining discrepancy, due to discretization:         -0.185631 (  -0.01303%)
      ideal mu1:      -0.778704664621
             Q0:  -11550.742024508654
             G0:      -0.032534059764
   RMS gradient:       0.000027690211
MG BCs: +ve charge blocks (gridpoints):     31437 (   17485226).
MG BCs: -ve charge blocks (gridpoints):      8133 (    1089143).
MG BCs:     Elided blocks (gridpoints):    178601 (  187645456).
MG BCs: Computational effort saved:  99.9808%.
MG BCs: Charge after coarse-graining:           -9.0010111.
MG DL_MG: Calling solver with defect correction order = 8
MG DL_MG: Solver finished
MG Hartree energy from (\int phi*rho dr):              1423.702452
MG Hartree energy from (\int eps (grad phi)^2 dr):     1423.060666
MG Discrepancy due to finite box and discretization:     -0.641786 (  -0.04508%)
MG Correction to account for finite box:                  0.456166
MG Remaining discrepancy, due to discretization:         -0.185620 (  -0.01304%)
     Trial step:       0.484060866351
             Q1:  -11550.752368244808
 Quadratic coef:       0.005404729001
 Linear coef   :      -0.015748465155
           Qmin:  -11550.753496598869
Quadratic minimum step length (  0.705235700519) accepted
    Initial Ne1:    7192.00038965
      Final Ne1:    7192.00000000

=================== Penalty functional idempotency correction ==================
 RMS occupancy error at iteration   1:  0.000044 (step -0.4997 Ne1=   7192.0000)
            Final RMS occupancy error   :  0.000000 (Ne1=   7192.0000)
               Final occupancy bounds   : [ -0.0000,  1.0000]
================================================================================

    6        -1.155074202451E+04     2.7690E-05     2.5045E-05    -2.7071E-02
MG BCs: +ve charge blocks (gridpoints):     31436 (   17484996).
MG BCs: -ve charge blocks (gridpoints):      8134 (    1089277).
MG BCs:     Elided blocks (gridpoints):    178602 (  187645552).
MG BCs: Computational effort saved:  99.9808%.
MG BCs: Charge after coarse-graining:           -9.0010110.
MG DL_MG: Calling solver with defect correction order = 8
MG DL_MG: Solver finished
MG Hartree energy from (\int phi*rho dr):              1423.406665
MG Hartree energy from (\int eps (grad phi)^2 dr):     1422.764880
MG Discrepancy due to finite box and discretization:     -0.641785 (  -0.04509%)
MG Correction to account for finite box:                  0.456170
MG Remaining discrepancy, due to discretization:         -0.185615 (  -0.01304%)
      ideal mu1:      -0.778364029592
             Q0:  -11550.753507311572
             G0:      -0.017908891758
   RMS gradient:       0.000020572499
MG BCs: +ve charge blocks (gridpoints):     31438 (   17485654).
MG BCs: -ve charge blocks (gridpoints):      8133 (    1088914).
MG BCs:     Elided blocks (gridpoints):    178600 (  187645257).
MG BCs: Computational effort saved:  99.9808%.
MG BCs: Charge after coarse-graining:           -9.0010112.
MG DL_MG: Calling solver with defect correction order = 8
MG DL_MG: Solver finished
MG Hartree energy from (\int phi*rho dr):              1424.072725
MG Hartree energy from (\int eps (grad phi)^2 dr):     1423.430973
MG Discrepancy due to finite box and discretization:     -0.641752 (  -0.04506%)
MG Correction to account for finite box:                  0.456157
MG Remaining discrepancy, due to discretization:         -0.185595 (  -0.01303%)
     Trial step:       0.584274767703
             Q1:  -11550.758065286791
 Quadratic coef:       0.005905738353
 Linear coef   :      -0.010463713572
           Qmin:  -11550.758142180879
Quadratic minimum step length (  0.517605373859) accepted
    Initial Ne1:    7192.00026218
      Final Ne1:    7192.00000000

=================== Penalty functional idempotency correction ==================
 RMS occupancy error at iteration   1:  0.000003 (step -0.5000 Ne1=   7192.0000)
            Final RMS occupancy error   :  0.000000 (Ne1=   7192.0000)
               Final occupancy bounds   : [  0.0000,  1.0000]
================================================================================

    7        -1.155075350731E+04     2.0572E-05     1.8607E-05    -1.1483E-02
MG BCs: +ve charge blocks (gridpoints):     31438 (   17485615).
MG BCs: -ve charge blocks (gridpoints):      8133 (    1088939).
MG BCs:     Elided blocks (gridpoints):    178600 (  187645271).
MG BCs: Computational effort saved:  99.9808%.
MG BCs: Charge after coarse-graining:           -9.0010111.
MG DL_MG: Calling solver with defect correction order = 8
MG DL_MG: Solver finished
MG Hartree energy from (\int phi*rho dr):              1423.996601
MG Hartree energy from (\int eps (grad phi)^2 dr):     1423.354844
MG Discrepancy due to finite box and discretization:     -0.641756 (  -0.04507%)
MG Correction to account for finite box:                  0.456159
MG Remaining discrepancy, due to discretization:         -0.185598 (  -0.01303%)
      ideal mu1:      -0.778722344500
             Q0:  -11550.758142405772
             G0:      -0.010503342759
   RMS gradient:       0.000015755681
MG BCs: +ve charge blocks (gridpoints):     31438 (   17485652).
MG BCs: -ve charge blocks (gridpoints):      8133 (    1088944).
MG BCs:     Elided blocks (gridpoints):    178600 (  187645229).
MG BCs: Computational effort saved:  99.9808%.
MG BCs: Charge after coarse-graining:           -9.0010112.
MG DL_MG: Calling solver with defect correction order = 8
MG DL_MG: Solver finished
MG Hartree energy from (\int phi*rho dr):              1424.061141
MG Hartree energy from (\int eps (grad phi)^2 dr):     1423.419427
MG Discrepancy due to finite box and discretization:     -0.641714 (  -0.04506%)
MG Correction to account for finite box:                  0.456151
MG Remaining discrepancy, due to discretization:         -0.185563 (  -0.01303%)
     Trial step:       0.549930686153
             Q1:  -11550.762490399415
 Quadratic coef:       0.001428116848
 Linear coef   :      -0.005776110491
           Qmin:  -11550.763982868415
Quadratic minimum step length (  1.112115024136) accepted
    Initial Ne1:    7192.00032873
      Final Ne1:    7192.00000000

=================== Penalty functional idempotency correction ==================
 RMS occupancy error at iteration   1:  0.000032 (step -0.4992 Ne1=   7192.0000)
            Final RMS occupancy error   :  0.000000 (Ne1=   7192.0000)
               Final occupancy bounds   : [ -0.0000,  1.0000]
================================================================================

    8        -1.155075814241E+04     1.5756E-05     1.4251E-05    -4.6351E-03
MG BCs: +ve charge blocks (gridpoints):     31438 (   17485677).
MG BCs: -ve charge blocks (gridpoints):      8132 (    1088956).
MG BCs:     Elided blocks (gridpoints):    178600 (  187645192).
MG BCs: Computational effort saved:  99.9808%.
MG BCs: Charge after coarse-graining:           -9.0010113.
MG DL_MG: Calling solver with defect correction order = 8
MG DL_MG: Solver finished
MG Hartree energy from (\int phi*rho dr):              1424.124654
MG Hartree energy from (\int eps (grad phi)^2 dr):     1423.482983
MG Discrepancy due to finite box and discretization:     -0.641671 (  -0.04506%)
MG Correction to account for finite box:                  0.456143
MG Remaining discrepancy, due to discretization:         -0.185527 (  -0.01303%)
      ideal mu1:      -0.778776294405
             Q0:  -11550.763963753358
             G0:      -0.015973977141
   RMS gradient:       0.000019490252
MG BCs: +ve charge blocks (gridpoints):     31438 (   17485490).
MG BCs: -ve charge blocks (gridpoints):      8133 (    1089110).
MG BCs:     Elided blocks (gridpoints):    178600 (  187645225).
MG BCs: Computational effort saved:  99.9808%.
MG BCs: Charge after coarse-graining:           -9.0010112.
MG DL_MG: Calling solver with defect correction order = 8
MG DL_MG: Solver finished
MG Hartree energy from (\int phi*rho dr):              1423.750171
MG Hartree energy from (\int eps (grad phi)^2 dr):     1423.108556
MG Discrepancy due to finite box and discretization:     -0.641615 (  -0.04507%)
MG Correction to account for finite box:                  0.456140
MG Remaining discrepancy, due to discretization:         -0.185475 (  -0.01303%)
     Trial step:       0.782039754939
             Q1:  -11550.771782466443
 Quadratic coef:       0.004673572083
 Linear coef   :      -0.012492285168
           Qmin:  -11550.772311607310
Quadratic minimum step length (  1.045181657538) accepted
    Initial Ne1:    7192.00082558
      Final Ne1:    7192.00000000

=================== Penalty functional idempotency correction ==================
 RMS occupancy error at iteration   1:  0.000182 (step -0.4951 Ne1=   7192.0000)
 RMS occupancy error at iteration   2:  0.000001 (step -0.5000 Ne1=   7192.0000)
            Final RMS occupancy error   :  0.000000 (Ne1=   7192.0000)
               Final occupancy bounds   : [  0.0000,  1.0000]
================================================================================

    9        -1.155076396375E+04     1.9490E-05     1.7628E-05    -5.8213E-03
MG BCs: +ve charge blocks (gridpoints):     31437 (   17485463).
MG BCs: -ve charge blocks (gridpoints):      8132 (    1089179).
MG BCs:     Elided blocks (gridpoints):    178601 (  187645183).
MG BCs: Computational effort saved:  99.9808%.
MG BCs: Charge after coarse-graining:           -9.0010112.
MG DL_MG: Calling solver with defect correction order = 8
MG DL_MG: Solver finished
MG Hartree energy from (\int phi*rho dr):              1423.620013
MG Hartree energy from (\int eps (grad phi)^2 dr):     1422.978418
MG Discrepancy due to finite box and discretization:     -0.641595 (  -0.04507%)
MG Correction to account for finite box:                  0.456138
MG Remaining discrepancy, due to discretization:         -0.185457 (  -0.01303%)
      ideal mu1:      -0.778226174062
   10        -1.155077222751E+04     2.1913E-05     1.9819E-05    -8.2638E-03
Finished density kernel iterations (  10)

Writing density kernel to file "host_14161.vacuum_dkn" ... done


>>> Density kernel optimised for the current NGWF basis:
     ~~~~~~~~~~~~~~~~~~~~~~~~~~~~~~~~~~~~~~~~~~~~~~~~~~~~~~~~~~~
     Total energy                =  -1.15507722275129E+04  Eh
     Estimated bandgap           =  -2.7381E-01  Eh
     RMS occupancy error         =   3.4750E-11
     [H,K] commutator            =   1.9819E-05
     Occupancy bounds            = [  0.000:  1.000]
     ~~~~~~~~~~~~~~~~~~~~~~~~~~~~~~~~~~~~~~~~~~~~~~~~~~~~~~~~~~~




################################################################################
########################### NGWF CG iteration  001 #############################
################################################################################
****** Reciprocal space K.E. preconditioning with k_zero =  3.5000 a0^-1 *******

>>> Checking for convergence of NGWFs:   NOT CONVERGED
  ========================================================================
         NGWF RMS gradient =  1.6177E-03 >  2.0000E-06  | above tolerance
  ========================================================================

>>> Improving NGWFs using line search:
============ Calculation of NGWF S^-1 using Hotelling algorithm ================ 
         Iteration  |  Frobenius norm and Maximum abs value    (of I-S*S_n^-1)   
               1       0.20277405E+00     0.55947092E-02
               2       0.95718258E-03     0.43243178E-04
               3       0.36418117E-07     0.25797784E-08
               4       0.13675316E-12     0.79936058E-14
================================================================================
MG BCs: +ve charge blocks (gridpoints):     30969 (   17435753).
MG BCs: -ve charge blocks (gridpoints):      8159 (    1088756).
MG BCs:     Elided blocks (gridpoints):    179072 (  187695316).
MG BCs: Computational effort saved:  99.9810%.
MG BCs: Charge after coarse-graining:           -9.0010121.
MG DL_MG: Calling solver with defect correction order = 8
MG DL_MG: Solver finished
MG Hartree energy from (\int phi*rho dr):              1391.251503
MG Hartree energy from (\int eps (grad phi)^2 dr):     1390.610753
MG Discrepancy due to finite box and discretization:     -0.640750 (  -0.04606%)
MG Correction to account for finite box:                  0.456116
MG Remaining discrepancy, due to discretization:         -0.184633 (  -0.01327%)
============ Calculation of NGWF S^-1 using Hotelling algorithm ================ 
         Iteration  |  Frobenius norm and Maximum abs value    (of I-S*S_n^-1)   
               1       0.18751071E+01     0.44206922E-01
               2       0.73302406E-01     0.25302014E-02
               3       0.15098076E-03     0.86698931E-05
               4       0.11556732E-08     0.10409822E-09
               5       0.11480132E-12     0.57731597E-14
================================================================================
------------------------------- NGWF line search -------------------------------
RMS gradient                =       0.00161766448900
Trial step length           =               0.122474
Gradient along search dir.  =       -283.14665386382
Functional at step 0        =  -11550.77222751290537
Functional at step 1        =  -11582.77399801951833
Functional predicted        =  -11663.10116214165100
Selected quadratic step     =               0.793433
--------------------------- NGWF line search finished --------------------------
                                               
Writing NGWFs to file "host_14161.vacuum_tightbox_ngwfs"....  done

>>> Optimising kernel for current NGWFs:
   Initial electron number for spin 1:    7227.79449758
     Final electron number for spin 1:    7192.00000000

=================== Penalty functional idempotency correction ==================
 RMS occupancy error at iteration   1:  0.004334 (step -0.4858 Ne1=   7192.0000)
 RMS occupancy error at iteration   2:  0.000072 (step -0.5003 Ne1=   7192.0000)
            Final RMS occupancy error   :  0.000000 (Ne1=   7192.0000)
               Final occupancy bounds   : [  0.0000,  1.0000]
================================================================================

................................................................................
<<<<<<<<<<<<<< LNV (Original version) density kernel optimisation >>>>>>>>>>>>>>
~~~~~~~~~~~~~~~~~~~~~~~~~~~~~~~~~~~~~~~~~~~~~~~~~~~~~~~~~~~~~~~~~~~~~~~~~~~~~~~~
   iter  |      energy (Eh)       | rms gradient |  commutator  |   dE (Eh)
MG BCs: +ve charge blocks (gridpoints):     25223 (   17149876).
MG BCs: -ve charge blocks (gridpoints):      8306 (    1071012).
MG BCs:     Elided blocks (gridpoints):    184822 (  187998937).
MG BCs: Computational effort saved:  99.9837%.
MG BCs: Charge after coarse-graining:           -9.0007124.
MG DL_MG: Calling solver with defect correction order = 8
MG DL_MG: Solver finished
MG Hartree energy from (\int phi*rho dr):              1236.677774
MG Hartree energy from (\int eps (grad phi)^2 dr):     1236.036957
MG Discrepancy due to finite box and discretization:     -0.640817 (  -0.05182%)
MG Correction to account for finite box:                  0.456033
MG Remaining discrepancy, due to discretization:         -0.184783 (  -0.01494%)
      ideal mu1:      -0.716898001845
             Q0:  -11662.147362404270
             G0:      -9.762382883878
   RMS gradient:       0.000480319941
MG BCs: +ve charge blocks (gridpoints):     25307 (   17180685).
MG BCs: -ve charge blocks (gridpoints):      8277 (    1062357).
MG BCs:     Elided blocks (gridpoints):    184738 (  187976783).
MG BCs: Computational effort saved:  99.9837%.
MG BCs: Charge after coarse-graining:           -9.0007043.
MG DL_MG: Calling solver with defect correction order = 8
MG DL_MG: Solver finished
MG Hartree energy from (\int phi*rho dr):              1263.088208
MG Hartree energy from (\int eps (grad phi)^2 dr):     1262.440407
MG Discrepancy due to finite box and discretization:     -0.647801 (  -0.05129%)
MG Correction to account for finite box:                  0.455685
MG Remaining discrepancy, due to discretization:         -0.192117 (  -0.01521%)
     Trial step:       0.904087167992
             Q1:  -11659.013148129801
 Quadratic coef:      11.960259368807
 Linear coef   :      -8.826045094338
           Qmin:  -11663.775652176364
Quadratic minimum step length (  0.333584492938) accepted
    Initial Ne1:    7191.99953713
      Final Ne1:    7192.00000000

=================== Penalty functional idempotency correction ==================
 RMS occupancy error at iteration   1:  0.000359 (step -0.4986 Ne1=   7192.0000)
 RMS occupancy error at iteration   2:  0.000000 (step -0.5000 Ne1=   7192.0000)
            Final RMS occupancy error   :  0.000000 (Ne1=   7192.0000)
               Final occupancy bounds   : [  0.0000,  1.0000]
================================================================================

    1        -1.166214736240E+04     4.8032E-04     4.3444E-04
MG BCs: +ve charge blocks (gridpoints):     25256 (   17161387).
MG BCs: -ve charge blocks (gridpoints):      8294 (    1067778).
MG BCs:     Elided blocks (gridpoints):    184789 (  187990660).
MG BCs: Computational effort saved:  99.9837%.
MG BCs: Charge after coarse-graining:           -9.0007094.
MG DL_MG: Calling solver with defect correction order = 8
MG DL_MG: Solver finished
MG Hartree energy from (\int phi*rho dr):              1245.051269
MG Hartree energy from (\int eps (grad phi)^2 dr):     1244.408010
MG Discrepancy due to finite box and discretization:     -0.643258 (  -0.05167%)
MG Correction to account for finite box:                  0.455882
MG Remaining discrepancy, due to discretization:         -0.187376 (  -0.01505%)
      ideal mu1:      -0.725456057741
             Q0:  -11663.735870713950
             G0:      -0.990961148351
   RMS gradient:       0.000154380623
MG BCs: +ve charge blocks (gridpoints):     25262 (   17162611).
MG BCs: -ve charge blocks (gridpoints):      8295 (    1068167).
MG BCs:     Elided blocks (gridpoints):    184783 (  187989047).
MG BCs: Computational effort saved:  99.9837%.
MG BCs: Charge after coarse-graining:           -9.0007089.
MG DL_MG: Calling solver with defect correction order = 8
MG DL_MG: Solver finished
MG Hartree energy from (\int phi*rho dr):              1246.950494
MG Hartree energy from (\int eps (grad phi)^2 dr):     1246.306910
MG Discrepancy due to finite box and discretization:     -0.643584 (  -0.05161%)
MG Correction to account for finite box:                  0.455895
MG Remaining discrepancy, due to discretization:         -0.187689 (  -0.01505%)
     Trial step:       0.549171612073
             Q1:  -11663.926706805476
 Quadratic coef:       0.353371639816
 Linear coef   :      -0.544207731341
           Qmin:  -11663.945396622004
Quadratic minimum step length (  0.422874112477) accepted
    Initial Ne1:    7191.99993937
      Final Ne1:    7192.00000000

=================== Penalty functional idempotency correction ==================
 RMS occupancy error at iteration   1:  0.000143 (step -0.4994 Ne1=   7192.0000)
            Final RMS occupancy error   :  0.000000 (Ne1=   7192.0000)
               Final occupancy bounds   : [ -0.0000,  1.0000]
================================================================================

    2        -1.166373587071E+04     1.5438E-04     1.3963E-04    -1.5885E+00
MG BCs: +ve charge blocks (gridpoints):     25261 (   17162315).
MG BCs: -ve charge blocks (gridpoints):      8296 (    1068051).
MG BCs:     Elided blocks (gridpoints):    184784 (  187989459).
MG BCs: Computational effort saved:  99.9837%.
MG BCs: Charge after coarse-graining:           -9.0007091.
MG DL_MG: Calling solver with defect correction order = 8
MG DL_MG: Solver finished
MG Hartree energy from (\int phi*rho dr):              1246.512484
MG Hartree energy from (\int eps (grad phi)^2 dr):     1245.868978
MG Discrepancy due to finite box and discretization:     -0.643506 (  -0.05162%)
MG Correction to account for finite box:                  0.455891
MG Remaining discrepancy, due to discretization:         -0.187614 (  -0.01505%)
      ideal mu1:      -0.726813721157
             Q0:  -11663.945904016728
             G0:      -0.154213548881
   RMS gradient:       0.000060300735
MG BCs: +ve charge blocks (gridpoints):     25263 (   17161338).
MG BCs: -ve charge blocks (gridpoints):      8296 (    1068601).
MG BCs:     Elided blocks (gridpoints):    184782 (  187989886).
MG BCs: Computational effort saved:  99.9837%.
MG BCs: Charge after coarse-graining:           -9.0007090.
MG DL_MG: Calling solver with defect correction order = 8
MG DL_MG: Solver finished
MG Hartree energy from (\int phi*rho dr):              1245.885792
MG Hartree energy from (\int eps (grad phi)^2 dr):     1245.242335
MG Discrepancy due to finite box and discretization:     -0.643456 (  -0.05165%)
MG Correction to account for finite box:                  0.455877
MG Remaining discrepancy, due to discretization:         -0.187579 (  -0.01506%)
     Trial step:       0.481902955015
             Q1:  -11663.993456925731
 Quadratic coef:       0.026763055906
 Linear coef   :      -0.074315964909
           Qmin:  -11663.997494375652
Quadratic minimum step length (  0.669076865133) accepted
    Initial Ne1:    7192.00062499
      Final Ne1:    7192.00000000

=================== Penalty functional idempotency correction ==================
 RMS occupancy error at iteration   1:  0.000066 (step -0.4998 Ne1=   7192.0000)
            Final RMS occupancy error   :  0.000000 (Ne1=   7192.0000)
               Final occupancy bounds   : [ -0.0000,  1.0000]
================================================================================

    3        -1.166394590402E+04     6.0301E-05     5.4541E-05    -2.1003E-01
MG BCs: +ve charge blocks (gridpoints):     25264 (   17160934).
MG BCs: -ve charge blocks (gridpoints):      8296 (    1068756).
MG BCs:     Elided blocks (gridpoints):    184781 (  187990135).
MG BCs: Computational effort saved:  99.9837%.
MG BCs: Charge after coarse-graining:           -9.0007091.
MG DL_MG: Calling solver with defect correction order = 8
MG DL_MG: Solver finished
MG Hartree energy from (\int phi*rho dr):              1245.642269
MG Hartree energy from (\int eps (grad phi)^2 dr):     1244.998831
MG Discrepancy due to finite box and discretization:     -0.643438 (  -0.05166%)
MG Correction to account for finite box:                  0.455872
MG Remaining discrepancy, due to discretization:         -0.187566 (  -0.01506%)
      ideal mu1:      -0.725787294334
             Q0:  -11663.997592826723
             G0:      -0.035943355543
   RMS gradient:       0.000029100815
MG BCs: +ve charge blocks (gridpoints):     25263 (   17160931).
MG BCs: -ve charge blocks (gridpoints):      8296 (    1068779).
MG BCs:     Elided blocks (gridpoints):    184782 (  187990115).
MG BCs: Computational effort saved:  99.9837%.
MG BCs: Charge after coarse-graining:           -9.0007091.
MG DL_MG: Calling solver with defect correction order = 8
MG DL_MG: Solver finished
MG Hartree energy from (\int phi*rho dr):              1245.753380
MG Hartree energy from (\int eps (grad phi)^2 dr):     1245.110049
MG Discrepancy due to finite box and discretization:     -0.643331 (  -0.05164%)
MG Correction to account for finite box:                  0.455874
MG Remaining discrepancy, due to discretization:         -0.187457 (  -0.01505%)
     Trial step:       0.567829303964
             Q1:  -11664.006575856474
 Quadratic coef:       0.011426660809
 Linear coef   :      -0.020409690560
           Qmin:  -11664.006706501219
Quadratic minimum step length (  0.507113170629) accepted
    Initial Ne1:    7192.00023689
      Final Ne1:    7192.00000000

=================== Penalty functional idempotency correction ==================
 RMS occupancy error at iteration   1:  0.000018 (step -0.4999 Ne1=   7192.0000)
            Final RMS occupancy error   :  0.000000 (Ne1=   7192.0000)
               Final occupancy bounds   : [ -0.0000,  1.0000]
================================================================================

    4        -1.166399759283E+04     2.9101E-05     2.6321E-05    -5.1689E-02
MG BCs: +ve charge blocks (gridpoints):     25263 (   17160942).
MG BCs: -ve charge blocks (gridpoints):      8296 (    1068780).
MG BCs:     Elided blocks (gridpoints):    184782 (  187990103).
MG BCs: Computational effort saved:  99.9837%.
MG BCs: Charge after coarse-graining:           -9.0007091.
MG DL_MG: Calling solver with defect correction order = 8
MG DL_MG: Solver finished
MG Hartree energy from (\int phi*rho dr):              1245.741322
MG Hartree energy from (\int eps (grad phi)^2 dr):     1245.097980
MG Discrepancy due to finite box and discretization:     -0.643342 (  -0.05164%)
MG Correction to account for finite box:                  0.455873
MG Remaining discrepancy, due to discretization:         -0.187469 (  -0.01505%)
      ideal mu1:      -0.725845506241
             Q0:  -11664.006711527123
             G0:      -0.011941337187
   RMS gradient:       0.000016795155
MG BCs: +ve charge blocks (gridpoints):     25263 (   17161564).
MG BCs: -ve charge blocks (gridpoints):      8295 (    1068560).
MG BCs:     Elided blocks (gridpoints):    184782 (  187989701).
MG BCs: Computational effort saved:  99.9837%.
MG BCs: Charge after coarse-graining:           -9.0007089.
MG DL_MG: Calling solver with defect correction order = 8
MG DL_MG: Solver finished
MG Hartree energy from (\int phi*rho dr):              1246.150391
MG Hartree energy from (\int eps (grad phi)^2 dr):     1245.507098
MG Discrepancy due to finite box and discretization:     -0.643293 (  -0.05162%)
MG Correction to account for finite box:                  0.455858
MG Remaining discrepancy, due to discretization:         -0.187435 (  -0.01504%)
     Trial step:       0.536613192821
             Q1:  -11664.010043430026
 Quadratic coef:       0.003075976172
 Linear coef   :      -0.006407879074
           Qmin:  -11664.010048753416
Quadratic minimum step length (  0.558936782484) accepted
    Initial Ne1:    7192.00009995
      Final Ne1:    7192.00000000

=================== Penalty functional idempotency correction ==================
 RMS occupancy error at iteration   1:  0.000010 (step -0.5000 Ne1=   7192.0000)
            Final RMS occupancy error   :  0.000000 (Ne1=   7192.0000)
               Final occupancy bounds   : [ -0.0000,  1.0000]
================================================================================

    5        -1.166400671153E+04     1.6795E-05     1.5191E-05    -9.1187E-03
MG BCs: +ve charge blocks (gridpoints):     25263 (   17161599).
MG BCs: -ve charge blocks (gridpoints):      8295 (    1068549).
MG BCs:     Elided blocks (gridpoints):    184782 (  187989677).
MG BCs: Computational effort saved:  99.9837%.
MG BCs: Charge after coarse-graining:           -9.0007089.
MG DL_MG: Calling solver with defect correction order = 8
MG DL_MG: Solver finished
MG Hartree energy from (\int phi*rho dr):              1246.167428
MG Hartree energy from (\int eps (grad phi)^2 dr):     1245.524137
MG Discrepancy due to finite box and discretization:     -0.643291 (  -0.05162%)
MG Correction to account for finite box:                  0.455858
MG Remaining discrepancy, due to discretization:         -0.187434 (  -0.01504%)
      ideal mu1:      -0.726217181026
             Q0:  -11664.010049797595
             G0:      -0.003693611277
   RMS gradient:       0.000009341019
MG BCs: +ve charge blocks (gridpoints):     25263 (   17161456).
MG BCs: -ve charge blocks (gridpoints):      8295 (    1068612).
MG BCs:     Elided blocks (gridpoints):    184782 (  187989757).
MG BCs: Computational effort saved:  99.9837%.
MG BCs: Charge after coarse-graining:           -9.0007090.
MG DL_MG: Calling solver with defect correction order = 8
MG DL_MG: Solver finished
MG Hartree energy from (\int phi*rho dr):              1246.090140
MG Hartree energy from (\int eps (grad phi)^2 dr):     1245.446854
MG Discrepancy due to finite box and discretization:     -0.643286 (  -0.05162%)
MG Correction to account for finite box:                  0.455855
MG Remaining discrepancy, due to discretization:         -0.187431 (  -0.01504%)
     Trial step:       0.547661256101
             Q1:  -11664.011317995028
 Quadratic coef:       0.000754650358
 Linear coef   :      -0.002022847792
           Qmin:  -11664.011405363501
Quadratic minimum step length (  0.734005722054) accepted
    Initial Ne1:    7192.00004880
      Final Ne1:    7192.00000000

=================== Penalty functional idempotency correction ==================
 RMS occupancy error at iteration   1:  0.000006 (step -0.4999 Ne1=   7192.0000)
            Final RMS occupancy error   :  0.000000 (Ne1=   7192.0000)
               Final occupancy bounds   : [ -0.0000,  1.0000]
================================================================================

    6        -1.166401004980E+04     9.3410E-06     8.4487E-06    -3.3383E-03
MG BCs: +ve charge blocks (gridpoints):     25263 (   17161441).
MG BCs: -ve charge blocks (gridpoints):      8296 (    1068609).
MG BCs:     Elided blocks (gridpoints):    184782 (  187989775).
MG BCs: Computational effort saved:  99.9837%.
MG BCs: Charge after coarse-graining:           -9.0007090.
MG DL_MG: Calling solver with defect correction order = 8
MG DL_MG: Solver finished
MG Hartree energy from (\int phi*rho dr):              1246.063805
MG Hartree energy from (\int eps (grad phi)^2 dr):     1245.420520
MG Discrepancy due to finite box and discretization:     -0.643284 (  -0.05163%)
MG Correction to account for finite box:                  0.455854
MG Remaining discrepancy, due to discretization:         -0.187430 (  -0.01504%)
      ideal mu1:      -0.726138301446
             Q0:  -11664.011405480327
             G0:      -0.002097528334
   RMS gradient:       0.000007040550
MG BCs: +ve charge blocks (gridpoints):     25264 (   17161284).
MG BCs: -ve charge blocks (gridpoints):      8296 (    1068666).
MG BCs:     Elided blocks (gridpoints):    184781 (  187989875).
MG BCs: Computational effort saved:  99.9837%.
MG BCs: Charge after coarse-graining:           -9.0007090.
MG DL_MG: Calling solver with defect correction order = 8
MG DL_MG: Solver finished
MG Hartree energy from (\int phi*rho dr):              1246.010366
MG Hartree energy from (\int eps (grad phi)^2 dr):     1245.367071
MG Discrepancy due to finite box and discretization:     -0.643295 (  -0.05163%)
MG Correction to account for finite box:                  0.455856
MG Remaining discrepancy, due to discretization:         -0.187439 (  -0.01504%)
     Trial step:       0.634024049800
             Q1:  -11664.011883002822
 Quadratic coef:       0.000852360914
 Linear coef   :      -0.001329883409
           Qmin:  -11664.011924213019
Quadratic minimum step length (  0.494613285788) accepted
    Initial Ne1:    7192.00000713
      Final Ne1:    7192.00000000

=================== Penalty functional idempotency correction ==================
 RMS occupancy error at iteration   1:  0.000000 (step -0.5000 Ne1=   7192.0000)
            Final RMS occupancy error   :  0.000000 (Ne1=   7192.0000)
               Final occupancy bounds   : [  0.0000,  1.0000]
================================================================================

    7        -1.166401140548E+04     7.0406E-06     6.3680E-06    -1.3557E-03
MG BCs: +ve charge blocks (gridpoints):     25263 (   17161318).
MG BCs: -ve charge blocks (gridpoints):      8296 (    1068659).
MG BCs:     Elided blocks (gridpoints):    184782 (  187989848).
MG BCs: Computational effort saved:  99.9837%.
MG BCs: Charge after coarse-graining:           -9.0007090.
MG DL_MG: Calling solver with defect correction order = 8
MG DL_MG: Solver finished
MG Hartree energy from (\int phi*rho dr):              1246.022074
MG Hartree energy from (\int eps (grad phi)^2 dr):     1245.378782
MG Discrepancy due to finite box and discretization:     -0.643292 (  -0.05163%)
MG Correction to account for finite box:                  0.455856
MG Remaining discrepancy, due to discretization:         -0.187437 (  -0.01504%)
      ideal mu1:      -0.726070196711
             Q0:  -11664.011924201157
             G0:      -0.001349574297
   RMS gradient:       0.000005647336
MG BCs: +ve charge blocks (gridpoints):     25264 (   17161296).
MG BCs: -ve charge blocks (gridpoints):      8296 (    1068662).
MG BCs:     Elided blocks (gridpoints):    184781 (  187989867).
MG BCs: Computational effort saved:  99.9837%.
MG BCs: Charge after coarse-graining:           -9.0007090.
MG DL_MG: Calling solver with defect correction order = 8
MG DL_MG: Solver finished
MG Hartree energy from (\int phi*rho dr):              1245.986987
MG Hartree energy from (\int eps (grad phi)^2 dr):     1245.343685
MG Discrepancy due to finite box and discretization:     -0.643302 (  -0.05163%)
MG Correction to account for finite box:                  0.455859
MG Remaining discrepancy, due to discretization:         -0.187443 (  -0.01504%)
     Trial step:       0.559997070118
             Q1:  -11664.012522835867
 Quadratic coef:       0.000157122942
 Linear coef   :      -0.000755757652
           Qmin:  -11664.012832995284
Quadratic minimum step length (  1.346786360212) accepted
    Initial Ne1:    7192.00001245
      Final Ne1:    7192.00000000

=================== Penalty functional idempotency correction ==================
 RMS occupancy error at iteration   1:  0.000008 (step -0.4997 Ne1=   7192.0000)
            Final RMS occupancy error   :  0.000000 (Ne1=   7192.0000)
               Final occupancy bounds   : [ -0.0000,  1.0000]
================================================================================

    8        -1.166401192420E+04     5.6473E-06     5.1079E-06    -5.1872E-04
MG BCs: +ve charge blocks (gridpoints):     25264 (   17161253).
MG BCs: -ve charge blocks (gridpoints):      8296 (    1068672).
[...]
MG DL_MG: Calling solver with defect correction order = 8
MG DL_MG: Solver finished
MG Hartree energy from (\int phi*rho dr):              1202.354898
MG Hartree energy from (\int eps (grad phi)^2 dr):     1202.162167
MG Discrepancy due to finite box and discretization:     -0.192731 (  -0.01603%)
MG Correction to account for finite box:                  0.006254
MG Remaining discrepancy, due to discretization:         -0.186477 (  -0.01551%)
             Q2:  -11697.830320263864
  Cubic LS coeff:       0.928570550056
Predicted energy:  -11697.830320263876
Cubic minimum step length accepted
    Initial Ne1:    7192.00000000
      Final Ne1:    7192.00000000

=================== Penalty functional idempotency correction ==================
 RMS occupancy error at iteration   1:  0.000000 (step -0.5000 Ne1=   7192.0000)
            Final RMS occupancy error   :  0.000000 (Ne1=   7192.0000)
               Final occupancy bounds   : [  0.0000,  1.0000]
================================================================================

    7        -1.169783032026E+04     8.5842E-09     7.7642E-09    -1.8626E-09

Reusing previously generated solute cavity.
MG BCs: +ve charge blocks (gridpoints):     29773 (   19487133).
MG BCs: -ve charge blocks (gridpoints):      8280 (    1038394).
MG BCs:     Elided blocks (gridpoints):    180272 (  185694298).
MG BCs: Computational effort saved:  99.9815%.
MG BCs: Charge after coarse-graining:           -9.0009936.
MG DL_MG: Calling solver with defect correction order = 8
MG DL_MG: Solver finished
MG Hartree energy from (\int phi*rho dr):              1202.354898
MG Hartree energy from (\int eps (grad phi)^2 dr):     1202.162167
MG Discrepancy due to finite box and discretization:     -0.192731 (  -0.01603%)
MG Correction to account for finite box:                  0.006254
MG Remaining discrepancy, due to discretization:         -0.186477 (  -0.01551%)
      ideal mu1:      -0.485773370928
             Q0:  -11697.830320263864
             G0:      -0.000000003824
   RMS gradient:       0.000000008786

Reusing previously generated solute cavity.
MG BCs: +ve charge blocks (gridpoints):     29773 (   19487133).
MG BCs: -ve charge blocks (gridpoints):      8280 (    1038394).
MG BCs:     Elided blocks (gridpoints):    180272 (  185694298).
MG BCs: Computational effort saved:  99.9815%.
MG BCs: Charge after coarse-graining:           -9.0009936.
MG DL_MG: Calling solver with defect correction order = 8
MG DL_MG: Solver finished
MG Hartree energy from (\int phi*rho dr):              1202.354869
MG Hartree energy from (\int eps (grad phi)^2 dr):     1202.162139
MG Discrepancy due to finite box and discretization:     -0.192731 (  -0.01603%)
MG Correction to account for finite box:                  0.006254
MG Remaining discrepancy, due to discretization:         -0.186477 (  -0.01551%)
     Trial step:       0.654030570147
             Q1:  -11697.830320265028
 Quadratic coef:       0.000000001337
 Linear coef   :      -0.000000002501
           Qmin:  -11697.830320265033
Quadratic minimum step length (  0.611807161112) accepted
    Initial Ne1:    7192.00000000
      Final Ne1:    7192.00000000

=================== Penalty functional idempotency correction ==================
 RMS occupancy error at iteration   1:  0.000000 (step -0.5000 Ne1=   7192.0000)
            Final RMS occupancy error   :  0.000000 (Ne1=   7192.0000)
               Final occupancy bounds   : [  0.0000,  1.0000]
================================================================================

    8        -1.169783032026E+04     8.7859E-09     7.9467E-09    -3.2596E-09

Reusing previously generated solute cavity.
MG BCs: +ve charge blocks (gridpoints):     29773 (   19487133).
MG BCs: -ve charge blocks (gridpoints):      8280 (    1038394).
MG BCs:     Elided blocks (gridpoints):    180272 (  185694298).
MG BCs: Computational effort saved:  99.9815%.
MG BCs: Charge after coarse-graining:           -9.0009936.
MG DL_MG: Calling solver with defect correction order = 8
MG DL_MG: Solver finished
MG Hartree energy from (\int phi*rho dr):              1202.354871
MG Hartree energy from (\int eps (grad phi)^2 dr):     1202.162140
MG Discrepancy due to finite box and discretization:     -0.192731 (  -0.01603%)
MG Correction to account for finite box:                  0.006254
MG Remaining discrepancy, due to discretization:         -0.186477 (  -0.01551%)
      ideal mu1:      -0.485773339269
             Q0:  -11697.830320265028
             G0:      -0.000000001719
   RMS gradient:       0.000000005105

Reusing previously generated solute cavity.
MG BCs: +ve charge blocks (gridpoints):     29773 (   19487133).
MG BCs: -ve charge blocks (gridpoints):      8280 (    1038394).
MG BCs:     Elided blocks (gridpoints):    180272 (  185694298).
MG BCs: Computational effort saved:  99.9815%.
MG BCs: Charge after coarse-graining:           -9.0009936.
MG DL_MG: Calling solver with defect correction order = 8
MG DL_MG: Solver finished
MG Hartree energy from (\int phi*rho dr):              1202.354874
MG Hartree energy from (\int eps (grad phi)^2 dr):     1202.162143
MG Discrepancy due to finite box and discretization:     -0.192731 (  -0.01603%)
MG Correction to account for finite box:                  0.006254
MG Remaining discrepancy, due to discretization:         -0.186477 (  -0.01551%)
     Trial step:       0.632566665579
             Q1:  -11697.830320265144
 Quadratic coef:       0.000000000971
 Linear coef   :      -0.000000001087
           Qmin:  -11697.830320265331
Quadratic minimum step length (  0.354083586329) accepted
    Initial Ne1:    7192.00000000
      Final Ne1:    7192.00000000

=================== Penalty functional idempotency correction ==================
 RMS occupancy error at iteration   1:  0.000000 (step -0.5000 Ne1=   7192.0000)
            Final RMS occupancy error   :  0.000000 (Ne1=   7192.0000)
               Final occupancy bounds   : [ -0.0000,  1.0000]
================================================================================

    9        -1.169783032027E+04     5.1053E-09     4.6176E-09    -1.1642E-09

Reusing previously generated solute cavity.
MG BCs: +ve charge blocks (gridpoints):     29773 (   19487133).
MG BCs: -ve charge blocks (gridpoints):      8280 (    1038394).
MG BCs:     Elided blocks (gridpoints):    180272 (  185694298).
MG BCs: Computational effort saved:  99.9815%.
MG BCs: Charge after coarse-graining:           -9.0009936.
MG DL_MG: Calling solver with defect correction order = 8
MG DL_MG: Solver finished
MG Hartree energy from (\int phi*rho dr):              1202.354873
MG Hartree energy from (\int eps (grad phi)^2 dr):     1202.162142
MG Discrepancy due to finite box and discretization:     -0.192731 (  -0.01603%)
MG Correction to account for finite box:                  0.006254
MG Remaining discrepancy, due to discretization:         -0.186477 (  -0.01551%)
      ideal mu1:      -0.485773340764
   10        -1.169783032027E+04     3.8567E-09     3.4883E-09    -1.1642E-10
Finished density kernel iterations (  10)

Writing density kernel to file "host_14161.dkn" ... done


>>> Density kernel optimised for the current NGWF basis:
     ~~~~~~~~~~~~~~~~~~~~~~~~~~~~~~~~~~~~~~~~~~~~~~~~~~~~~~~~~~~
     Total energy                =  -1.16978303202651E+04  Eh
     Estimated bandgap           =   8.7526E-02  Eh
     RMS occupancy error         =   1.0912E-15
     [H,K] commutator            =   3.4883E-09
     Occupancy bounds            = [ -0.000:  1.000]
     ~~~~~~~~~~~~~~~~~~~~~~~~~~~~~~~~~~~~~~~~~~~~~~~~~~~~~~~~~~~




################################################################################
########################### NGWF CG iteration  004 #############################
################################################################################
****** Reciprocal space K.E. preconditioning with k_zero =  3.5000 a0^-1 *******

>>> Checking for convergence of NGWFs: 
           ........................................................
           |         *** NGWF optimisation converged ***          |
           | RMS NGWF gradient =    0.00000186247767              |
           | Criteria satisfied:                                  |
           | -> RMS NGWF gradient lower than set threshold.       |
           ========================================================

Reusing previously generated solute cavity.
MG BCs: +ve charge blocks (gridpoints):     29773 (   19487133).
MG BCs: -ve charge blocks (gridpoints):      8280 (    1038394).
MG BCs:     Elided blocks (gridpoints):    180272 (  185694298).
MG BCs: Computational effort saved:  99.9815%.
MG BCs: Charge after coarse-graining:           -9.0009936.
MG DL_MG: Calling solver with defect correction order = 8
MG DL_MG: Solver finished
MG Hartree energy from (\int phi*rho dr):              1202.354873
MG Hartree energy from (\int eps (grad phi)^2 dr):     1202.162142
MG Discrepancy due to finite box and discretization:     -0.192731 (  -0.01603%)
MG Correction to account for finite box:                  0.006254
MG Remaining discrepancy, due to discretization:         -0.186477 (  -0.01551%)

================================================================================
           ---------------- ENERGY COMPONENTS (Eh) ----------------
           | Kinetic                    :     8559.18058521203056 |
           | Pseudo. (local,OBC,corr'd) :    -5072.67002893307472 |
           | Pseudopotential (non-local):     1404.14729238985069 |
           | Hartree (molecular)        :     1202.35487256815327 |
           | Exchange-correlation       :    -3382.44300179506126 |
           | Ion-ion (open BC)          :   813450.75286219210830 |
           | Smeared ion non-self corr. :  -813402.63868496369105 |
           | Smeared ion self corr.     :   -14457.16956389741972 |
           | Solvent cavitation energy  :        2.33157328797370 |
           | Solute-solvent dis-rep en. :       -1.67622632605649 |
           | Total                      :   -11697.83032026526780 |
           --------------------------------------------------------
           ------ LOCAL ENERGY COMPONENTS FROM MATRIX TRACES ------
           | Pseudopotential (local)    :    -5072.67002893308836 |
           | Hartree                    :    -2003.75033557264351 |
           --------------------------------------------------------
           Integrated density           :     7191.99999999725969
           Integrated density tr(KS)    :     7192.00000000000091
================================================================================


                        <<<<< CALCULATION SUMMARY >>>>>                         
|ITER|    RMS GRADIENT   |     TOTAL ENERGY    |   step   |     Epredicted              
   0     0.00004181681967 -11697.76196590135805   0.625011 -11697.82109400893387        
   1     0.00000912793397 -11697.82993492274545   0.070627 -11697.83025328578151        
   2     0.00000410502570 -11697.83030618797056   0.013532 -11697.83031852421300        
   3     0.00000186247767 -11697.83032026514411  <-- CG                                 

=================== Finished the calculation in solvent ========================
= Adjusting the following parameters: 
= read_denskern: F
= read_tightbox_ngwfs: F
= maxit_pen: 0 (restored to user-specified value)
= restart read filename prefix: ""
= restart write filename prefix: ""
================================================================================

================================================================================
IS: Calculation in solvent completed (NGWFs converged).      

Individual components of total energy in solvent:     hartree           kcal/mol
- Usual non-electrostatic DFT terms:    -12900.84053979521559    -8095399.486468
- Electrostatic fixed charge energy:      1202.35487256815327      754489.057354
- Apolar cavitation energy:                  2.33157328797370        1463.084296
- Apolar dispersion-repulsion energy:       -1.67622632605649       -1051.847877
 -------------------------------------------------------------------------------
- Total energy in solvent:              -11697.83032026514411    -7340499.192696

Components of total energy in solvent:                hartree           kcal/mol
- Usual non-electrostatic DFT terms:    -12900.84053979521559    -8095399.486468
- Electrostatic energy:                   1202.35487256815327      754489.057354
- Apolar energy terms:                       0.65534696191721         411.236418
 -------------------------------------------------------------------------------
- Total energy in solvent:              -11697.83032026514411    -7340499.192696

Calculation of free energy of solvation:              hartree           kcal/mol
- Total energy in solvent:         (+)  -11697.83032026514411    -7340499.192696
- Total energy in vacuum:          (-)  -11693.88259315141477    -7338021.956585
 -------------------------------------------------------------------------------
- Total free energy of solvation:           -3.94772711372934       -2477.236111

Components of polar term in f.e. of solvation:        hartree           kcal/mol
- Electrostatic:                            -4.51737308608404       -2834.694348
- Change in nonelectrostatic DFT terms:     -0.08570098956261         -53.778182
 -------------------------------------------------------------------------------
- Polar term in f.e. of solvation:          -4.60307407564665       -2888.472530

Components of free energy of solvation:               hartree           kcal/mol
- Polar term in f.e. of solvation: (+)      -4.60307407564665       -2888.472530
- Apolar (cavitation, dis., rep.): (+)       0.65534696191721         411.236418
 -------------------------------------------------------------------------------
- Total free energy of solvation:           -3.94772711372944       -2477.236111
================================================================================


------------------------------ TIMING INFORMATION ------------------------------
AVERAGE TIME:   41594.126s on     30 node(s)                                    
TOTAL TIME:     41594.128s on     30 node(s)                                    
================= AVERAGE TIMINGS FROM ALL NODES (CUMULATIVE) ==================
|| TAG                                    #calls    cpu time   %total  Gflops ||
|| work_imbalance                       :     1        0.00s   0.000%  ------ ||
|| sparse_set_to_garbage                :   182        0.05s   0.000%  ------ ||
|| parallel_prepare_fd_halos_alloc      :  1953        0.06s   0.000%  ------ ||
|| parallel_prepare_fd_halos_request    :  1953        0.13s   0.000%  ------ ||
|| ngwfs_initialise_from_radial         :     1        0.22s   0.001%  ------ ||
|| basis_extract_function_from_box      :  7155        0.64s   0.002%  ------ ||
|| parallel_prepare_fd_halos_satisfy    :  1953        0.87s   0.002%  ------ ||
|| density_init_guess_real              :     1        3.64s   0.009%  ------ ||
|| pseudopotentials_nonlocal_mat        :    31        4.34s   0.010%  ------ ||
|| openbc_locps_radial                  :     1        6.79s   0.016%  ------ ||
|| parallel_prepare_fd_halos_comms_imbal:  1953        8.59s   0.021%  ------ ||
|| restart_ngwfs_tightbox_input         :     1        8.59s   0.021%  ------ ||
|| restart_kernel_read                  :     1       12.02s   0.029%  ------ ||
|| parallel_prepare_fd_halos_clear      :  1953       13.90s   0.033%  ------ ||
|| parallel_prepare_fd_halos_comms_wait :  1953       29.77s   0.072%  ------ ||
|| sparse_init                          :     2       32.14s   0.077%  ------ ||
|| restart_kernel_write                 :    17       32.63s   0.078%  ------ ||
|| projectors_init_fftbox_recip         :   255       33.02s   0.079%  ------ ||
|| projectors_func_ovlp_box             :    31       33.04s   0.079%  ------ ||
|| function_ops_brappd_ketppd           :    31       38.04s   0.091%  ------ ||
|| palser_mano_kernel_optimise          :     1       44.39s   0.107%  ------ ||
|| basis_copy_function_to_box           : 116.7k      50.64s   0.122%  ------ ||
|| parallel_prepare_fd_halos            :  1953       53.33s   0.128%  ------ ||
|| fourier_apply_box_pair               : 10312       62.52s   0.150% 477.435 ||
|| ngwf_gradient_coeffs                 :    16       85.24s   0.205%  ------ ||
|| restart_ngwfs_tightbox_output        :    14       97.84s   0.235%  ------ ||
|| sparse_embed_hotelling_invert_embed  :    31       98.20s   0.236%  ------ ||
|| pseudo_make_structure_factor         :     2      122.54s   0.295%  ------ ||
|| sparse_trace                         :  5211      191.96s   0.462%  ------ ||
|| integrals_kinetic                    :    31      204.17s   0.491%  ------ ||
|| finite_difference_derivative         :  1953      219.52s   0.528%  ------ ||
|| projectors_gradient_batch            :   224      257.05s   0.618%  ------ ||
|| basis_dot_function_with_box          : 17.48M     318.85s   0.767%  ------ ||
|| openbc_locps_on_grid                 :     2      327.30s   0.787%  ------ ||
|| kernel_purify                        :   496      385.01s   0.926%  ------ ||
|| lnv_gradient_norm                    :   160      589.60s   1.418%  ------ ||
|| hamiltonian_energy_components        :     4      638.39s   1.535%  ------ ||
|| kernel_fix                           :   160      642.50s   1.545%  ------ ||
|| basis_add_function_to_box            : 36.42M     656.48s   1.578%  ------ ||
|| ngwf_gradient_build_batch            :   224     1027.78s   2.471%  ------ ||
|| cell_grid_extract_box_real           : 62089     1189.31s   2.859%  ------ ||
|| cell_grid_deposit_box_real           : 72346     1223.28s   2.941%  ------ ||
|| integrals_locpot_mat_els_batch       :  2366     1332.89s   3.205%  ------ ||
|| ngwf_gradient_batch                  :   224     1388.48s   3.338%  ------ ||
|| density_batch_row_sums               :  4536     1476.67s   3.550%  ------ ||
|| ngwf_gradient_lnv                    :    16     1646.87s   3.959%  ------ ||
|| fourier_apply_cell_forward           :  9101     2247.73s   5.404%  59.327 ||
|| fourier_apply_cell_backward          :  9753     2275.53s   5.471%  62.800 ||
|| density_fftbox_deposit_to_cell       : 70308     2284.16s   5.492%  ------ ||
|| sparse_product                       :  6591     2444.85s   5.878%  ------ ||
|| multigrid_prepare_bound_cond         :   325     3690.89s   8.874%  ------ ||
|| potential_apply_to_ngwf_batch        :  2366     4326.26s  10.401%  ------ ||
|| density_fftbox_interpolate_multiply  : 70308     4920.15s  11.829%  ------ ||
|| integrals_locpot_dbl_grid            :   169     5674.54s  13.643%  ------ ||
|| fourier_apply_box                    : 243.1k    5900.51s  14.186% 578.140 ||
|| xc_energy_potential                  :   325     5992.55s  14.407%  ------ ||
|| density_batch_interp_deposit         :  4536     7904.81s  19.005%  ------ ||
|| dl_mg_solver_calls                   :   325     9362.03s  22.508%  ------ ||
|| nlxc_vdw_energy                      :   650     9780.08s  23.513%  ------ ||
|| density_on_dbl_grid                  :   324    10309.83s  24.787%  ------ ||
|| multigrid_calculate_hartree          :   325    13326.89s  32.040%  ------ ||
|| hamiltonian_lhxc_calculate           :   320    29404.36s  70.694%  ------ ||
|| lnv_denskernel_optimise_cg           :    16    35908.81s  86.331%  ------ ||
|| ngwf_cg_optimise                     :     2    40264.71s  96.804%  ------ ||
|| total_time                           :     1    41594.13s 100.000%  ------ ||
================================================================================
Overhead of generating timer report: 
- 0 ms averaging over threads,
- 5 ms ensuring consistency across MPI ranks,
- 0 ms printing in order.

Job completed: 12-02-2020 12:37 (-0000)

