 +---------------------------------------------------------------+
 |                                                               |
 |        ####### #     # ####### ####### ####### ######         |
 |        #     # ##    # #          #    #       #     #        |
 |        #     # # #   # #          #    #       #     #        |
 |        #     # #  #  # #####      #    #####   ######         |
 |        #     # #   # # #          #    #       #              |
 |        #     # #    ## #          #    #       #              |
 |        ####### #     # #######    #    ####### #              |
 |                                                               |
 |        Linear-Scaling Ab Initio Total Energy Program          |
 |                                                               |
 |          Release for academic collaborators of ODG            |
 |                                             Version 5.3.2.6.  |
 |                                                               |
 +---------------------------------------------------------------+
 |                                                               |
 |  Authors:                                                     |
 |  Jacek Dziedzic, Peter D. Haynes, Nicholas D. M. Hine,        |
 |  Arash. A. Mostofi, Mike C. Payne and Chris-Kriton Skylaris   |
 |                                                               |
 |  Contributors:                                                |
 |  J. Aarons, L. Andrinopoulos, P. W. Avraam, R. A. Bell,       |
 |  A. Bhandari, G. A. Bramley, R. J. Charlton, S. J. Clark,     |
 |  R. J. Clements, G. C. Constantinescu, F. Corsetti,           |
 |  N. Corsini, O. Dieguez, S. M. M. Dubois, K. K. B. Duff,      |
 |  J. M. Escartin, A. Greco, H. Helal, Q. O. Hill, L. P. Lee,   |
 |  J.-H. Li, E. B. Linscott, G. Moynihan, D. D. O`Regan,        |
 |  O. K. Okan, M. J. S. Phipps, C. J. Pickard,                  |
 |  J. C. A. Prentice, M. I. J. Probert, L. E. Ratcliff,         |
 |  M. Robinson, A. Ruiz Serrano, J. S. Spencer, E. W. Tait,     |
 |  G. Teobaldi, D. Turban, V. Vitale, K. A. Wilkinson,          |
 |  C. Weber, J. C. Womack, N. Yeung and T. J. Zuehlsdorff       |
 |                                                               |
 |                                   Copyright (c) 2004-2019     |
 |                                                               |
 |  Please cite:                                                 |
 |  "Introducing ONETEP: Linear-scaling density functional       |
 |   simulations on parallel computers".                         |
 |   C.-K. Skylaris, P. D. Haynes, A. A. Mostofi, M. C. Payne.   |
 |   J. Chem. Phys. 122 084119 (2005).                           |
 |                                                               |
 |          in all publications arising from your use of ONETEP. |
 |                                                               |
 +---------------------------------------------------------------+
 |                                                               |
 |   ONETEP is based on developments described in the following  |
 |   publications:                                               |
 |                                                               |
 |  "Nonorthogonal generalized Wannier function pseudopotential  |
 |   plane-wave method".                                         |
 |   C.-K. Skylaris, A. A. Mostofi, P. D. Haynes, O. Dieguez,    |
 |   M. C. Payne.                                                |
 |   Phys. Rev. B 66 035119 (2002).                              |
 |                                                               |
 |  "Preconditioned iterative minimization for linear-scaling    |
 |   electronic structure calculations".                         |
 |   A. A. Mostofi, P. D. Haynes, C.-K. Skylaris, M. C. Payne.   |
 |   J. Chem. Phys. 119(17), pp.8842-8848 (2003).                |
 |                                                               |
 |  "Total-energy calculations on a real space grid with         |
 |   localized functions and a plane-wave basis".                |
 |   A. A. Mostofi, C.-K. Skylaris, P. D. Haynes, M. C. Payne.   |
 |   Comput. Phys. Commun. 147, pp.788-802 (2002).               |
 |                                                               |
 |  "Accurate kinetic energy evaluation in electronic structure  |
 |   calculations with localized functions on real space grids"  |
 |   C.-K. Skylaris, A. A. Mostofi, P. D. Haynes, C. J. Pickard, |
 |   M. C. Payne.                                                |
 |   Comput. Phys. Commun. 140, pp.315-322 (2001).               |
 |                                                               |
 |  "Accurate ionic forces and geometry optimization in linear-  |
 |   scaling density-functional theory with local orbitals"      |
 |   N. D. M. Hine, M. Robinson, P. D. Haynes, C.-K. Skylaris,   |
 |   M. C. Payne, and A. A. Mostofi.                             |
 |   Phys. Rev. B 83 195102 (2011).                              |
 |                                                               |
 +---------------------------------------------------------------+

Job started: 26-02-2020 08:45 (-0000)
 
Reading parameters from file "host_35441.dat" ...... done

If your calculation crashes here, before "Checking processes and threads..."
is displayed, then your stack size is insufficient.
If so, use "ulimit -s unlimited" at runtime.
You can disable this check with "check_stack_size F".

Checking processes and threads...
   Determining the default number of threads...
      No default threads set at compilation time: defaulting to 1.
      OpenMP library call suggests 4 threads.
      Hybrid MPI-OpenMP compilation detected.
      Number of MPI processes > 1.
      OMP_NUM_THREADS environment variable present and
      its value matches the one obtained from the OpenMP library call.
      Using this value as default.
      Default threads: 4
      Default applies to threads_max and threads_num_fftboxes.
      Settings in the input file override this default.
   ... done

   Running with 60 MPI processes.
   There are 6 MPI processes running on the same node as the root process.
   Each MPI process is using: 
               1 threads for simulation cell FFTs.
               1 threads for parallel FFT box operations.
               4 threads for loops over batched FFT box operations.
               4 threads in other parallel regions.
... done

Basic input checks...... done

Reading geometry and species blocks from file "host_35441.dat" ...
  <species_atomic_set> block not found: NGWF initialisation set to SOLVE
IS: Dielectric excluded regions:
    - NONE.
    
  Number of PPD points along a3 set to 1.  This is 
  the default value, it may have been provided also in the input file.
... done
 Writing xyz coordinates to file "host_35441.xyz" ... done


--------------------------------------------------------------------------------
---------------------------------- INPUT FILE ----------------------------------
--------------------------------------------------------------------------------

cutoff_energy       : 800 eV                                                    
xc_functional VV10                                                              
task SINGLEPOINT                                                                
write_xyz true                                                                  
output_detail VERBOSE                                                           
ngwf_threshold_orig : 0.000002                                                  
kernel_cutoff       : 1000                                                      
k_zero              : 3.5                                                       
elec_cg_max 0                                                                   
occ_mix 1.0                                                                     
dispersion 0                                                                    
maxit_ngwf_cg 40                                                                
minit_lnv 10                                                                    
maxit_lnv 10                                                                    
write_denskern T                                                                
write_tightbox_ngwfs T                                                          
charge 9                                                                        
is_implicit_solvent T                                                           
is_auto_solvation T                                                             
is_include_apolar T                                                             
is_smeared_ion_rep T                                                            
is_solvent_surf_tension 4.7624E-5 Ha/bohr**2                                    
is_apolar_scaling_factor 0.281075                                               
is_solvation_beta 1.3                                                           
is_density_threshold 0.00035                                                    
is_bulk_permittivity 78.54                                                      
is_dielectric_model fix_initial                                                 
is_smeared_ion_width 0.8                                                        
mg_defco_fd_order 8                                                             
is_bc_coarseness 10                                                             
is_bc_surface_coarseness 1                                                      
fine_grid_scale 2.0                                                             
%block species                                                                  
N   N   7 4 8.0                                                                 
H   H   1 1 8.0                                                                 
C   C   6 4 8.0                                                                 
S   S  16 9 8.0                                                                 
O   O   8 4 8.0                                                                 
%endblock species                                                               
%block species_pot                                                              
N   N_00.recpot                                                                 
H   H_04.recpot                                                                 
C   C_01.recpot                                                                 
S   S_00.recpot                                                                 
O   O_02.recpot                                                                 
%endblock species_pot                                                           
%block lattice_cart                                                             
139.898   0.000   0.000                                                         
0.000 144.87   0.000                                                            
0.000   0.000   168.12                                                          
%endblock lattice_cart                                                          
%block positions_abs                                                            
     Hash =  -000004514280780798032423
%endblock positions_abs                                                         

--------------------------------------------------------------------------------
-------------------------------- END INPUT FILE --------------------------------
--------------------------------------------------------------------------------


 
 ESDF WARNING(1): "kernelcutoff" (esdf_physical) has no units. Assume "bohr".
 ESDF WARNING(2): "kzero" (esdf_physical) has no units. Assume "1/bohr".
 ESDF WARNING(3
 ): "issmearedionwidth" (esdf_physical) has no units. Assume "bohr".
<<<<<<<<<<<<<<<<<<<<<<<<<<<<<<<<< Full system >>>>>>>>>>>>>>>>>>>>>>>>>>>>>>>>>>
<<<<<<<<<<<<<<<<<<<<<<<<< Pseudopotential information >>>>>>>>>>>>>>>>>>>>>>>>>>
File: N_00.recpot [ 2001 points up to Gmax=  52.9 (1/bohr)]
  Atomic number:  7;  ionic charge:  5.000000
    Shell 1: l = 0; rc = 1.48 bohr
File: H_04.recpot [ 2001 points up to Gmax=  52.9 (1/bohr)]
  Atomic number:  1;  ionic charge:  1.000000
    Local potential
File: C_01.recpot [ 2001 points up to Gmax=  52.9 (1/bohr)]
  Atomic number:  6;  ionic charge:  4.000000
    Shell 1: l = 0; rc = 1.48 bohr
File: S_00.recpot [ 2001 points up to Gmax=  52.9 (1/bohr)]
  Atomic number: 16;  ionic charge:  6.000000
    Shell 1: l = 0; rc = 1.90 bohr
    Shell 2: l = 2; rc = 1.84 bohr
File: O_02.recpot [ 2001 points up to Gmax=  52.9 (1/bohr)]
  Atomic number:  8;  ionic charge:  6.000000
    Shell 1: l = 0; rc = 1.31 bohr
<<<<<<<<<<<<<<<<<<<<<<<<<<<<<<<<<<<<<<<<>>>>>>>>>>>>>>>>>>>>>>>>>>>>>>>>>>>>>>>>

-------------------------- Atom counting information ---------------------------
Symbol    Natoms    Nngwfs    Nprojs
  N        236       944       236
  H       1311      1311         0
  C        810      3240       810
  S          6        54        36
  O        239       956       239
.......   ......    ......    ......
Totals:   2602      6505      1321
--------------------------------------------------------------------------------

=============================== PSINC grid sizes ===============================
                      Simulation cell:  275 x 286 x 336
                              FFT-box:   99 x  99 x  99
                                  PPD:    5 x  11 x   1
Grid space d1=  0.508720000000a0 (KE cutoff=  29.35259Eh = 798.72452eV)
Grid space d2=  0.506538461538a0 (KE cutoff=  29.60596Eh = 805.61916eV)
Grid space d3=  0.500357142857a0 (KE cutoff=  30.34197Eh = 825.64705eV)
================================================================================

********************* Fourier parallelisation information **********************
       Coarse grid (whole simulation cell) dimensions:    275   286   336
          Real-space ('12') slabs/node (min max mean):      5     6     5
         Recip-space ('23') slabs/node (min max mean):      2     3     2
********************************************************************************

********************* Fourier parallelisation information **********************
       Double grid (whole simulation cell) dimensions:    550   572   672
          Real-space ('12') slabs/node (min max mean):     11    12    11
         Recip-space ('23') slabs/node (min max mean):      4     5     4
********************************************************************************
ONETEP fine grid is 550 x 572 x 672 gridpoints, 139.8980 x 144.8700 x 168.1200 bohr.
FD multigrid is     545 x 569 x 665 gridpoints, 138.6262 x 144.1102 x 166.3688 bohr.


Calculating local pseudopotential in open BC on a radial grid ...
Discrepancy between calculated realspace psloc and -Z/x on [5a0,262.342a0]:
max |rel. diff| # avg |rel. diff| #  avg rel. diff #  f # pseudopotential file
 0.000258413739    0.000003708905   0.000000070960   56  'N_00.recpot'
 0.000398954828    0.000016185045  -0.000000074508   56  'H_04.recpot'
 0.000375346405    0.000017198923   0.000000144535   56  'C_01.recpot'
 0.000466850533    0.000020125278   0.000000461745   56  'S_00.recpot'
 0.000671508953    0.000026045986   0.000000155458   56  'O_02.recpot'
... done

Atom SCF Calculation for N  : Z (AE atom) =   7 : Z (PS atom) =   5
Config String:
Orbitals (num,occ):  2     2.00 3.00
Orbitals   (num,l):  2        0    1
Real-space Grid (nr,dr,rmax): 1203    0.0066555740    8.0000000000
Spherical Bessel Basis (nsws,lmax,cutoff):   47    1  176.3951722778
Confining potential (l,width,scale):  0    3.0000000000  100.0000000000
Confining potential (l,width,scale):  1    3.0000000000  100.0000000000
  1         -4.7366890484   -3.4501654188    7.0523828109   -1.9619316308
  2         -9.7225420322   -2.0763080851    8.3068355706   -2.2908832437
  3         -9.7134243553   -2.1270543915    8.2534567806   -2.2819809971
  4         -9.7235185949   -2.1427582218    8.2369947390   -2.2802814234
  5         -9.7258373845   -2.1477905863    8.2317116314   -2.2798536235
  6         -9.7268932325   -2.1503512400    8.2290229806   -2.2796830099
  7         -9.7273189469   -2.1516634231    8.2276451699   -2.2796169657
  8         -9.7274675212   -2.1523365544    8.2269384796   -2.2795940092
  9         -9.7275041773   -2.1526817003    8.2265762312   -2.2795881371
 10         -9.7275008637   -2.1528585007    8.2263907413   -2.2795884060
 11         -9.7274868305   -2.1529489544    8.2262958841   -2.2795903922
 12         -9.7274755655   -2.1529859230    8.2262571347   -2.2795920452
 13         -9.7274662327   -2.1530083995    8.2262335832   -2.2795934369
 14         -9.7274589439   -2.1530220534    8.2262192809   -2.2795945372
 15         -9.7274534633   -2.1530303399    8.2262106039   -2.2795953734
 16         -9.7274494492   -2.1530353634    8.2262053452   -2.2795959920
 17         -9.7274465654   -2.1530384053    8.2262021621   -2.2795964406
 18         -9.7274445237   -2.1530402447    8.2262002378   -2.2795967611
 19         -9.7274430947   -2.1530413553    8.2261990762   -2.2795969874
 20         -9.7274421038   -2.1530420249    8.2261983762   -2.2795971458
 21         -9.7274414219   -2.1530424277    8.2261979551   -2.2795972557
 22         -9.7274409555   -2.1530426696    8.2261977024   -2.2795973315
 23         -9.7274406382   -2.1530428144    8.2261975510   -2.2795973835
 24         -9.7274404232   -2.1530429010    8.2261974606   -2.2795974190
 25         -9.7274402783   -2.1530429525    8.2261974067   -2.2795974432
 26         -9.7274401808   -2.1530429831    8.2261973748   -2.2795974596
Atom SCF converged after  26 iterations to a total energy of     -9.72744018

Atom SCF Calculation for H  : Z (AE atom) =   1 : Z (PS atom) =   1
Config String:
Orbitals (num,occ):  1     1.00
Orbitals   (num,l):  1        0
Real-space Grid (nr,dr,rmax): 1203    0.0066555740    8.0000000000
Spherical Bessel Basis (nsws,lmax,cutoff):   47    0  176.3951722778
Confining potential (l,width,scale):  0    3.0000000000  100.0000000000
  1         -0.3178661827   -0.2469879004    0.2820953124   -0.2487802071
  2         -0.3961824611   -0.2455070831    0.2902209900   -0.2567664324
  3         -0.4406462424   -0.2424227551    0.2948173255   -0.2622129794
  4         -0.4569739054   -0.2416771342    0.2960118236   -0.2639986016
  5         -0.4627745219   -0.2416114401    0.2961916694   -0.2644992007
  6         -0.4648634749   -0.2416666130    0.2961598921   -0.2646237065
  7         -0.4656347011   -0.2417155160    0.2961132802   -0.2646490719
  8         -0.4659271144   -0.2417438448    0.2960836537   -0.2646515522
  9         -0.4660407254   -0.2417580788    0.2960682004   -0.2646501482
 10         -0.4660857867   -0.2417647566    0.2960608087   -0.2646488305
 11         -0.4661039568   -0.2417677717    0.2960574330   -0.2646480606
 12         -0.4661113773   -0.2417691018    0.2960559329   -0.2646476727
 13         -0.4661144368   -0.2417696800    0.2960552775   -0.2646474903
 14         -0.4661157072   -0.2417699291    0.2960549942   -0.2646474079
 15         -0.4661162374   -0.2417700356    0.2960548727   -0.2646473715
 16         -0.4661164596   -0.2417700810    0.2960548208   -0.2646473556
 17         -0.4661165529   -0.2417701003    0.2960547987   -0.2646473488
Atom SCF converged after  17 iterations to a total energy of     -0.46611655

Atom SCF Calculation for C  : Z (AE atom) =   6 : Z (PS atom) =   4
Config String:
Orbitals (num,occ):  2     2.00 2.00
Orbitals   (num,l):  2        0    1
Real-space Grid (nr,dr,rmax): 1203    0.0066555740    8.0000000000
Spherical Bessel Basis (nsws,lmax,cutoff):   47    1  176.3951722778
Confining potential (l,width,scale):  0    3.0000000000  100.0000000000
Confining potential (l,width,scale):  1    3.0000000000  100.0000000000
  1         -5.2812238291   -1.3293161250    4.5135249990   -1.4716766231
  2         -5.3996591362   -1.3542148509    4.4876064308   -1.4645117417
  3         -5.4111847148   -1.3757224423    4.4645718036   -1.4593107263
  4         -5.4199203659   -1.3833334895    4.4563636676   -1.4579885221
  5         -5.4226876204   -1.3865104950    4.4529090432   -1.4575385943
  6         -5.4235070726   -1.3878131251    4.4514866831   -1.4573882877
  7         -5.4237271252   -1.3883401868    4.4509094528   -1.4573411661
  8         -5.4237693051   -1.3885521813    4.4506766230   -1.4573281030
  9         -5.4237656430   -1.3886371046    4.4505830704   -1.4573255254
 10         -5.4237547927   -1.3886709976    4.4505456041   -1.4573257244
 11         -5.4237478594   -1.3886817763    4.4505336403   -1.4573262476
 12         -5.4237429748   -1.3886873440    4.4505274417   -1.4573266921
 13         -5.4237397042   -1.3886902144    4.4505242350   -1.4573270222
 14         -5.4237375865   -1.3886916908    4.4505225792   -1.4573272507
 15         -5.4237362473   -1.3886924482    4.4505217259   -1.4573274021
 16         -5.4237354152   -1.3886928356    4.4505212873   -1.4573274996
 17         -5.4237349050   -1.3886930331    4.4505210623   -1.4573275610
 18         -5.4237345954   -1.3886931333    4.4505209473   -1.4573275991
 19         -5.4237344092   -1.3886931840    4.4505208887   -1.4573276224
 20         -5.4237342980   -1.3886932094    4.4505208590   -1.4573276366
 21         -5.4237342320   -1.3886932221    4.4505208440   -1.4573276451
Atom SCF converged after  21 iterations to a total energy of     -5.42373423

Atom SCF Calculation for S  : Z (AE atom) =  16 : Z (PS atom) =   6
Config String:
Orbitals (num,occ):  3     2.00 4.00 0.00
Orbitals   (num,l):  3        0    1    2
Real-space Grid (nr,dr,rmax): 1203    0.0066555740    8.0000000000
Spherical Bessel Basis (nsws,lmax,cutoff):   47    2  176.3951722778
Confining potential (l,width,scale):  0    3.0000000000  100.0000000000
Confining potential (l,width,scale):  1    3.0000000000  100.0000000000
Confining potential (l,width,scale):  2    3.0000000000  100.0000000000
  1        -12.4916237786   -1.0485914554   10.1554312477   -2.4822447765
  2         -9.9747083603   -2.4807597367    8.3138131863   -2.0618837268
  3        -10.1811370131   -2.3153496392    8.4906092179   -2.1137756843
  4        -10.1856385898   -2.2984912006    8.5093862195   -2.1218167101
  5        -10.1891317560   -2.2894783333    8.5195006030   -2.1261392389
  6        -10.1911142562   -2.2849160124    8.5246320974   -2.1283733378
  7        -10.1921506977   -2.2826473329    8.5271859473   -2.1295140514
  8        -10.1926851273   -2.2815219985    8.5284534218   -2.1300957983
  9        -10.1929632671   -2.2809620806    8.5290843811   -2.1303933136
 10        -10.1931100895   -2.2806822783    8.5293998452   -2.1305460626
 11        -10.1931885828   -2.2805418782    8.5295582201   -2.1306248009
 12        -10.1932309625   -2.2804711729    8.5296380158   -2.1306655459
 13        -10.1932540142   -2.2804354512    8.5296783476   -2.1306867097
 14        -10.1932666242   -2.2804173494    8.5296987927   -2.1306977435
 15        -10.1932735535   -2.2804081489    8.5297091868   -2.1307035175
 16        -10.1932773756   -2.2804034581    8.5297144867   -2.1307065505
 17        -10.1932794908   -2.2804010586    8.5297171976   -2.1307081499
 18        -10.1932806648   -2.2803998268    8.5297185890   -2.1307089965
 19        -10.1932813181   -2.2803991920    8.5297193057   -2.1307094466
 20        -10.1932816826   -2.2803988634    8.5297196763   -2.1307096867
 21        -10.1932818864   -2.2803986926    8.5297198688   -2.1307098154
 22        -10.1932820006   -2.2803986034    8.5297199692   -2.1307098847
 23        -10.1932820648   -2.2803985565    8.5297200219   -2.1307099221
Atom SCF converged after  23 iterations to a total energy of    -10.19328206

Atom SCF Calculation for O  : Z (AE atom) =   8 : Z (PS atom) =   6
Config String:
Orbitals (num,occ):  2     2.00 4.00
Orbitals   (num,l):  2        0    1
Real-space Grid (nr,dr,rmax): 1203    0.0066555740    8.0000000000
Spherical Bessel Basis (nsws,lmax,cutoff):   47    1  176.3951722778
Confining potential (l,width,scale):  0    3.0000000000  100.0000000000
Confining potential (l,width,scale):  1    3.0000000000  100.0000000000
  1         -1.9497477053   -7.5870966769   10.1554312477   -2.4822447765
  2        -15.9466298225   -3.1778351734   13.6353006614   -3.2931224232
  3        -16.0387051750   -3.0909030611   13.7305651010   -3.3194522996
  4        -15.9025031450   -3.1083023605   13.7128101414   -3.3180850501
  5        -15.8912953362   -3.1033022259   13.7185404266   -3.3206942093
  6        -15.8793912992   -3.1043100674   13.7175820250   -3.3209366960
  7        -15.8748748605   -3.1043975610   13.7175531476   -3.3211845618
  8        -15.8725354084   -3.1044655610   13.7175148333   -3.3213149154
  9        -15.8713193866   -3.1045129589   13.7174824743   -3.3213832909
 10        -15.8706863385   -3.1045436851   13.7174593895   -3.3214192053
 11        -15.8703562731   -3.1045627330   13.7174442347   -3.3214381098
 12        -15.8701839150   -3.1045741887   13.7174347673   -3.3214480859
 13        -15.8700937727   -3.1045809294   13.7174290448   -3.3214533647
 14        -15.8700465571   -3.1045848305   13.7174256662   -3.3214561658
 15        -15.8700217888   -3.1045870593   13.7174237063   -3.3214576563
 16        -15.8700087767   -3.1045883194   13.7174225849   -3.3214584516
 17        -15.8700019307   -3.1045890258   13.7174219502   -3.3214588771
 18        -15.8699983237   -3.1045894190   13.7174215942   -3.3214591053
 19        -15.8699964206   -3.1045896366   13.7174213960   -3.3214592281
 20        -15.8699954151   -3.1045897563   13.7174212864   -3.3214592942
 21        -15.8699948832   -3.1045898219   13.7174212260   -3.3214593299
 22        -15.8699946014   -3.1045898577   13.7174211930   -3.3214593493
 23        -15.8699944520   -3.1045898771   13.7174211750   -3.3214593597
 24        -15.8699943726   -3.1045898877   13.7174211652   -3.3214593654
Atom SCF converged after  24 iterations to a total energy of    -15.86999437

========================== Calculation in vacuum ==============================
= Adjusting the following parameters: 
= is_implicit_solvent: F
= is_include_apolar: F
= write_denskern: T
= write_tightbox_ngwfs: T
= restart read filename prefix: ""
= restart write filename prefix: "vacuum_"
===============================================================================

Determining parallel strategy ...
... using space-filling curve
... NGWF load balancing: max    109;  min    108;  average    108
... Projector load balancing: max     25;  min     21;  average     22
... done
Calculating direct Ion-Ion energy ...
Ion-Ion Energy        :    824146.07978703139815
Basis initialisation ...... NGWF spheres initialised
... Projector spheres initialised
... NGWF tight boxes initialised
... Tight-boxes gathered
... NGWF basis size (local,global):    1028692  62103179
... Nonlocal pseudopotential projector initialisation
... done

========================== Sparse matrix information ===========================
                        Overlap matrix filling:   6.69%
                        Density kernel filling: 100.00%
              NGWF-Proj overlap matrix filling:   1.77%
                    Hamiltonian matrix filling:   7.55%
                  NGWF diagonal matrix filling:   0.05%
                             KS matrix filling: 100.00% 
                           KSKS matrix filling: 100.00% 
================================================================================

Sparse matrix initialisation ... done

Generating smeared ion density ... done
Smeared ion self correction:     -14457.169564
Smeared ion non-self correction: -824097.953987
NGWF initialisation ...... done
============ Calculation of NGWF S^-1 using Hotelling algorithm ================ 
         Iteration  |  Frobenius norm and Maximum abs value    (of I-S*S_n^-1)   
               1       0.78409530E+02     0.98194000E+00
               2       0.76505970E+02     0.96438385E+00
               3       0.73437604E+02     0.93067658E+00
               4       0.69101698E+02     0.86826923E+00
               5       0.63731700E+02     0.76167392E+00
               6       0.57734251E+02     0.70048906E+00
               7       0.51750179E+02     0.66717294E+00
               8       0.46208910E+02     0.64077627E+00
               9       0.40041917E+02     0.59898480E+00
              10       0.31613505E+02     0.52741954E+00
              11       0.20960907E+02     0.41875912E+00
              12       0.10490435E+02     0.28027124E+00
              13       0.33422815E+01     0.13618591E+00
              14       0.49745206E+00     0.37566208E-01
              15       0.22085813E-01     0.33765493E-02
              16       0.12388511E-03     0.31695398E-04
              17       0.94718494E-08     0.30117533E-08
              18       0.85005654E-13     0.46629367E-14
================================================================================
Calculating local pseudopotential in open BC on the fine real space grid ...
... done

MG BCs: +ve charge blocks (gridpoints):     20283 (   15910573).
MG BCs: -ve charge blocks (gridpoints):      7963 (    1074779).
MG BCs:     Elided blocks (gridpoints):    189762 (  189234473).
MG BCs: Computational effort saved:  99.9863%.
MG BCs: Charge after coarse-graining:           -9.0002256.
MG DL_MG: Calling solver with defect correction order = 8
MG DL_MG: Solver finished
MG Hartree energy from (\int phi*rho dr):              1452.545634
MG Hartree energy from (\int eps (grad phi)^2 dr):     1451.933935
MG Discrepancy due to finite box and discretization:     -0.611699 (  -0.04211%)
MG Correction to account for finite box:                  0.454555
MG Remaining discrepancy, due to discretization:         -0.157144 (  -0.01082%)
Up spin density kernel initialisation ... 
======= Optimisation of K by Palser-Manolopoulos canonical purification ======== 
         Iteration  |  Band structure energy |    c_n   
               1       -2573.07153140758965    0.5270051
               2       -2748.84577792765504    0.5174412
               3       -2928.80833282769936    0.5162005
               4       -3078.76489160220399    0.5302942
               5       -3170.71059453557973    0.5669302
               6       -3209.03567269697260    0.6113992
               7       -3222.10797742039676    0.6210559
               8       -3227.86398767597257    0.6171271
               9       -3230.67407377563723    0.6275031
              10       -3231.83791684395464    0.6494059
              11       -3232.28128320405995    0.6652461
              12       -3232.46461189710817    0.6501577
              13       -3232.55804653604991    0.5979283
              14       -3232.61197135005386    0.5248737
              15       -3232.63728441655849    0.4289996
              16       -3232.64170544929129    0.3485658
              17       -3232.64255642982880    0.3283398
              18       -3232.64295157354172    0.3581973
              19       -3232.64334727865707    0.4010449
              20       -3232.64374385085830    0.4467485
              21       -3232.64404737308723    0.4826280
              22       -3232.64417725015937    0.4979367
              23       -3232.64419483507618    0.4999688
              24       -3232.64419511243204    0.4999688
Termination criterion satisfied: band energy change below threshold.
Final occupancy bounds: [    0.00000000000336:    0.99999999999821]
Closest occupancy to 0.5:     0.99999999999982
================================================================================
... done

Writing density kernel to file "host_35441.vacuum_dkn" ... done

>>> Optimising kernel for current NGWFs:
   Initial electron number for spin 1:    7192.00000000
     Final electron number for spin 1:    7192.00000000

=================== Penalty functional idempotency correction ==================
 RMS occupancy error at iteration   1:  0.000000 (step -0.5000 Ne1=   7192.0000)
            Final RMS occupancy error   :  0.000000 (Ne1=   7192.0000)
               Final occupancy bounds   : [  0.0000,  1.0000]
================================================================================

................................................................................
<<<<<<<<<<<<<< LNV (Original version) density kernel optimisation >>>>>>>>>>>>>>
~~~~~~~~~~~~~~~~~~~~~~~~~~~~~~~~~~~~~~~~~~~~~~~~~~~~~~~~~~~~~~~~~~~~~~~~~~~~~~~~
   iter  |      energy (Eh)       | rms gradient |  commutator  |   dE (Eh)
MG BCs: +ve charge blocks (gridpoints):     30760 (   17102167).
MG BCs: -ve charge blocks (gridpoints):      8254 (    1103368).
MG BCs:     Elided blocks (gridpoints):    179274 (  188014290).
MG BCs: Computational effort saved:  99.9811%.
MG BCs: Charge after coarse-graining:           -9.0009669.
MG DL_MG: Calling solver with defect correction order = 8
MG DL_MG: Solver finished
MG Hartree energy from (\int phi*rho dr):              1417.206025
MG Hartree energy from (\int eps (grad phi)^2 dr):     1416.534536
MG Discrepancy due to finite box and discretization:     -0.671489 (  -0.04738%)
MG Correction to account for finite box:                  0.471579
MG Remaining discrepancy, due to discretization:         -0.199909 (  -0.01411%)
      ideal mu1:      -0.708538045601
             Q0:  -11523.542108564870
             G0:    -148.463299774280
   RMS gradient:       0.001873105563
MG BCs: +ve charge blocks (gridpoints):     30775 (   17182157).
MG BCs: -ve charge blocks (gridpoints):      8174 (    1086408).
MG BCs:     Elided blocks (gridpoints):    179260 (  187951260).
MG BCs: Computational effort saved:  99.9811%.
MG BCs: Charge after coarse-graining:           -9.0009883.
MG DL_MG: Calling solver with defect correction order = 8
MG DL_MG: Solver finished
MG Hartree energy from (\int phi*rho dr):              1436.406145
MG Hartree energy from (\int eps (grad phi)^2 dr):     1435.752301
MG Discrepancy due to finite box and discretization:     -0.653844 (  -0.04552%)
MG Correction to account for finite box:                  0.470514
MG Remaining discrepancy, due to discretization:         -0.183329 (  -0.01276%)
     Trial step:       0.500000000000
             Q1:  -11535.301340574981
 Quadratic coef:      62.472417877030
 Linear coef   :     -74.231649887140
           Qmin:  -11545.593191395590
Quadratic minimum step length (  0.297057695259) accepted
    Initial Ne1:    7192.00000000
      Final Ne1:    7192.00000000

=================== Penalty functional idempotency correction ==================
 RMS occupancy error at iteration   1:  0.003559 (step -0.4878 Ne1=   7192.0000)
 RMS occupancy error at iteration   2:  0.000029 (step -0.5001 Ne1=   7192.0000)
            Final RMS occupancy error   :  0.000000 (Ne1=   7192.0000)
               Final occupancy bounds   : [  0.0000,  1.0000]
================================================================================

    1        -1.152354210856E+04     1.8731E-03     1.6942E-03
MG BCs: +ve charge blocks (gridpoints):     30774 (   17150197).
MG BCs: -ve charge blocks (gridpoints):      8210 (    1094105).
MG BCs:     Elided blocks (gridpoints):    179261 (  187975523).
MG BCs: Computational effort saved:  99.9811%.
MG BCs: Charge after coarse-graining:           -9.0009800.
MG DL_MG: Calling solver with defect correction order = 8
MG DL_MG: Solver finished
MG Hartree energy from (\int phi*rho dr):              1420.448309
MG Hartree energy from (\int eps (grad phi)^2 dr):     1419.788334
MG Discrepancy due to finite box and discretization:     -0.659976 (  -0.04646%)
MG Correction to account for finite box:                  0.470825
MG Remaining discrepancy, due to discretization:         -0.189151 (  -0.01332%)
      ideal mu1:      -0.751142883747
             Q0:  -11546.041499739978
             G0:     -12.465267635480
   RMS gradient:       0.000538808473
MG BCs: +ve charge blocks (gridpoints):     30771 (   17166864).
MG BCs: -ve charge blocks (gridpoints):      8190 (    1089414).
MG BCs:     Elided blocks (gridpoints):    179264 (  187963547).
MG BCs: Computational effort saved:  99.9811%.
MG BCs: Charge after coarse-graining:           -9.0009841.
MG DL_MG: Calling solver with defect correction order = 8
MG DL_MG: Solver finished
MG Hartree energy from (\int phi*rho dr):              1424.651712
MG Hartree energy from (\int eps (grad phi)^2 dr):     1423.996131
MG Discrepancy due to finite box and discretization:     -0.655580 (  -0.04602%)
MG Correction to account for finite box:                  0.469747
MG Remaining discrepancy, due to discretization:         -0.185833 (  -0.01304%)
     Trial step:       0.385394405291
             Q1:  -11548.990687157493
 Quadratic coef:       1.854856989650
 Linear coef   :      -4.804044407164
           Qmin:  -11549.152095704356
Quadratic minimum step length (  0.499082098410) accepted
    Initial Ne1:    7191.99987413
      Final Ne1:    7192.00000000

=================== Penalty functional idempotency correction ==================
 RMS occupancy error at iteration   1:  0.001945 (step -0.4922 Ne1=   7192.0000)
 RMS occupancy error at iteration   2:  0.000016 (step -0.5004 Ne1=   7192.0000)
            Final RMS occupancy error   :  0.000000 (Ne1=   7192.0000)
               Final occupancy bounds   : [  0.0000,  1.0000]
================================================================================

    2        -1.154604149974E+04     5.3881E-04     4.8734E-04    -2.2499E+01
MG BCs: +ve charge blocks (gridpoints):     30779 (   17171581).
MG BCs: -ve charge blocks (gridpoints):      8180 (    1088191).
MG BCs:     Elided blocks (gridpoints):    179256 (  187960053).
MG BCs: Computational effort saved:  99.9811%.
MG BCs: Charge after coarse-graining:           -9.0009854.
MG DL_MG: Calling solver with defect correction order = 8
MG DL_MG: Solver finished
MG Hartree energy from (\int phi*rho dr):              1425.944509
MG Hartree energy from (\int eps (grad phi)^2 dr):     1425.290133
MG Discrepancy due to finite box and discretization:     -0.654377 (  -0.04589%)
MG Correction to account for finite box:                  0.469450
MG Remaining discrepancy, due to discretization:         -0.184927 (  -0.01297%)
      ideal mu1:      -0.775113369147
             Q0:  -11549.191996231209
             G0:      -2.015946721122
   RMS gradient:       0.000216905358
MG BCs: +ve charge blocks (gridpoints):     30782 (   17171096).
MG BCs: -ve charge blocks (gridpoints):      8185 (    1089008).
MG BCs:     Elided blocks (gridpoints):    179252 (  187959721).
MG BCs: Computational effort saved:  99.9811%.
MG BCs: Charge after coarse-graining:           -9.0009851.
MG DL_MG: Calling solver with defect correction order = 8
MG DL_MG: Solver finished
MG Hartree energy from (\int phi*rho dr):              1424.265696
MG Hartree energy from (\int eps (grad phi)^2 dr):     1423.611889
MG Discrepancy due to finite box and discretization:     -0.653807 (  -0.04590%)
MG Correction to account for finite box:                  0.469002
MG Remaining discrepancy, due to discretization:         -0.184805 (  -0.01298%)
     Trial step:       0.438569776099
             Q1:  -11549.717413833714
 Quadratic coef:       0.358715699605
 Linear coef   :      -0.884133302110
           Qmin:  -11549.736781207697
Quadratic minimum step length (  0.540475569894) accepted
    Initial Ne1:    7191.99981517
      Final Ne1:    7192.00000000

=================== Penalty functional idempotency correction ==================
 RMS occupancy error at iteration   1:  0.000728 (step -0.4954 Ne1=   7192.0000)
 RMS occupancy error at iteration   2:  0.000007 (step -0.5004 Ne1=   7192.0000)
            Final RMS occupancy error   :  0.000000 (Ne1=   7192.0000)
               Final occupancy bounds   : [  0.0000,  1.0000]
================================================================================

    3        -1.154919199623E+04     2.1691E-04     1.9619E-04    -3.1505E+00
MG BCs: +ve charge blocks (gridpoints):     30781 (   17170837).
MG BCs: -ve charge blocks (gridpoints):      8187 (    1089252).
MG BCs:     Elided blocks (gridpoints):    179253 (  187959736).
MG BCs: Computational effort saved:  99.9811%.
MG BCs: Charge after coarse-graining:           -9.0009851.
MG DL_MG: Calling solver with defect correction order = 8
MG DL_MG: Solver finished
MG Hartree energy from (\int phi*rho dr):              1423.884568
MG Hartree energy from (\int eps (grad phi)^2 dr):     1423.230879
MG Discrepancy due to finite box and discretization:     -0.653689 (  -0.04591%)
MG Correction to account for finite box:                  0.468900
MG Remaining discrepancy, due to discretization:         -0.184789 (  -0.01298%)
      ideal mu1:      -0.776065433881
             Q0:  -11549.742306150962
             G0:      -0.599281060442
   RMS gradient:       0.000118344705
MG BCs: +ve charge blocks (gridpoints):     30784 (   17171952).
MG BCs: -ve charge blocks (gridpoints):      8184 (    1088945).
MG BCs:     Elided blocks (gridpoints):    179250 (  187958928).
MG BCs: Computational effort saved:  99.9811%.
MG BCs: Charge after coarse-graining:           -9.0009852.
MG DL_MG: Calling solver with defect correction order = 8
MG DL_MG: Solver finished
MG Hartree energy from (\int phi*rho dr):              1425.041568
MG Hartree energy from (\int eps (grad phi)^2 dr):     1424.387975
MG Discrepancy due to finite box and discretization:     -0.653593 (  -0.04586%)
MG Correction to account for finite box:                  0.468722
MG Remaining discrepancy, due to discretization:         -0.184871 (  -0.01297%)
     Trial step:       0.486863686955
             Q1:  -11549.896425835905
 Quadratic coef:       0.137648501666
 Linear coef   :      -0.291768186609
           Qmin:  -11549.896918576245
Quadratic minimum step length (  0.515993030615) accepted
    Initial Ne1:    7191.99989448
      Final Ne1:    7192.00000000

=================== Penalty functional idempotency correction ==================
 RMS occupancy error at iteration   1:  0.000443 (step -0.4883 Ne1=   7192.0000)
 RMS occupancy error at iteration   2:  0.000009 (step -0.5002 Ne1=   7192.0000)
            Final RMS occupancy error   :  0.000000 (Ne1=   7192.0000)
               Final occupancy bounds   : [  0.0000,  1.0000]
================================================================================

    4        -1.154974230615E+04     1.1834E-04     1.0704E-04    -5.5031E-01
MG BCs: +ve charge blocks (gridpoints):     30783 (   17172011).
MG BCs: -ve charge blocks (gridpoints):      8184 (    1088916).
MG BCs:     Elided blocks (gridpoints):    179251 (  187958898).
MG BCs: Computational effort saved:  99.9811%.
MG BCs: Charge after coarse-graining:           -9.0009852.
MG DL_MG: Calling solver with defect correction order = 8
MG DL_MG: Solver finished
MG Hartree energy from (\int phi*rho dr):              1425.112052
MG Hartree energy from (\int eps (grad phi)^2 dr):     1424.458464
MG Discrepancy due to finite box and discretization:     -0.653588 (  -0.04586%)
MG Correction to account for finite box:                  0.468711
MG Remaining discrepancy, due to discretization:         -0.184877 (  -0.01297%)
      ideal mu1:      -0.776324706241
             Q0:  -11549.897734637372
             G0:      -0.264574468168
   RMS gradient:       0.000078908452
MG BCs: +ve charge blocks (gridpoints):     30784 (   17172061).
MG BCs: -ve charge blocks (gridpoints):      8182 (    1088752).
MG BCs:     Elided blocks (gridpoints):    179250 (  187959012).
MG BCs: Computational effort saved:  99.9811%.
MG BCs: Charge after coarse-graining:           -9.0009851.
MG DL_MG: Calling solver with defect correction order = 8
MG DL_MG: Solver finished
MG Hartree energy from (\int phi*rho dr):              1425.571709
MG Hartree energy from (\int eps (grad phi)^2 dr):     1424.917870
MG Discrepancy due to finite box and discretization:     -0.653838 (  -0.04586%)
MG Correction to account for finite box:                  0.468766
MG Remaining discrepancy, due to discretization:         -0.185072 (  -0.01298%)
     Trial step:       0.501216788754
             Q1:  -11549.986103127128
 Quadratic coef:       0.044240675565
 Linear coef   :      -0.132609165321
           Qmin:  -11549.997106937313
Quadratic minimum step length (  0.751185861805) accepted
    Initial Ne1:    7191.99985670
      Final Ne1:    7192.00000000

=================== Penalty functional idempotency correction ==================
 RMS occupancy error at iteration   1:  0.001032 (step -0.4490 Ne1=   7192.0000)
 RMS occupancy error at iteration   2:  0.000030 (step -0.5001 Ne1=   7192.0000)
            Final RMS occupancy error   :  0.000000 (Ne1=   7192.0000)
               Final occupancy bounds   : [  0.0000,  1.0000]
================================================================================

    5        -1.154989773464E+04     7.8908E-05     7.1371E-05    -1.5543E-01
MG BCs: +ve charge blocks (gridpoints):     30784 (   17172129).
MG BCs: -ve charge blocks (gridpoints):      8180 (    1088685).
MG BCs:     Elided blocks (gridpoints):    179250 (  187959011).
MG BCs: Computational effort saved:  99.9811%.
MG BCs: Charge after coarse-graining:           -9.0009850.
MG DL_MG: Calling solver with defect correction order = 8
MG DL_MG: Solver finished
MG Hartree energy from (\int phi*rho dr):              1425.803466
MG Hartree energy from (\int eps (grad phi)^2 dr):     1425.149499
MG Discrepancy due to finite box and discretization:     -0.653967 (  -0.04587%)
MG Correction to account for finite box:                  0.468797
MG Remaining discrepancy, due to discretization:         -0.185170 (  -0.01299%)
      ideal mu1:      -0.776085055853
             Q0:  -11549.995058933855
             G0:      -0.237292283362
   RMS gradient:       0.000075775271
MG BCs: +ve charge blocks (gridpoints):     30781 (   17170872).
MG BCs: -ve charge blocks (gridpoints):      8185 (    1089285).
MG BCs:     Elided blocks (gridpoints):    179253 (  187959668).
MG BCs: Computational effort saved:  99.9811%.
MG BCs: Charge after coarse-graining:           -9.0009847.
MG DL_MG: Calling solver with defect correction order = 8
MG DL_MG: Solver finished
MG Hartree energy from (\int phi*rho dr):              1424.078284
MG Hartree energy from (\int eps (grad phi)^2 dr):     1423.424079
MG Discrepancy due to finite box and discretization:     -0.654205 (  -0.04594%)
MG Correction to account for finite box:                  0.469063
MG Remaining discrepancy, due to discretization:         -0.185142 (  -0.01300%)
     Trial step:       0.613601634133
             Q1:  -11550.083240123582
 Quadratic coef:       0.057421743111
 Linear coef   :      -0.145602932838
           Qmin:  -11550.087359397505
Quadratic minimum step length (  0.777947452335) accepted
    Initial Ne1:    7191.99969133
      Final Ne1:    7192.00000000

=================== Penalty functional idempotency correction ==================
 RMS occupancy error at iteration   1:  0.002997 (step -0.3715 Ne1=   7192.0000)
 RMS occupancy error at iteration   2:  0.000102 (step -0.4995 Ne1=   7192.0000)
 RMS occupancy error at iteration   3:  0.000000 (step -0.5000 Ne1=   7192.0000)
            Final RMS occupancy error   :  0.000000 (Ne1=   7192.0000)
               Final occupancy bounds   : [  0.0000,  1.0000]
================================================================================

    6        -1.154999505893E+04     7.5775E-05     6.8537E-05    -9.7324E-02
MG BCs: +ve charge blocks (gridpoints):     30779 (   17170643).
MG BCs: -ve charge blocks (gridpoints):      8186 (    1089416).
MG BCs:     Elided blocks (gridpoints):    179255 (  187959766).
MG BCs: Computational effort saved:  99.9811%.
MG BCs: Charge after coarse-graining:           -9.0009846.
MG DL_MG: Calling solver with defect correction order = 8
MG DL_MG: Solver finished
MG Hartree energy from (\int phi*rho dr):              1423.628556
MG Hartree energy from (\int eps (grad phi)^2 dr):     1422.974291
MG Discrepancy due to finite box and discretization:     -0.654265 (  -0.04596%)
MG Correction to account for finite box:                  0.469129
MG Remaining discrepancy, due to discretization:         -0.185136 (  -0.01300%)
      ideal mu1:      -0.775755558369
             Q0:  -11550.087770587066
             G0:      -0.200080590629
   RMS gradient:       0.000068763058
MG BCs: +ve charge blocks (gridpoints):     30780 (   17172096).
MG BCs: -ve charge blocks (gridpoints):      8181 (    1088705).
MG BCs:     Elided blocks (gridpoints):    179254 (  187959024).
MG BCs: Computational effort saved:  99.9811%.
MG BCs: Charge after coarse-graining:           -9.0009852.
MG DL_MG: Calling solver with defect correction order = 8
MG DL_MG: Solver finished
MG Hartree energy from (\int phi*rho dr):              1425.244948
MG Hartree energy from (\int eps (grad phi)^2 dr):     1424.590906
MG Discrepancy due to finite box and discretization:     -0.654042 (  -0.04589%)
MG Correction to account for finite box:                  0.469106
MG Remaining discrepancy, due to discretization:         -0.184935 (  -0.01298%)
     Trial step:       0.690905078880
             Q1:  -11550.152981951251
 Quadratic coef:       0.073025332067
 Linear coef   :      -0.138236696251
           Qmin:  -11550.153190981775
Quadratic minimum step length (  0.653940439735) accepted
    Initial Ne1:    7192.00000000
      Final Ne1:    7192.00000000

=================== Penalty functional idempotency correction ==================
 RMS occupancy error at iteration   1:  0.000115 (step -0.4927 Ne1=   7192.0000)
 RMS occupancy error at iteration   2:  0.000001 (step -0.5000 Ne1=   7192.0000)
            Final RMS occupancy error   :  0.000000 (Ne1=   7192.0000)
               Final occupancy bounds   : [  0.0000,  1.0000]
================================================================================

    7        -1.155008777059E+04     6.8763E-05     6.2195E-05    -9.2712E-02
MG BCs: +ve charge blocks (gridpoints):     30780 (   17172018).
MG BCs: -ve charge blocks (gridpoints):      8181 (    1088746).
MG BCs:     Elided blocks (gridpoints):    179254 (  187959061).
MG BCs: Computational effort saved:  99.9811%.
MG BCs: Charge after coarse-graining:           -9.0009851.
MG DL_MG: Calling solver with defect correction order = 8
MG DL_MG: Solver finished
MG Hartree energy from (\int phi*rho dr):              1425.158271
MG Hartree energy from (\int eps (grad phi)^2 dr):     1424.504217
MG Discrepancy due to finite box and discretization:     -0.654054 (  -0.04589%)
MG Correction to account for finite box:                  0.469108
MG Remaining discrepancy, due to discretization:         -0.184946 (  -0.01298%)
      ideal mu1:      -0.776853485201
             Q0:  -11550.153205869836
             G0:      -0.146691556627
   RMS gradient:       0.000058886398
MG BCs: +ve charge blocks (gridpoints):     30779 (   17171937).
MG BCs: -ve charge blocks (gridpoints):      8182 (    1088716).
MG BCs:     Elided blocks (gridpoints):    179255 (  187959172).
MG BCs: Computational effort saved:  99.9811%.
MG BCs: Charge after coarse-graining:           -9.0009852.
MG DL_MG: Calling solver with defect correction order = 8
MG DL_MG: Solver finished
MG Hartree energy from (\int phi*rho dr):              1425.150499
MG Hartree energy from (\int eps (grad phi)^2 dr):     1424.496466
MG Discrepancy due to finite box and discretization:     -0.654033 (  -0.04589%)
MG Correction to account for finite box:                  0.469188
MG Remaining discrepancy, due to discretization:         -0.184845 (  -0.01297%)
     Trial step:       0.672168707319
             Q1:  -11550.210389115266
 Quadratic coef:       0.041418228562
 Linear coef   :      -0.098601473993
           Qmin:  -11550.211889274529
Quadratic minimum step length (  0.800092466701) accepted
    Initial Ne1:    7191.99999996
      Final Ne1:    7192.00000000

=================== Penalty functional idempotency correction ==================
 RMS occupancy error at iteration   1:  0.000728 (step -0.4550 Ne1=   7192.0000)
 RMS occupancy error at iteration   2:  0.000016 (step -0.4994 Ne1=   7192.0000)
            Final RMS occupancy error   :  0.000000 (Ne1=   7192.0000)
               Final occupancy bounds   : [ -0.0000,  1.0000]
================================================================================

    8        -1.155015320587E+04     5.8886E-05     5.3261E-05    -6.5435E-02
MG BCs: +ve charge blocks (gridpoints):     30780 (   17171929).
MG BCs: -ve charge blocks (gridpoints):      8180 (    1088681).
MG BCs:     Elided blocks (gridpoints):    179254 (  187959215).
MG BCs: Computational effort saved:  99.9811%.
MG BCs: Charge after coarse-graining:           -9.0009852.
MG DL_MG: Calling solver with defect correction order = 8
MG DL_MG: Solver finished
MG Hartree energy from (\int phi*rho dr):              1425.150256
MG Hartree energy from (\int eps (grad phi)^2 dr):     1424.496228
MG Discrepancy due to finite box and discretization:     -0.654028 (  -0.04589%)
MG Correction to account for finite box:                  0.469202
MG Remaining discrepancy, due to discretization:         -0.184826 (  -0.01297%)
      ideal mu1:      -0.776855968062
             Q0:  -11550.211419867934
             G0:      -0.125387627805
   RMS gradient:       0.000054630492
MG BCs: +ve charge blocks (gridpoints):     30780 (   17171183).
MG BCs: -ve charge blocks (gridpoints):      8184 (    1089129).
MG BCs:     Elided blocks (gridpoints):    179254 (  187959513).
MG BCs: Computational effort saved:  99.9811%.
MG BCs: Charge after coarse-graining:           -9.0009850.
MG DL_MG: Calling solver with defect correction order = 8
MG DL_MG: Solver finished
MG Hartree energy from (\int phi*rho dr):              1424.256115
MG Hartree energy from (\int eps (grad phi)^2 dr):     1423.602163
MG Discrepancy due to finite box and discretization:     -0.653951 (  -0.04592%)
MG Correction to account for finite box:                  0.469182
MG Remaining discrepancy, due to discretization:         -0.184770 (  -0.01297%)
     Trial step:       0.733346520465
             Q1:  -11550.263009947725
 Quadratic coef:       0.040362500769
 Linear coef   :      -0.091952580560
           Qmin:  -11550.263790737617
Quadratic minimum step length (  0.835343496021) accepted
    Initial Ne1:    7192.00014924
      Final Ne1:    7192.00000000

=================== Penalty functional idempotency correction ==================
 RMS occupancy error at iteration   1:  0.002106 (step -0.3881 Ne1=   7192.0000)
 RMS occupancy error at iteration   2:  0.000107 (step -0.4946 Ne1=   7192.0000)
 RMS occupancy error at iteration   3:  0.000001 (step -0.5000 Ne1=   7192.0000)
            Final RMS occupancy error   :  0.000000 (Ne1=   7192.0000)
               Final occupancy bounds   : [  0.0000,  1.0000]
================================================================================

    9        -1.155021141987E+04     5.4630E-05     4.9412E-05    -5.8214E-02
MG BCs: +ve charge blocks (gridpoints):     30780 (   17171070).
MG BCs: -ve charge blocks (gridpoints):      8183 (    1089163).
MG BCs:     Elided blocks (gridpoints):    179254 (  187959592).
MG BCs: Computational effort saved:  99.9811%.
MG BCs: Charge after coarse-graining:           -9.0009850.
MG DL_MG: Calling solver with defect correction order = 8
MG DL_MG: Solver finished
MG Hartree energy from (\int phi*rho dr):              1424.137059
MG Hartree energy from (\int eps (grad phi)^2 dr):     1423.483106
MG Discrepancy due to finite box and discretization:     -0.653953 (  -0.04592%)
MG Correction to account for finite box:                  0.469189
MG Remaining discrepancy, due to discretization:         -0.184763 (  -0.01297%)
      ideal mu1:      -0.776165590676
   10        -1.155026532350E+04     4.9497E-05     4.4769E-05    -5.3904E-02
Finished density kernel iterations (  10)

Writing density kernel to file "host_35441.vacuum_dkn" ... done


>>> Density kernel optimised for the current NGWF basis:
     ~~~~~~~~~~~~~~~~~~~~~~~~~~~~~~~~~~~~~~~~~~~~~~~~~~~~~~~~~~~
     Total energy                =  -1.15502653234996E+04  Eh
     Estimated bandgap           =  -5.2400E-01  Eh
     RMS occupancy error         =   9.3987E-11
     [H,K] commutator            =   4.4769E-05
     Occupancy bounds            = [  0.000:  1.000]
     ~~~~~~~~~~~~~~~~~~~~~~~~~~~~~~~~~~~~~~~~~~~~~~~~~~~~~~~~~~~




################################################################################
########################### NGWF CG iteration  001 #############################
################################################################################
****** Reciprocal space K.E. preconditioning with k_zero =  3.5000 a0^-1 *******

>>> Checking for convergence of NGWFs:   NOT CONVERGED
  ========================================================================
         NGWF RMS gradient =  1.6162E-03 >  2.0000E-06  | above tolerance
  ========================================================================

>>> Improving NGWFs using line search:
============ Calculation of NGWF S^-1 using Hotelling algorithm ================ 
         Iteration  |  Frobenius norm and Maximum abs value    (of I-S*S_n^-1)   
               1       0.20216991E+00     0.54980584E-02
               2       0.95692474E-03     0.42403499E-04
               3       0.36791751E-07     0.26580264E-08
               4       0.12626503E-12     0.75495166E-14
================================================================================
MG BCs: +ve charge blocks (gridpoints):     30311 (   17112721).
MG BCs: -ve charge blocks (gridpoints):      8197 (    1088647).
MG BCs:     Elided blocks (gridpoints):    179725 (  188018457).
MG BCs: Computational effort saved:  99.9813%.
MG BCs: Charge after coarse-graining:           -9.0009858.
MG DL_MG: Calling solver with defect correction order = 8
MG DL_MG: Solver finished
MG Hartree energy from (\int phi*rho dr):              1391.782578
MG Hartree energy from (\int eps (grad phi)^2 dr):     1391.129458
MG Discrepancy due to finite box and discretization:     -0.653120 (  -0.04693%)
MG Correction to account for finite box:                  0.469074
MG Remaining discrepancy, due to discretization:         -0.184046 (  -0.01322%)
============ Calculation of NGWF S^-1 using Hotelling algorithm ================ 
         Iteration  |  Frobenius norm and Maximum abs value    (of I-S*S_n^-1)   
               1       0.18731697E+01     0.44440127E-01
               2       0.73433532E-01     0.25336023E-02
               3       0.15373460E-03     0.92834408E-05
               4       0.12520837E-08     0.15527357E-09
               5       0.10918421E-12     0.42188475E-14
================================================================================
------------------------------- NGWF line search -------------------------------
RMS gradient                =       0.00161618459130
Trial step length           =               0.122474
Gradient along search dir.  =       -282.62882533409
Functional at step 0        =  -11550.26532349956688
Functional at step 1        =  -11582.20854762091767
Functional predicted        =  -11662.38796981604355
Selected quadratic step     =               0.793427
--------------------------- NGWF line search finished --------------------------
                                               
Writing NGWFs to file "host_35441.vacuum_tightbox_ngwfs"....  done

>>> Optimising kernel for current NGWFs:
   Initial electron number for spin 1:    7227.53946175
     Final electron number for spin 1:    7192.00000000

=================== Penalty functional idempotency correction ==================
 RMS occupancy error at iteration   1:  0.004321 (step -0.4858 Ne1=   7192.0000)
 RMS occupancy error at iteration   2:  0.000072 (step -0.5003 Ne1=   7192.0000)
            Final RMS occupancy error   :  0.000000 (Ne1=   7192.0000)
               Final occupancy bounds   : [  0.0000,  1.0000]
================================================================================

................................................................................
<<<<<<<<<<<<<< LNV (Original version) density kernel optimisation >>>>>>>>>>>>>>
~~~~~~~~~~~~~~~~~~~~~~~~~~~~~~~~~~~~~~~~~~~~~~~~~~~~~~~~~~~~~~~~~~~~~~~~~~~~~~~~
   iter  |      energy (Eh)       | rms gradient |  commutator  |   dE (Eh)
MG BCs: +ve charge blocks (gridpoints):     24584 (   16809175).
MG BCs: -ve charge blocks (gridpoints):      8349 (    1070059).
MG BCs:     Elided blocks (gridpoints):    185461 (  188340591).
MG BCs: Computational effort saved:  99.9840%.
MG BCs: Charge after coarse-graining:           -9.0006825.
MG DL_MG: Calling solver with defect correction order = 8
MG DL_MG: Solver finished
MG Hartree energy from (\int phi*rho dr):              1237.272177
MG Hartree energy from (\int eps (grad phi)^2 dr):     1236.619015
MG Discrepancy due to finite box and discretization:     -0.653162 (  -0.05279%)
MG Correction to account for finite box:                  0.468541
MG Remaining discrepancy, due to discretization:         -0.184621 (  -0.01492%)
      ideal mu1:      -0.715679585986
             Q0:  -11661.433288317989
             G0:     -10.124998678279
   RMS gradient:       0.000489159156
MG BCs: +ve charge blocks (gridpoints):     24670 (   16834820).
MG BCs: -ve charge blocks (gridpoints):      8318 (    1062912).
MG BCs:     Elided blocks (gridpoints):    185375 (  188322093).
MG BCs: Computational effort saved:  99.9840%.
MG BCs: Charge after coarse-graining:           -9.0006757.
MG DL_MG: Calling solver with defect correction order = 8
MG DL_MG: Solver finished
MG Hartree energy from (\int phi*rho dr):              1259.739119
MG Hartree energy from (\int eps (grad phi)^2 dr):     1259.080589
MG Discrepancy due to finite box and discretization:     -0.658531 (  -0.05228%)
MG Correction to account for finite box:                  0.467386
MG Remaining discrepancy, due to discretization:         -0.191145 (  -0.01517%)
     Trial step:       0.782685279151
             Q1:  -11660.003971446655
 Quadratic coef:       9.354004288249
 Linear coef   :      -7.924687416916
           Qmin:  -11663.111731814501
Quadratic minimum step length (  0.331544437653) accepted
    Initial Ne1:    7191.99955136
      Final Ne1:    7192.00000000

=================== Penalty functional idempotency correction ==================
 RMS occupancy error at iteration   1:  0.000367 (step -0.4985 Ne1=   7192.0000)
 RMS occupancy error at iteration   2:  0.000000 (step -0.5000 Ne1=   7192.0000)
            Final RMS occupancy error   :  0.000000 (Ne1=   7192.0000)
               Final occupancy bounds   : [  0.0000,  1.0000]
================================================================================

    1        -1.166143328832E+04     4.8916E-04     4.4243E-04
MG BCs: +ve charge blocks (gridpoints):     24626 (   16820220).
MG BCs: -ve charge blocks (gridpoints):      8340 (    1066987).
MG BCs:     Elided blocks (gridpoints):    185419 (  188332618).
MG BCs: Computational effort saved:  99.9840%.
MG BCs: Charge after coarse-graining:           -9.0006795.
MG DL_MG: Calling solver with defect correction order = 8
MG DL_MG: Solver finished
MG Hartree energy from (\int phi*rho dr):              1245.672461
MG Hartree energy from (\int eps (grad phi)^2 dr):     1245.017148
MG Discrepancy due to finite box and discretization:     -0.655313 (  -0.05261%)
MG Correction to account for finite box:                  0.468020
MG Remaining discrepancy, due to discretization:         -0.187293 (  -0.01504%)
      ideal mu1:      -0.723576396803
             Q0:  -11663.079504132736
             G0:      -0.996409524790
   RMS gradient:       0.000154369653
MG BCs: +ve charge blocks (gridpoints):     24629 (   16821295).
MG BCs: -ve charge blocks (gridpoints):      8333 (    1067215).
MG BCs:     Elided blocks (gridpoints):    185416 (  188331315).
MG BCs: Computational effort saved:  99.9840%.
MG BCs: Charge after coarse-graining:           -9.0006792.
MG DL_MG: Calling solver with defect correction order = 8
MG DL_MG: Solver finished
MG Hartree energy from (\int phi*rho dr):              1247.442802
MG Hartree energy from (\int eps (grad phi)^2 dr):     1246.787384
MG Discrepancy due to finite box and discretization:     -0.655418 (  -0.05254%)
MG Correction to account for finite box:                  0.467813
MG Remaining discrepancy, due to discretization:         -0.187605 (  -0.01504%)
     Trial step:       0.509406469075
             Q1:  -11663.280880274484
 Quadratic coef:       0.306201316029
 Linear coef   :      -0.507577457776
           Qmin:  -11663.289851755490
Quadratic minimum step length (  0.422211184297) accepted
    Initial Ne1:    7191.99994309
      Final Ne1:    7192.00000000

=================== Penalty functional idempotency correction ==================
 RMS occupancy error at iteration   1:  0.000144 (step -0.4994 Ne1=   7192.0000)
            Final RMS occupancy error   :  0.000000 (Ne1=   7192.0000)
               Final occupancy bounds   : [ -0.0000,  1.0000]
================================================================================

    2        -1.166307950413E+04     1.5437E-04     1.3962E-04    -1.6462E+00
MG BCs: +ve charge blocks (gridpoints):     24627 (   16821130).
MG BCs: -ve charge blocks (gridpoints):      8332 (    1067150).
MG BCs:     Elided blocks (gridpoints):    185418 (  188331545).
MG BCs: Computational effort saved:  99.9840%.
MG BCs: Charge after coarse-graining:           -9.0006793.
MG DL_MG: Calling solver with defect correction order = 8
MG DL_MG: Solver finished
MG Hartree energy from (\int phi*rho dr):              1247.139148
MG Hartree energy from (\int eps (grad phi)^2 dr):     1246.483750
MG Discrepancy due to finite box and discretization:     -0.655398 (  -0.05255%)
MG Correction to account for finite box:                  0.467849
MG Remaining discrepancy, due to discretization:         -0.187549 (  -0.01504%)
      ideal mu1:      -0.725024994632
             Q0:  -11663.290332057397
             G0:      -0.164342710040
   RMS gradient:       0.000062253442
MG BCs: +ve charge blocks (gridpoints):     24626 (   16820280).
MG BCs: -ve charge blocks (gridpoints):      8332 (    1067589).
MG BCs:     Elided blocks (gridpoints):    185419 (  188331956).
MG BCs: Computational effort saved:  99.9840%.
MG BCs: Charge after coarse-graining:           -9.0006794.
MG DL_MG: Calling solver with defect correction order = 8
MG DL_MG: Solver finished
MG Hartree energy from (\int phi*rho dr):              1246.584655
MG Hartree energy from (\int eps (grad phi)^2 dr):     1245.929482
MG Discrepancy due to finite box and discretization:     -0.655173 (  -0.05256%)
MG Correction to account for finite box:                  0.467653
MG Remaining discrepancy, due to discretization:         -0.187520 (  -0.01504%)
     Trial step:       0.463764065659
             Q1:  -11663.342704959330
 Quadratic coef:       0.023843341436
 Linear coef   :      -0.076216243370
           Qmin:  -11663.351239163989
Quadratic minimum step length (  0.741220667184) accepted
    Initial Ne1:    7192.00101707
      Final Ne1:    7192.00000000

=================== Penalty functional idempotency correction ==================
 RMS occupancy error at iteration   1:  0.000123 (step -0.4964 Ne1=   7192.0000)
 RMS occupancy error at iteration   2:  0.000001 (step -0.5000 Ne1=   7192.0000)
            Final RMS occupancy error   :  0.000000 (Ne1=   7192.0000)
               Final occupancy bounds   : [  0.0000,  1.0000]
================================================================================

    3        -1.166329033206E+04     6.2253E-05     5.6307E-05    -2.1083E-01
MG BCs: +ve charge blocks (gridpoints):     24626 (   16819828).
MG BCs: -ve charge blocks (gridpoints):      8335 (    1067870).
MG BCs:     Elided blocks (gridpoints):    185419 (  188332127).
MG BCs: Computational effort saved:  99.9840%.
MG BCs: Charge after coarse-graining:           -9.0006793.
MG DL_MG: Calling solver with defect correction order = 8
MG DL_MG: Solver finished
MG Hartree energy from (\int phi*rho dr):              1246.252481
MG Hartree energy from (\int eps (grad phi)^2 dr):     1245.597446
MG Discrepancy due to finite box and discretization:     -0.655036 (  -0.05256%)
MG Correction to account for finite box:                  0.467533
MG Remaining discrepancy, due to discretization:         -0.187502 (  -0.01505%)
      ideal mu1:      -0.724187475223
             Q0:  -11663.351322130533
             G0:      -0.059246817679
   RMS gradient:       0.000037379367
MG BCs: +ve charge blocks (gridpoints):     24626 (   16819854).
MG BCs: -ve charge blocks (gridpoints):      8336 (    1067876).
MG BCs:     Elided blocks (gridpoints):    185419 (  188332095).
MG BCs: Computational effort saved:  99.9840%.
MG BCs: Charge after coarse-graining:           -9.0006794.
MG DL_MG: Calling solver with defect correction order = 8
MG DL_MG: Solver finished
MG Hartree energy from (\int phi*rho dr):              1246.342113
MG Hartree energy from (\int eps (grad phi)^2 dr):     1245.687399
MG Discrepancy due to finite box and discretization:     -0.654714 (  -0.05253%)
MG Correction to account for finite box:                  0.467345
MG Remaining discrepancy, due to discretization:         -0.187369 (  -0.01503%)
     Trial step:       0.586303257848
             Q1:  -11663.372006883728
 Quadratic coef:       0.014051849026
 Linear coef   :      -0.034736602222
           Qmin:  -11663.372789617333
Quadratic minimum step length (  0.724679827248) accepted
    Initial Ne1:    7192.00035845
      Final Ne1:    7192.00000000

=================== Penalty functional idempotency correction ==================
 RMS occupancy error at iteration   1:  0.000169 (step -0.4909 Ne1=   7192.0000)
 RMS occupancy error at iteration   2:  0.000001 (step -0.5000 Ne1=   7192.0000)
            Final RMS occupancy error   :  0.000000 (Ne1=   7192.0000)
               Final occupancy bounds   : [  0.0000,  1.0000]
================================================================================

    4        -1.166335132213E+04     3.7379E-05     3.3809E-05    -6.0990E-02
MG BCs: +ve charge blocks (gridpoints):     24626 (   16819909).
MG BCs: -ve charge blocks (gridpoints):      8336 (    1067867).
MG BCs:     Elided blocks (gridpoints):    185419 (  188332049).
MG BCs: Computational effort saved:  99.9840%.
MG BCs: Charge after coarse-graining:           -9.0006793.
MG DL_MG: Calling solver with defect correction order = 8
MG DL_MG: Solver finished
MG Hartree energy from (\int phi*rho dr):              1246.363930
MG Hartree energy from (\int eps (grad phi)^2 dr):     1245.709293
MG Discrepancy due to finite box and discretization:     -0.654636 (  -0.05252%)
MG Correction to account for finite box:                  0.467299
MG Remaining discrepancy, due to discretization:         -0.187337 (  -0.01503%)
      ideal mu1:      -0.724511992178
             Q0:  -11663.372770712595
             G0:      -0.051401798308
   RMS gradient:       0.000034872787
MG BCs: +ve charge blocks (gridpoints):     24623 (   16821054).
MG BCs: -ve charge blocks (gridpoints):      8335 (    1067505).
MG BCs:     Elided blocks (gridpoints):    185422 (  188331266).
MG BCs: Computational effort saved:  99.9840%.
MG BCs: Charge after coarse-graining:           -9.0006791.
MG DL_MG: Calling solver with defect correction order = 8
MG DL_MG: Solver finished
MG Hartree energy from (\int phi*rho dr):              1247.107478
MG Hartree energy from (\int eps (grad phi)^2 dr):     1246.453290
MG Discrepancy due to finite box and discretization:     -0.654187 (  -0.05246%)
MG Correction to account for finite box:                  0.466925
MG Remaining discrepancy, due to discretization:         -0.187262 (  -0.01502%)
     Trial step:       0.651829842530
             Q1:  -11663.393640214810
 Quadratic coef:       0.012635723882
 Linear coef   :      -0.033505226097
           Qmin:  -11663.394981552794
Quadratic minimum step length (  0.864204791676) accepted
    Initial Ne1:    7192.00037195
      Final Ne1:    7192.00000000

=================== Penalty functional idempotency correction ==================
 RMS occupancy error at iteration   1:  0.000605 (step -0.4664 Ne1=   7192.0000)
 RMS occupancy error at iteration   2:  0.000006 (step -0.5000 Ne1=   7192.0000)
            Final RMS occupancy error   :  0.000000 (Ne1=   7192.0000)
               Final occupancy bounds   : [  0.0000,  1.0000]
================================================================================

    5        -1.166337277071E+04     3.4873E-05     3.1542E-05    -2.1449E-02
MG BCs: +ve charge blocks (gridpoints):     24624 (   16821407).
MG BCs: -ve charge blocks (gridpoints):      8335 (    1067382).
MG BCs:     Elided blocks (gridpoints):    185421 (  188331036).
MG BCs: Computational effort saved:  99.9840%.
MG BCs: Charge after coarse-graining:           -9.0006790.
MG DL_MG: Calling solver with defect correction order = 8
MG DL_MG: Solver finished
MG Hartree energy from (\int phi*rho dr):              1247.351110
MG Hartree energy from (\int eps (grad phi)^2 dr):     1246.697068
MG Discrepancy due to finite box and discretization:     -0.654042 (  -0.05243%)
MG Correction to account for finite box:                  0.466804
MG Remaining discrepancy, due to discretization:         -0.187238 (  -0.01501%)
      ideal mu1:      -0.725579484124
             Q0:  -11663.394803241361
             G0:      -0.049527972534
   RMS gradient:       0.000034254526
MG BCs: +ve charge blocks (gridpoints):     24626 (   16821115).
MG BCs: -ve charge blocks (gridpoints):      8334 (    1067573).
MG BCs:     Elided blocks (gridpoints):    185419 (  188331137).
MG BCs: Computational effort saved:  99.9840%.
MG BCs: Charge after coarse-graining:           -9.0006790.
MG DL_MG: Calling solver with defect correction order = 8
MG DL_MG: Solver finished
MG Hartree energy from (\int phi*rho dr):              1247.015811
MG Hartree energy from (\int eps (grad phi)^2 dr):     1246.362298
MG Discrepancy due to finite box and discretization:     -0.653513 (  -0.05241%)
MG Correction to account for finite box:                  0.466264
MG Remaining discrepancy, due to discretization:         -0.187249 (  -0.01502%)
     Trial step:       0.750542785770
             Q1:  -11663.417723465594
 Quadratic coef:       0.014252638246
 Linear coef   :      -0.037172862479
           Qmin:  -11663.419041239988
Quadratic minimum step length (  0.978759976879) accepted
    Initial Ne1:    7192.00040721
      Final Ne1:    7192.00000000

=================== Penalty functional idempotency correction ==================
 RMS occupancy error at iteration   1:  0.001701 (step -0.4150 Ne1=   7192.0000)
 RMS occupancy error at iteration   2:  0.000038 (step -0.4995 Ne1=   7192.0000)
            Final RMS occupancy error   :  0.000000 (Ne1=   7192.0000)
               Final occupancy bounds   : [ -0.0000,  1.0000]
================================================================================

    6        -1.166339480324E+04     3.4255E-05     3.0982E-05    -2.2033E-02
MG BCs: +ve charge blocks (gridpoints):     24627 (   16821024).
MG BCs: -ve charge blocks (gridpoints):      8335 (    1067647).
MG BCs:     Elided blocks (gridpoints):    185418 (  188331154).
MG BCs: Computational effort saved:  99.9840%.
MG BCs: Charge after coarse-graining:           -9.0006790.
MG DL_MG: Calling solver with defect correction order = 8
MG DL_MG: Solver finished
MG Hartree energy from (\int phi*rho dr):              1246.916376
MG Hartree energy from (\int eps (grad phi)^2 dr):     1246.262997
MG Discrepancy due to finite box and discretization:     -0.653379 (  -0.05240%)
MG Correction to account for finite box:                  0.466127
MG Remaining discrepancy, due to discretization:         -0.187252 (  -0.01502%)
      ideal mu1:      -0.725384679350
             Q0:  -11663.419186504907
             G0:      -0.045939169676
   RMS gradient:       0.000032949154
MG BCs: +ve charge blocks (gridpoints):     24627 (   16820056).
MG BCs: -ve charge blocks (gridpoints):      8338 (    1067889).
MG BCs:     Elided blocks (gridpoints):    185418 (  188331880).
MG BCs: Computational effort saved:  99.9840%.
MG BCs: Charge after coarse-graining:           -9.0006793.
MG DL_MG: Calling solver with defect correction order = 8
MG DL_MG: Solver finished
MG Hartree energy from (\int phi*rho dr):              1246.437696
MG Hartree energy from (\int eps (grad phi)^2 dr):     1245.784216
MG Discrepancy due to finite box and discretization:     -0.653480 (  -0.05243%)
MG Correction to account for finite box:                  0.466170
MG Remaining discrepancy, due to discretization:         -0.187310 (  -0.01503%)
     Trial step:       0.857088816662
             Q1:  -11663.430102961254
 Quadratic coef:       0.028457492228
 Linear coef   :      -0.039373948576
           Qmin:  -11663.432806009869
Quadratic minimum step length (  0.592936487905) accepted
    Initial Ne1:    7192.00017561
      Final Ne1:    7192.00000000

=================== Penalty functional idempotency correction ==================
 RMS occupancy error at iteration   1:  0.000018 (step -0.4990 Ne1=   7192.0000)
            Final RMS occupancy error   :  0.000000 (Ne1=   7192.0000)
               Final occupancy bounds   : [ -0.0000,  1.0000]
================================================================================

    7        -1.166341918650E+04     3.2949E-05     2.9802E-05    -2.4383E-02
MG BCs: +ve charge blocks (gridpoints):     24626 (   16820333).
MG BCs: -ve charge blocks (gridpoints):      8337 (    1067813).
MG BCs:     Elided blocks (gridpoints):    185419 (  188331679).
MG BCs: Computational effort saved:  99.9840%.
MG BCs: Charge after coarse-graining:           -9.0006792.
MG DL_MG: Calling solver with defect correction order = 8
MG DL_MG: Solver finished
MG Hartree energy from (\int phi*rho dr):              1246.583697
MG Hartree energy from (\int eps (grad phi)^2 dr):     1245.930247
MG Discrepancy due to finite box and discretization:     -0.653450 (  -0.05242%)
MG Correction to account for finite box:                  0.466158
MG Remaining discrepancy, due to discretization:         -0.187292 (  -0.01502%)
      ideal mu1:      -0.725079275738
             Q0:  -11663.432807183708
             G0:      -0.033488678200
   RMS gradient:       0.000028128382
MG BCs: +ve charge blocks (gridpoints):     24626 (   16820280).
MG BCs: -ve charge blocks (gridpoints):      8334 (    1067765).
MG BCs:     Elided blocks (gridpoints):    185419 (  188331780).
MG BCs: Computational effort saved:  99.9840%.
MG BCs: Charge after coarse-graining:           -9.0006793.
MG DL_MG: Calling solver with defect correction order = 8
MG DL_MG: Solver finished
MG Hartree energy from (\int phi*rho dr):              1246.419922
MG Hartree energy from (\int eps (grad phi)^2 dr):     1245.766494
MG Discrepancy due to finite box and discretization:     -0.653428 (  -0.05242%)
MG Correction to account for finite box:                  0.466069
MG Remaining discrepancy, due to discretization:         -0.187359 (  -0.01503%)
     Trial step:       0.712880938709
             Q1:  -11663.447366596083
[...]
MG Hartree energy from (\int phi*rho dr):              1202.832335
MG Hartree energy from (\int eps (grad phi)^2 dr):     1202.639510
MG Discrepancy due to finite box and discretization:     -0.192825 (  -0.01603%)
MG Correction to account for finite box:                  0.006361
MG Remaining discrepancy, due to discretization:         -0.186464 (  -0.01550%)
             Q2:  -11697.633362308610
  Cubic LS coeff:       1.111166183129
Predicted energy:  -11697.633362308645
Cubic minimum step length accepted
    Initial Ne1:    7192.00000000
      Final Ne1:    7192.00000000

=================== Penalty functional idempotency correction ==================
 RMS occupancy error at iteration   1:  0.000000 (step -0.5000 Ne1=   7192.0000)
            Final RMS occupancy error   :  0.000000 (Ne1=   7192.0000)
               Final occupancy bounds   : [  0.0000,  1.0000]
================================================================================

    7        -1.169763336230E+04     1.0316E-08     9.3307E-09    -3.3760E-09

Reusing previously generated solute cavity.
MG BCs: +ve charge blocks (gridpoints):     28890 (   19006621).
MG BCs: -ve charge blocks (gridpoints):      8319 (    1037213).
MG BCs:     Elided blocks (gridpoints):    181155 (  186175991).
MG BCs: Computational effort saved:  99.9820%.
MG BCs: Charge after coarse-graining:           -9.0009608.
MG DL_MG: Calling solver with defect correction order = 8
MG DL_MG: Solver finished
MG Hartree energy from (\int phi*rho dr):              1202.832335
MG Hartree energy from (\int eps (grad phi)^2 dr):     1202.639510
MG Discrepancy due to finite box and discretization:     -0.192825 (  -0.01603%)
MG Correction to account for finite box:                  0.006361
MG Remaining discrepancy, due to discretization:         -0.186464 (  -0.01550%)
      ideal mu1:      -0.485258469335
             Q0:  -11697.633362308610
             G0:      -0.000000006383
   RMS gradient:       0.000000013185

Reusing previously generated solute cavity.
MG BCs: +ve charge blocks (gridpoints):     28890 (   19006621).
MG BCs: -ve charge blocks (gridpoints):      8319 (    1037213).
MG BCs:     Elided blocks (gridpoints):    181155 (  186175991).
MG BCs: Computational effort saved:  99.9820%.
MG BCs: Charge after coarse-graining:           -9.0009608.
MG DL_MG: Calling solver with defect correction order = 8
MG DL_MG: Solver finished
MG Hartree energy from (\int phi*rho dr):              1202.832291
MG Hartree energy from (\int eps (grad phi)^2 dr):     1202.639467
MG Discrepancy due to finite box and discretization:     -0.192825 (  -0.01603%)
MG Correction to account for finite box:                  0.006361
MG Remaining discrepancy, due to discretization:         -0.186464 (  -0.01550%)
     Trial step:       0.761561041108
             Q1:  -11697.633362311404
 Quadratic coef:       0.000000002066
 Linear coef   :      -0.000000004861
           Qmin:  -11697.633362311470
Quadratic minimum step length (  0.895786362533) accepted
    Initial Ne1:    7192.00000000
      Final Ne1:    7192.00000000

=================== Penalty functional idempotency correction ==================
 RMS occupancy error at iteration   1:  0.000000 (step -0.5000 Ne1=   7192.0000)
            Final RMS occupancy error   :  0.000000 (Ne1=   7192.0000)
               Final occupancy bounds   : [ -0.0000,  1.0000]
================================================================================

    8        -1.169763336231E+04     1.3185E-08     1.1925E-08    -4.6566E-09

Reusing previously generated solute cavity.
MG BCs: +ve charge blocks (gridpoints):     28890 (   19006620).
MG BCs: -ve charge blocks (gridpoints):      8319 (    1037213).
MG BCs:     Elided blocks (gridpoints):    181155 (  186175992).
MG BCs: Computational effort saved:  99.9820%.
MG BCs: Charge after coarse-graining:           -9.0009608.
MG DL_MG: Calling solver with defect correction order = 8
MG DL_MG: Solver finished
MG Hartree energy from (\int phi*rho dr):              1202.832284
MG Hartree energy from (\int eps (grad phi)^2 dr):     1202.639459
MG Discrepancy due to finite box and discretization:     -0.192825 (  -0.01603%)
MG Correction to account for finite box:                  0.006361
MG Remaining discrepancy, due to discretization:         -0.186464 (  -0.01550%)
      ideal mu1:      -0.485258416949
             Q0:  -11697.633362311521
             G0:      -0.000000004269
   RMS gradient:       0.000000009667

Reusing previously generated solute cavity.
MG BCs: +ve charge blocks (gridpoints):     28890 (   19006621).
MG BCs: -ve charge blocks (gridpoints):      8319 (    1037214).
MG BCs:     Elided blocks (gridpoints):    181155 (  186175990).
MG BCs: Computational effort saved:  99.9820%.
MG BCs: Charge after coarse-graining:           -9.0009608.
MG DL_MG: Calling solver with defect correction order = 8
MG DL_MG: Solver finished
MG Hartree energy from (\int phi*rho dr):              1202.832291
MG Hartree energy from (\int eps (grad phi)^2 dr):     1202.639467
MG Discrepancy due to finite box and discretization:     -0.192824 (  -0.01603%)
MG Correction to account for finite box:                  0.006361
MG Remaining discrepancy, due to discretization:         -0.186464 (  -0.01550%)
     Trial step:       0.825951569319
             Q1:  -11697.633362311986
 Quadratic coef:       0.000000003061
 Linear coef   :      -0.000000003526
           Qmin:  -11697.633362312536
Quadratic minimum step length (  0.475683811146) accepted
    Initial Ne1:    7192.00000000
      Final Ne1:    7192.00000000

=================== Penalty functional idempotency correction ==================
 RMS occupancy error at iteration   1:  0.000000 (step -0.5000 Ne1=   7192.0000)
            Final RMS occupancy error   :  0.000000 (Ne1=   7192.0000)
               Final occupancy bounds   : [ -0.0000,  1.0000]
================================================================================

    9        -1.169763336231E+04     9.6669E-09     8.7435E-09    -2.9104E-09

Reusing previously generated solute cavity.
MG BCs: +ve charge blocks (gridpoints):     28890 (   19006621).
MG BCs: -ve charge blocks (gridpoints):      8319 (    1037213).
MG BCs:     Elided blocks (gridpoints):    181155 (  186175991).
MG BCs: Computational effort saved:  99.9820%.
MG BCs: Charge after coarse-graining:           -9.0009608.
MG DL_MG: Calling solver with defect correction order = 8
MG DL_MG: Solver finished
MG Hartree energy from (\int phi*rho dr):              1202.832288
MG Hartree energy from (\int eps (grad phi)^2 dr):     1202.639463
MG Discrepancy due to finite box and discretization:     -0.192825 (  -0.01603%)
MG Correction to account for finite box:                  0.006361
MG Remaining discrepancy, due to discretization:         -0.186464 (  -0.01550%)
      ideal mu1:      -0.485258432366
   10        -1.169763336231E+04     5.5501E-09     5.0199E-09    -6.9849E-10
Finished density kernel iterations (  10)

Writing density kernel to file "host_35441.dkn" ... done


>>> Density kernel optimised for the current NGWF basis:
     ~~~~~~~~~~~~~~~~~~~~~~~~~~~~~~~~~~~~~~~~~~~~~~~~~~~~~~~~~~~
     Total energy                =  -1.16976333623122E+04  Eh
     Estimated bandgap           =   8.0087E-02  Eh
     RMS occupancy error         =   3.9791E-16
     [H,K] commutator            =   5.0199E-09
     Occupancy bounds            = [  0.000:  1.000]
     ~~~~~~~~~~~~~~~~~~~~~~~~~~~~~~~~~~~~~~~~~~~~~~~~~~~~~~~~~~~




################################################################################
########################### NGWF CG iteration  004 #############################
################################################################################
****** Reciprocal space K.E. preconditioning with k_zero =  3.5000 a0^-1 *******

>>> Checking for convergence of NGWFs: 
           ........................................................
           |         *** NGWF optimisation converged ***          |
           | RMS NGWF gradient =    0.00000184357272              |
           | Criteria satisfied:                                  |
           | -> RMS NGWF gradient lower than set threshold.       |
           ========================================================

Reusing previously generated solute cavity.
MG BCs: +ve charge blocks (gridpoints):     28890 (   19006621).
MG BCs: -ve charge blocks (gridpoints):      8319 (    1037213).
MG BCs:     Elided blocks (gridpoints):    181155 (  186175991).
MG BCs: Computational effort saved:  99.9820%.
MG BCs: Charge after coarse-graining:           -9.0009608.
MG DL_MG: Calling solver with defect correction order = 8
MG DL_MG: Solver finished
MG Hartree energy from (\int phi*rho dr):              1202.832288
MG Hartree energy from (\int eps (grad phi)^2 dr):     1202.639463
MG Discrepancy due to finite box and discretization:     -0.192825 (  -0.01603%)
MG Correction to account for finite box:                  0.006361
MG Remaining discrepancy, due to discretization:         -0.186464 (  -0.01550%)

================================================================================
           ---------------- ENERGY COMPONENTS (Eh) ----------------
           | Kinetic                    :     8558.35732082483264 |
           | Pseudo. (local,OBC,corr'd) :    -5072.39102707629809 |
           | Pseudopotential (non-local):     1404.19598261853321 |
           | Hartree (molecular)        :     1202.83228797598463 |
           | Exchange-correlation       :    -3382.23179704670156 |
           | Ion-ion (open BC)          :   824146.07978703139815 |
           | Smeared ion non-self corr. :  -824097.95398725126870 |
           | Smeared ion self corr.     :   -14457.16956389741972 |
           | Solvent cavitation energy  :        2.30413415878688 |
           | Solute-solvent dis-rep en. :       -1.65649965010586 |
           | Total                      :   -11697.63336231232461 |
           --------------------------------------------------------
           ------ LOCAL ENERGY COMPONENTS FROM MATRIX TRACES ------
           | Pseudopotential (local)    :    -5072.39102707629809 |
           | Hartree                    :    -2001.78449542112321 |
           --------------------------------------------------------
           Integrated density           :     7191.99999999888041
           Integrated density tr(KS)    :     7191.99999999999909
================================================================================


                        <<<<< CALCULATION SUMMARY >>>>>                         
|ITER|    RMS GRADIENT   |     TOTAL ENERGY    |   step   |     Epredicted              
   0     0.00004150558133 -11697.56565469258931   0.627928 -11697.62417780397118        
   1     0.00000921578898 -11697.63295823137742   0.072572 -11697.63329168616656        
   2     0.00000409763188 -11697.63334826927166   0.013581 -11697.63336060647271        
   3     0.00000184357272 -11697.63336231221911  <-- CG                                 

=================== Finished the calculation in solvent ========================
= Adjusting the following parameters: 
= read_denskern: F
= read_tightbox_ngwfs: F
= maxit_pen: 0 (restored to user-specified value)
= restart read filename prefix: ""
= restart write filename prefix: ""
================================================================================

================================================================================
IS: Calculation in solvent completed (NGWFs converged).      

Individual components of total energy in solvent:     hartree           kcal/mol
- Usual non-electrostatic DFT terms:    -12901.11328479688564    -8095570.636537
- Electrostatic fixed charge energy:      1202.83228797598463      754788.640039
- Apolar cavitation energy:                  2.30413415878688        1445.865983
- Apolar dispersion-repulsion energy:       -1.65649965010586       -1039.469202
 -------------------------------------------------------------------------------
- Total energy in solvent:              -11697.63336231221911    -7340375.599717

Components of total energy in solvent:                hartree           kcal/mol
- Usual non-electrostatic DFT terms:    -12901.11328479688564    -8095570.636537
- Electrostatic energy:                   1202.83228797598463      754788.640039
- Apolar energy terms:                       0.64763450868102         406.396781
 -------------------------------------------------------------------------------
- Total energy in solvent:              -11697.63336231221911    -7340375.599717

Calculation of free energy of solvation:              hartree           kcal/mol
- Total energy in solvent:         (+)  -11697.63336231221911    -7340375.599717
- Total energy in vacuum:          (-)  -11693.83891978696920    -7337994.551136
 -------------------------------------------------------------------------------
- Total free energy of solvation:           -3.79444252524991       -2381.048582

Components of polar term in f.e. of solvation:        hartree           kcal/mol
- Electrostatic:                            -4.43636427147976       -2783.860550
- Change in nonelectrostatic DFT terms:     -0.00571276245137          -3.584812
 -------------------------------------------------------------------------------
- Polar term in f.e. of solvation:          -4.44207703393113       -2787.445363

Components of free energy of solvation:               hartree           kcal/mol
- Polar term in f.e. of solvation: (+)      -4.44207703393113       -2787.445363
- Apolar (cavitation, dis., rep.): (+)       0.64763450868102         406.396781
 -------------------------------------------------------------------------------
- Total free energy of solvation:           -3.79444252525010       -2381.048582
================================================================================


------------------------------ TIMING INFORMATION ------------------------------
AVERAGE TIME:   35264.358s on     60 node(s)                                    
TOTAL TIME:     35264.358s on     60 node(s)                                    
================= AVERAGE TIMINGS FROM ALL NODES (CUMULATIVE) ==================
|| TAG                                    #calls    cpu time   %total  Gflops ||
|| work_imbalance                       :     1        0.00s   0.000%  ------ ||
|| sparse_set_to_garbage                :   182        0.03s   0.000%  ------ ||
|| parallel_prepare_fd_halos_request    :  1953        0.03s   0.000%  ------ ||
|| ngwfs_initialise_from_radial         :     1        0.11s   0.000%  ------ ||
|| parallel_prepare_fd_halos_alloc      :  1953        0.12s   0.000%  ------ ||
|| basis_extract_function_from_box      :  3577        0.16s   0.000%  ------ ||
|| parallel_prepare_fd_halos_satisfy    :  1953        0.65s   0.002%  ------ ||
|| pseudopotentials_nonlocal_mat        :    31        2.14s   0.006%  ------ ||
|| openbc_locps_radial                  :     1        3.13s   0.009%  ------ ||
|| restart_ngwfs_tightbox_input         :     1        7.18s   0.020%  ------ ||
|| density_init_guess_real              :     1        7.85s   0.022%  ------ ||
|| restart_kernel_read                  :     1        8.68s   0.025%  ------ ||
|| parallel_prepare_fd_halos_comms_imbal:  1953        9.48s   0.027%  ------ ||
|| parallel_prepare_fd_halos_clear      :  1953       19.07s   0.054%  ------ ||
|| sparse_init                          :     2       22.20s   0.063%  ------ ||
|| parallel_prepare_fd_halos_comms_wait :  1953       24.08s   0.068%  ------ ||
|| projectors_func_ovlp_box             :    31       26.96s   0.076%  ------ ||
|| function_ops_brappd_ketppd           :    31       29.41s   0.083%  ------ ||
|| projectors_init_fftbox_recip         :   143       32.67s   0.093%  ------ ||
|| palser_mano_kernel_optimise          :     1       32.75s   0.093%  ------ ||
|| basis_copy_function_to_box           : 58328       42.57s   0.121%  ------ ||
|| ngwf_gradient_coeffs                 :    16       50.69s   0.144%  ------ ||
|| fourier_apply_box_pair               :  5156       53.35s   0.151% 559.497 ||
|| parallel_prepare_fd_halos            :  1953       53.46s   0.152%  ------ ||
|| pseudo_make_structure_factor         :     2       55.65s   0.158%  ------ ||
|| sparse_embed_hotelling_invert_embed  :    31       79.21s   0.225%  ------ ||
|| finite_difference_derivative         :  1953      125.44s   0.356%  ------ ||
|| restart_kernel_write                 :    17      131.58s   0.373%  ------ ||
|| integrals_kinetic                    :    31      146.62s   0.416%  ------ ||
|| projectors_gradient_batch            :   112      168.69s   0.478%  ------ ||
|| basis_dot_function_with_box          : 8.788M     176.72s   0.501%  ------ ||
|| sparse_trace                         :  5568      193.55s   0.549%  ------ ||
|| openbc_locps_on_grid                 :     2      287.14s   0.814%  ------ ||
|| kernel_purify                        :   496      304.03s   0.862%  ------ ||
|| basis_add_function_to_box            : 18.31M     416.39s   1.181%  ------ ||
|| lnv_gradient_norm                    :   160      452.19s   1.282%  ------ ||
|| hamiltonian_energy_components        :     4      529.52s   1.502%  ------ ||
|| kernel_fix                           :   160      577.55s   1.638%  ------ ||
|| integrals_locpot_mat_els_batch       :  1183      728.60s   2.066%  ------ ||
|| ngwf_gradient_build_batch            :   112      740.61s   2.100%  ------ ||
|| ngwf_gradient_batch                  :   112     1015.50s   2.880%  ------ ||
|| density_batch_row_sums               :  2268     1070.83s   3.037%  ------ ||
|| restart_ngwfs_tightbox_output        :    14     1099.86s   3.119%  ------ ||
|| ngwf_gradient_lnv                    :    16     1149.38s   3.259%  ------ ||
|| cell_grid_deposit_box_real           : 37312     1305.13s   3.701%  ------ ||
|| fourier_apply_cell_forward           :  9101     1572.59s   4.459%  84.797 ||
|| cell_grid_extract_box_real           : 42109     1645.55s   4.666%  ------ ||
|| fourier_apply_cell_backward          :  9753     1711.95s   4.855%  83.474 ||
|| sparse_product                       :  6812     1916.19s   5.434%  ------ ||
|| density_fftbox_deposit_to_cell       : 35316     1931.57s   5.477%  ------ ||
|| potential_apply_to_ngwf_batch        :  1183     3524.91s   9.996%  ------ ||
|| density_fftbox_interpolate_multiply  : 35316     3715.17s  10.535%  ------ ||
|| integrals_locpot_dbl_grid            :   169     4269.97s  12.108%  ------ ||
|| xc_energy_potential                  :   325     4291.49s  12.169%  ------ ||
|| fourier_apply_box                    : 121.6k    4574.26s  12.971% 745.764 ||
|| multigrid_prepare_bound_cond         :   325     4803.64s  13.622%  ------ ||
|| density_batch_interp_deposit         :  2268     6492.19s  18.410%  ------ ||
|| nlxc_vdw_energy                      :   650     6982.28s  19.800%  ------ ||
|| dl_mg_solver_calls                   :   325     7725.30s  21.907%  ------ ||
|| density_on_dbl_grid                  :   324     7880.07s  22.346%  ------ ||
|| multigrid_calculate_hartree          :   325    12704.59s  36.027%  ------ ||
|| hamiltonian_lhxc_calculate           :   320    24809.27s  70.352%  ------ ||
|| lnv_denskernel_optimise_cg           :    16    29879.66s  84.730%  ------ ||
|| ngwf_cg_optimise                     :     2    34213.66s  97.020%  ------ ||
|| total_time                           :     1    35264.36s 100.000%  ------ ||
================================================================================
Overhead of generating timer report: 
- 0 ms averaging over threads,
- 24 ms ensuring consistency across MPI ranks,
- 1 ms printing in order.

Job completed: 26-02-2020 18:32 (-0000)

Application 39180693 resources: utime ~7013792s, stime ~245581s, Rss ~3771528, inblocks ~365409642, outblocks ~65870502
