 +---------------------------------------------------------------+
 |                                                               |
 |        ####### #     # ####### ####### ####### ######         |
 |        #     # ##    # #          #    #       #     #        |
 |        #     # # #   # #          #    #       #     #        |
 |        #     # #  #  # #####      #    #####   ######         |
 |        #     # #   # # #          #    #       #              |
 |        #     # #    ## #          #    #       #              |
 |        ####### #     # #######    #    ####### #              |
 |                                                               |
 |        Linear-Scaling Ab Initio Total Energy Program          |
 |                                                               |
 |          Release for academic collaborators of ODG            |
 |                                             Version 5.3.2.6.  |
 |                                                               |
 +---------------------------------------------------------------+
 |                                                               |
 |  Authors:                                                     |
 |  Jacek Dziedzic, Peter D. Haynes, Nicholas D. M. Hine,        |
 |  Arash. A. Mostofi, Mike C. Payne and Chris-Kriton Skylaris   |
 |                                                               |
 |  Contributors:                                                |
 |  J. Aarons, L. Andrinopoulos, P. W. Avraam, R. A. Bell,       |
 |  A. Bhandari, G. A. Bramley, R. J. Charlton, S. J. Clark,     |
 |  R. J. Clements, G. C. Constantinescu, F. Corsetti,           |
 |  N. Corsini, O. Dieguez, S. M. M. Dubois, K. K. B. Duff,      |
 |  J. M. Escartin, A. Greco, H. Helal, Q. O. Hill, L. P. Lee,   |
 |  J.-H. Li, E. B. Linscott, G. Moynihan, D. D. O`Regan,        |
 |  O. K. Okan, M. J. S. Phipps, C. J. Pickard,                  |
 |  J. C. A. Prentice, M. I. J. Probert, L. E. Ratcliff,         |
 |  M. Robinson, A. Ruiz Serrano, J. S. Spencer, E. W. Tait,     |
 |  G. Teobaldi, D. Turban, V. Vitale, K. A. Wilkinson,          |
 |  C. Weber, J. C. Womack, N. Yeung and T. J. Zuehlsdorff       |
 |                                                               |
 |                                   Copyright (c) 2004-2019     |
 |                                                               |
 |  Please cite:                                                 |
 |  "Introducing ONETEP: Linear-scaling density functional       |
 |   simulations on parallel computers".                         |
 |   C.-K. Skylaris, P. D. Haynes, A. A. Mostofi, M. C. Payne.   |
 |   J. Chem. Phys. 122 084119 (2005).                           |
 |                                                               |
 |          in all publications arising from your use of ONETEP. |
 |                                                               |
 +---------------------------------------------------------------+
 |                                                               |
 |   ONETEP is based on developments described in the following  |
 |   publications:                                               |
 |                                                               |
 |  "Nonorthogonal generalized Wannier function pseudopotential  |
 |   plane-wave method".                                         |
 |   C.-K. Skylaris, A. A. Mostofi, P. D. Haynes, O. Dieguez,    |
 |   M. C. Payne.                                                |
 |   Phys. Rev. B 66 035119 (2002).                              |
 |                                                               |
 |  "Preconditioned iterative minimization for linear-scaling    |
 |   electronic structure calculations".                         |
 |   A. A. Mostofi, P. D. Haynes, C.-K. Skylaris, M. C. Payne.   |
 |   J. Chem. Phys. 119(17), pp.8842-8848 (2003).                |
 |                                                               |
 |  "Total-energy calculations on a real space grid with         |
 |   localized functions and a plane-wave basis".                |
 |   A. A. Mostofi, C.-K. Skylaris, P. D. Haynes, M. C. Payne.   |
 |   Comput. Phys. Commun. 147, pp.788-802 (2002).               |
 |                                                               |
 |  "Accurate kinetic energy evaluation in electronic structure  |
 |   calculations with localized functions on real space grids"  |
 |   C.-K. Skylaris, A. A. Mostofi, P. D. Haynes, C. J. Pickard, |
 |   M. C. Payne.                                                |
 |   Comput. Phys. Commun. 140, pp.315-322 (2001).               |
 |                                                               |
 |  "Accurate ionic forces and geometry optimization in linear-  |
 |   scaling density-functional theory with local orbitals"      |
 |   N. D. M. Hine, M. Robinson, P. D. Haynes, C.-K. Skylaris,   |
 |   M. C. Payne, and A. A. Mostofi.                             |
 |   Phys. Rev. B 83 195102 (2011).                              |
 |                                                               |
 +---------------------------------------------------------------+

Job started: 20-06-2020 11:25 (+0100)
 
Reading parameters from file "complex_3901.dat" ...... done

If your calculation crashes here, before "Checking processes and threads..."
is displayed, then your stack size is insufficient.
If so, use "ulimit -s unlimited" at runtime.
You can disable this check with "check_stack_size F".

Checking processes and threads...
   Determining the default number of threads...
      No default threads set at compilation time: defaulting to 1.
      OpenMP library call suggests 4 threads.
      Hybrid MPI-OpenMP compilation detected.
      Number of MPI processes > 1.
      OMP_NUM_THREADS environment variable present and
      its value matches the one obtained from the OpenMP library call.
      Using this value as default.
      Default threads: 4
      Default applies to threads_max and threads_num_fftboxes.
      Settings in the input file override this default.
   ... done

   Running with 40 MPI processes.
   There are 10 MPI processes running on the same node as the root process.
   Each MPI process is using: 
               1 threads for simulation cell FFTs.
               1 threads for parallel FFT box operations.
               4 threads for loops over batched FFT box operations.
               4 threads in other parallel regions.
... done

Basic input checks...... done

Reading geometry and species blocks from file "complex_3901.dat" ...
  <species_atomic_set> block not found: NGWF initialisation set to SOLVE
IS: Dielectric excluded regions:
    - NONE.
    
  Number of PPD points along a3 set to 1.  This is 
  the default value, it may have been provided also in the input file.
... done
 Writing xyz coordinates to file "complex_3901.xyz" ... done


--------------------------------------------------------------------------------
---------------------------------- INPUT FILE ----------------------------------
--------------------------------------------------------------------------------

cutoff_energy       : 800 eV                                                    
xc_functional PBE                                                               
task SINGLEPOINT                                                                
write_xyz true                                                                  
output_detail VERBOSE                                                           
ngwf_threshold_orig : 0.000002                                                  
kernel_cutoff       : 1000                                                      
k_zero              : 3.5                                                       
elec_cg_max 0                                                                   
occ_mix 1.0                                                                     
dispersion 1                                                                    
maxit_ngwf_cg 40                                                                
minit_lnv 10                                                                    
maxit_lnv 10                                                                    
write_denskern F                                                                
write_tightbox_ngwfs F                                                          
charge 9                                                                        
is_implicit_solvent T                                                           
is_auto_solvation T                                                             
is_include_apolar T                                                             
is_smeared_ion_rep T                                                            
is_solvent_surf_tension 4.7624E-5 Ha/bohr**2                                    
is_apolar_scaling_factor 0.281075                                               
is_solvation_beta 1.3                                                           
is_density_threshold 0.00035                                                    
is_bulk_permittivity 78.54                                                      
is_dielectric_model fix_initial                                                 
is_smeared_ion_width 0.8                                                        
mg_defco_fd_order 8                                                             
is_bc_coarseness 10                                                             
is_bc_surface_coarseness 1                                                      
fine_grid_scale 2.0                                                             
%block species                                                                  
N   N   7 4 8.0                                                                 
H   H   1 1 8.0                                                                 
C   C   6 4 8.0                                                                 
S   S  16 9 8.0                                                                 
O   O   8 4 8.0                                                                 
%endblock species                                                               
%block species_pot                                                              
N   N_00.recpot                                                                 
H   H_04.recpot                                                                 
C   C_01.recpot                                                                 
S   S_00.recpot                                                                 
O   O_02.recpot                                                                 
%endblock species_pot                                                           
%block lattice_cart                                                             
140.777   0.000   0.000                                                         
0.000 144.511   0.000                                                           
0.000   0.000   162.462                                                         
%endblock lattice_cart                                                          
%block positions_abs                                                            
     Hash =   000009102875610594286575
%endblock positions_abs                                                         

--------------------------------------------------------------------------------
-------------------------------- END INPUT FILE --------------------------------
--------------------------------------------------------------------------------


 
 ESDF WARNING(1): "kernelcutoff" (esdf_physical) has no units. Assume "bohr".
 ESDF WARNING(2): "kzero" (esdf_physical) has no units. Assume "1/bohr".
 ESDF WARNING(3
 ): "issmearedionwidth" (esdf_physical) has no units. Assume "bohr".
<<<<<<<<<<<<<<<<<<<<<<<<<<<<<<<<< Full system >>>>>>>>>>>>>>>>>>>>>>>>>>>>>>>>>>
<<<<<<<<<<<<<<<<<<<<<<<<< Pseudopotential information >>>>>>>>>>>>>>>>>>>>>>>>>>
File: N_00.recpot [ 2001 points up to Gmax=  52.9 (1/bohr)]
  Atomic number:  7;  ionic charge:  5.000000
    Shell 1: l = 0; rc = 1.48 bohr
File: H_04.recpot [ 2001 points up to Gmax=  52.9 (1/bohr)]
  Atomic number:  1;  ionic charge:  1.000000
    Local potential
File: C_01.recpot [ 2001 points up to Gmax=  52.9 (1/bohr)]
  Atomic number:  6;  ionic charge:  4.000000
    Shell 1: l = 0; rc = 1.48 bohr
File: S_00.recpot [ 2001 points up to Gmax=  52.9 (1/bohr)]
  Atomic number: 16;  ionic charge:  6.000000
    Shell 1: l = 0; rc = 1.90 bohr
    Shell 2: l = 2; rc = 1.84 bohr
File: O_02.recpot [ 2001 points up to Gmax=  52.9 (1/bohr)]
  Atomic number:  8;  ionic charge:  6.000000
    Shell 1: l = 0; rc = 1.31 bohr
<<<<<<<<<<<<<<<<<<<<<<<<<<<<<<<<<<<<<<<<>>>>>>>>>>>>>>>>>>>>>>>>>>>>>>>>>>>>>>>>

-------------------------- Atom counting information ---------------------------
Symbol    Natoms    Nngwfs    Nprojs
  N        236       944       236
  H       1319      1319         0
  C        817      3268       817
  S          6        54        36
  O        239       956       239
.......   ......    ......    ......
Totals:   2617      6541      1328
--------------------------------------------------------------------------------

=============================== PSINC grid sizes ===============================
                      Simulation cell:  280 x 286 x 320
                              FFT-box:   99 x  99 x  99
                                  PPD:    5 x  11 x   1
Grid space d1=  0.502775000000a0 (KE cutoff=  30.05084Eh = 817.72503eV)
Grid space d2=  0.505283216783a0 (KE cutoff=  29.75324Eh = 809.62684eV)
Grid space d3=  0.507693750000a0 (KE cutoff=  29.47137Eh = 801.95686eV)
================================================================================

********************* Fourier parallelisation information **********************
       Coarse grid (whole simulation cell) dimensions:    280   286   320
          Real-space ('12') slabs/node (min max mean):      8     8     8
         Recip-space ('23') slabs/node (min max mean):      3     4     3
********************************************************************************

********************* Fourier parallelisation information **********************
       Double grid (whole simulation cell) dimensions:    560   572   640
          Real-space ('12') slabs/node (min max mean):     16    16    16
         Recip-space ('23') slabs/node (min max mean):      7     8     7
********************************************************************************
ONETEP fine grid is 560 x 572 x 640 gridpoints, 140.7770 x 144.5110 x 162.4620 bohr.
FD multigrid is     553 x 569 x 633 gridpoints, 139.0173 x 143.7531 x 160.6851 bohr.


Calculating local pseudopotential in open BC on a radial grid ...
Discrepancy between calculated realspace psloc and -Z/x on [5a0,259.028a0]:
max |rel. diff| # avg |rel. diff| #  avg rel. diff #  f # pseudopotential file
 0.000261578119    0.000004844123   0.000000072210   55  'N_00.recpot'
 0.000419583258    0.000017514079  -0.000000069370   55  'H_04.recpot'
 0.000363553651    0.000016734795   0.000000141192   55  'C_01.recpot'
 0.000449990737    0.000019382085   0.000000449342   55  'S_00.recpot'
 0.000706973137    0.000028359832   0.000000146371   55  'O_02.recpot'
... done

Atom SCF Calculation for N  : Z (AE atom) =   7 : Z (PS atom) =   5
Config String:
Orbitals (num,occ):  2     2.00 3.00
Orbitals   (num,l):  2        0    1
Real-space Grid (nr,dr,rmax): 1203    0.0066555740    8.0000000000
Spherical Bessel Basis (nsws,lmax,cutoff):   47    1  176.3951722778
Confining potential (l,width,scale):  0    3.0000000000  100.0000000000
Confining potential (l,width,scale):  1    3.0000000000  100.0000000000
  1         -4.7312375307   -3.4155304497    7.0523828109   -1.9351020946
  2         -9.7309464766   -2.0532547791    8.2966052865   -2.2494486027
  3         -9.6627394379   -2.1124926340    8.2327997121   -2.2369778124
  4         -9.6814993499   -2.1215521045    8.2229805960   -2.2365178421
  5         -9.6843326483   -2.1250939529    8.2191374534   -2.2362718126
  6         -9.6859628709   -2.1267894855    8.2172963573   -2.2362066344
  7         -9.6867347035   -2.1276425665    8.2163697352   -2.2361903369
  8         -9.6870802100   -2.1280764625    8.2158983890   -2.2361891460
  9         -9.6872290423   -2.1282977424    8.2156580222   -2.2361920435
 10         -9.6872901988   -2.1284107021    8.2155353368   -2.2361953393
 11         -9.6873135296   -2.1284684031    8.2154726809   -2.2361979819
 12         -9.6873212476   -2.1284978948    8.2154406648   -2.2361998431
 13         -9.6873229586   -2.1285129774    8.2154242957   -2.2362010676
 14         -9.6873226456   -2.1285206957    8.2154159216   -2.2362018403
 15         -9.6873218534   -2.1285246479    8.2154116349   -2.2362023142
 16         -9.6873212599   -2.1285262679    8.2154098784   -2.2362025420
 17         -9.6873207834   -2.1285272564    8.2154088068   -2.2362026955
 18         -9.6873204210   -2.1285278597    8.2154081529   -2.2362027982
 19         -9.6873201550   -2.1285282280    8.2154077538   -2.2362028667
 20         -9.6873199645   -2.1285284529    8.2154075102   -2.2362029121
 21         -9.6873198305   -2.1285285903    8.2154073614   -2.2362029421
 22         -9.6873197377   -2.1285286742    8.2154072705   -2.2362029618
Atom SCF converged after  22 iterations to a total energy of     -9.68731974

Atom SCF Calculation for H  : Z (AE atom) =   1 : Z (PS atom) =   1
Config String:
Orbitals (num,occ):  1     1.00
Orbitals   (num,l):  1        0
Real-space Grid (nr,dr,rmax): 1203    0.0066555740    8.0000000000
Spherical Bessel Basis (nsws,lmax,cutoff):   47    0  176.3951722778
Confining potential (l,width,scale):  0    3.0000000000  100.0000000000
  1         -0.3194257691   -0.2393854593    0.2820953124   -0.2424203209
  2         -0.3951823392   -0.2377116493    0.2886404059   -0.2475147891
  3         -0.4317044583   -0.2352244387    0.2921333887   -0.2514046172
  4         -0.4470703708   -0.2341892222    0.2934391879   -0.2531009782
  5         -0.4532132900   -0.2338556667    0.2938388426   -0.2537313520
  6         -0.4556579251   -0.2337612552    0.2939448584   -0.2539550462
  7         -0.4566418315   -0.2337377355    0.2939680120   -0.2540342273
  8         -0.4570437922   -0.2337331116    0.2939708287   -0.2540627372
  9         -0.4572102946   -0.2337328328    0.2939698291   -0.2540732650
 10         -0.4572800424   -0.2337332404    0.2939687193   -0.2540772588
 11         -0.4573095100   -0.2337335791    0.2939680317   -0.2540788122
 12         -0.4573220379   -0.2337337762    0.2939676699   -0.2540794294
 13         -0.4573273880   -0.2337338775    0.2939674931   -0.2540796787
 14         -0.4573296803   -0.2337339266    0.2939674099   -0.2540797808
 15         -0.4573306647   -0.2337339495    0.2939673718   -0.2540798230
 16         -0.4573310882   -0.2337339601    0.2939673545   -0.2540798406
 17         -0.4573312706   -0.2337339649    0.2939673467   -0.2540798479
 18         -0.4573313493   -0.2337339670    0.2939673433   -0.2540798510
Atom SCF converged after  18 iterations to a total energy of     -0.45733135

Atom SCF Calculation for C  : Z (AE atom) =   6 : Z (PS atom) =   4
Config String:
Orbitals (num,occ):  2     2.00 2.00
Orbitals   (num,l):  2        0    1
Real-space Grid (nr,dr,rmax): 1203    0.0066555740    8.0000000000
Spherical Bessel Basis (nsws,lmax,cutoff):   47    1  176.3951722778
Confining potential (l,width,scale):  0    3.0000000000  100.0000000000
Confining potential (l,width,scale):  1    3.0000000000  100.0000000000
  1         -5.2976922011   -1.3069684169    4.5135249990   -1.4493313817
  2         -5.3721716256   -1.3429755895    4.4750154450   -1.4361613026
  3         -5.3809959565   -1.3617365618    4.4541655428   -1.4305930207
  4         -5.3918938866   -1.3667928461    4.4484735100   -1.4294652294
  5         -5.3956096428   -1.3688539142    4.4461376126   -1.4290734646
  6         -5.3968271862   -1.3696852393    4.4451910874   -1.4289366866
  7         -5.3972028401   -1.3700178062    4.4448112275   -1.4288900460
  8         -5.3973067903   -1.3701500158    4.4446598370   -1.4288749220
  9         -5.3973286940   -1.3702023868    4.4445997329   -1.4288704293
 10         -5.3973289850   -1.3702230869    4.4445759233   -1.4288693188
 11         -5.3973254264   -1.3702312560    4.4445665049   -1.4288691775
 12         -5.3973224003   -1.3702344755    4.4445627836   -1.4288692549
 13         -5.3973208708   -1.3702354890    4.4445616088   -1.4288693270
 14         -5.3973198783   -1.3702360102    4.4445610034   -1.4288693814
 15         -5.3973192535   -1.3702362780    4.4445606917   -1.4288694190
 16         -5.3973188684   -1.3702364155    4.4445605313   -1.4288694437
 17         -5.3973186349   -1.3702364860    4.4445604489   -1.4288694595
 18         -5.3973184951   -1.3702365221    4.4445604065   -1.4288694693
 19         -5.3973184122   -1.3702365405    4.4445603848   -1.4288694753
Atom SCF converged after  19 iterations to a total energy of     -5.39731841

Atom SCF Calculation for S  : Z (AE atom) =  16 : Z (PS atom) =   6
Config String:
Orbitals (num,occ):  3     2.00 4.00 0.00
Orbitals   (num,l):  3        0    1    2
Real-space Grid (nr,dr,rmax): 1203    0.0066555740    8.0000000000
Spherical Bessel Basis (nsws,lmax,cutoff):   47    2  176.3951722778
Confining potential (l,width,scale):  0    3.0000000000  100.0000000000
Confining potential (l,width,scale):  1    3.0000000000  100.0000000000
Confining potential (l,width,scale):  2    3.0000000000  100.0000000000
  1        -12.4735062396   -1.0328741412   10.1554312477   -2.4512393157
  2         -9.9458301913   -2.4607392455    8.3041325857   -2.0306994528
  3        -10.1450417646   -2.2931184565    8.4831893826   -2.0812538287
  4        -10.1528335592   -2.2733105793    8.5050388867   -2.0896035179
  5        -10.1571940363   -2.2633716629    8.5160794258   -2.0939370707
  6        -10.1594380571   -2.2584938667    8.5215163935   -2.0961289008
  7        -10.1605856507   -2.2561081821    8.5241804044   -2.0972291378
  8        -10.1611799191   -2.2549395235    8.5254868240   -2.0977806248
  9        -10.1614918752   -2.2543658586    8.5261285885   -2.0980571586
 10        -10.1616572884   -2.2540839121    8.5264441898   -2.0981959233
 11        -10.1617455602   -2.2539453058    8.5265994231   -2.0982656006
 12        -10.1617928447   -2.2538772062    8.5266757320   -2.0983006047
 13        -10.1618182292   -2.2538437891    8.5267131983   -2.0983181961
 14        -10.1618318741   -2.2538274201    8.5267315620   -2.0983270391
 15        -10.1618392144   -2.2538194197    8.5267405433   -2.0983314852
 16        -10.1618431651   -2.2538155200    8.5267449245   -2.0983337210
 17        -10.1618452923   -2.2538136252    8.5267470551   -2.0983348455
 18        -10.1618464380   -2.2538127080    8.5267480875   -2.0983354110
 19        -10.1618470552   -2.2538122659    8.5267485856   -2.0983356955
 20        -10.1618473878   -2.2538120540    8.5267488248   -2.0983358386
 21        -10.1618475670   -2.2538119530    8.5267489389   -2.0983359106
 22        -10.1618476637   -2.2538119053    8.5267489929   -2.0983359468
Atom SCF converged after  22 iterations to a total energy of    -10.16184766

Atom SCF Calculation for O  : Z (AE atom) =   8 : Z (PS atom) =   6
Config String:
Orbitals (num,occ):  2     2.00 4.00
Orbitals   (num,l):  2        0    1
Real-space Grid (nr,dr,rmax): 1203    0.0066555740    8.0000000000
Spherical Bessel Basis (nsws,lmax,cutoff):   47    1  176.3951722778
Confining potential (l,width,scale):  0    3.0000000000  100.0000000000
Confining potential (l,width,scale):  1    3.0000000000  100.0000000000
  1         -1.8735052164   -7.5539365035   10.1554312477   -2.4512393157
  2        -16.0318313751   -3.1285771268   13.6395848164   -3.2358799643
  3        -15.9524020423   -3.0762819706   13.6967272503   -3.2536856837
  4        -15.8521515939   -3.0781493909   13.6951909330   -3.2561700440
  5        -15.8357139793   -3.0748501933   13.6988803334   -3.2580493133
  6        -15.8246052853   -3.0740779781   13.6997881576   -3.2588327446
  7        -15.8189019501   -3.0737449687   13.7001869911   -3.2592378801
  8        -15.8159785510   -3.0736026016   13.7003615168   -3.2594475790
  9        -15.8144776168   -3.0735437994   13.7004360379   -3.2595560735
 10        -15.8137058024   -3.0735207882   13.7004667348   -3.2596122456
 11        -15.8133083127   -3.0735125946   13.7004786868   -3.2596413656
 12        -15.8131032938   -3.0735102195   13.7004828997   -3.2596564858
 13        -15.8129973902   -3.0735099286   13.7004840891   -3.2596643505
 14        -15.8129426040   -3.0735102506   13.7004842061   -3.2596684489
 15        -15.8129142203   -3.0735106556   13.7004840157   -3.2596705887
 16        -15.8128994940   -3.0735109855   13.7004837906   -3.2596717080
 17        -15.8128918425   -3.0735112169   13.7004836103   -3.2596722946
 18        -15.8128878614   -3.0735113674   13.7004834848   -3.2596726026
 19        -15.8128857871   -3.0735114608   13.7004834035   -3.2596727646
 20        -15.8128847048   -3.0735115170   13.7004833533   -3.2596728500
 21        -15.8128841394   -3.0735115501   13.7004833231   -3.2596728951
 22        -15.8128838436   -3.0735115693   13.7004833054   -3.2596729190
 23        -15.8128836887   -3.0735115802   13.7004832951   -3.2596729316
 24        -15.8128836074   -3.0735115864   13.7004832893   -3.2596729383
Atom SCF converged after  24 iterations to a total energy of    -15.81288361

========================== Calculation in vacuum ==============================
= Adjusting the following parameters: 
= is_implicit_solvent: F
= is_include_apolar: F
= write_denskern: T
= write_tightbox_ngwfs: T
= restart read filename prefix: ""
= restart write filename prefix: "vacuum_"
===============================================================================

Determining parallel strategy ...
... using space-filling curve
... NGWF load balancing: max    164;  min    163;  average    164
... Projector load balancing: max     36;  min     32;  average     33
... done
Calculating direct Ion-Ion energy ...
Ion-Ion Energy        :    839146.26076150219887
======================= Empirical dispersion information =======================
Model : Elstner
Dispersion Correction Energy: -0.33170125E+01 Hartree
================================================================================
Basis initialisation ...... NGWF spheres initialised
... Projector spheres initialised
... NGWF tight boxes initialised
... Tight-boxes gathered
... NGWF basis size (local,global):    1279476  50909799
... Nonlocal pseudopotential projector initialisation
... done

========================== Sparse matrix information ===========================
                        Overlap matrix filling:   6.82%
                        Density kernel filling: 100.00%
              NGWF-Proj overlap matrix filling:   1.77%
                    Hamiltonian matrix filling:   7.71%
                  NGWF diagonal matrix filling:   0.05%
                             KS matrix filling: 100.00% 
                           KSKS matrix filling: 100.00% 
================================================================================

Sparse matrix initialisation ... done

Generating smeared ion density ... done
Smeared ion self correction:     -14517.010906
Smeared ion non-self correction: -839097.931533
NGWF initialisation ...... done
============ Calculation of NGWF S^-1 using Hotelling algorithm ================ 
         Iteration  |  Frobenius norm and Maximum abs value    (of I-S*S_n^-1)   
               1       0.78638383E+02     0.98209785E+00
               2       0.76740935E+02     0.96465949E+00
               3       0.73683762E+02     0.93109585E+00
               4       0.69364228E+02     0.86875024E+00
               5       0.64010170E+02     0.76262954E+00
               6       0.58017744E+02     0.70386734E+00
               7       0.52022473E+02     0.66950984E+00
               8       0.46478214E+02     0.64063930E+00
               9       0.40345038E+02     0.59927718E+00
              10       0.31963583E+02     0.52720780E+00
              11       0.21315790E+02     0.42416359E+00
              12       0.10764499E+02     0.28404193E+00
              13       0.34868382E+01     0.13028907E+00
              14       0.54405941E+00     0.41231299E-01
              15       0.28924361E-01     0.47697989E-02
              16       0.26246924E-03     0.66325913E-04
              17       0.43163352E-07     0.12886590E-07
              18       0.91107828E-13     0.48849813E-14
================================================================================
Calculating local pseudopotential in open BC on the fine real space grid ...
... done

MG BCs: +ve charge blocks (gridpoints):     20213 (   15903552).
MG BCs: -ve charge blocks (gridpoints):      8007 (    1079941).
MG BCs:     Elided blocks (gridpoints):    184075 (  182194388).
MG BCs: Computational effort saved:  99.9858%.
MG BCs: Charge after coarse-graining:           -9.0002219.
MG DL_MG: Calling solver with defect correction order = 8
MG DL_MG: Solver finished
MG Hartree energy from (\int phi*rho dr):              1471.495298
MG Hartree energy from (\int eps (grad phi)^2 dr):     1470.882078
MG Discrepancy due to finite box and discretization:     -0.613220 (  -0.04167%)
MG Correction to account for finite box:                  0.458753
MG Remaining discrepancy, due to discretization:         -0.154467 (  -0.01050%)
Up spin density kernel initialisation ... 
======= Optimisation of K by Palser-Manolopoulos canonical purification ======== 
         Iteration  |  Band structure energy |    c_n   
               1       -2604.79410258389817    0.5260326
               2       -2781.71571882640637    0.5165125
               3       -2962.18275121243096    0.5153915
               4       -3111.70873349129215    0.5295934
               5       -3202.63611693052007    0.5662812
               6       -3240.24540990949481    0.6110616
               7       -3253.05587717533217    0.6238907
               8       -3258.63512769141107    0.6271175
               9       -3261.30736315071545    0.6457679
              10       -3262.42068403823578    0.6655734
              11       -3262.88690632044290    0.6676682
              12       -3263.11223401182451    0.6454004
              13       -3263.23578180732056    0.6004762
              14       -3263.30427689195903    0.5534498
              15       -3263.33431773586244    0.5435181
              16       -3263.34235664738890    0.5631327
              17       -3263.34455809900737    0.5474593
              18       -3263.34554229142577    0.5149285
              19       -3263.34594444381764    0.5014278
              20       -3263.34600761225647    0.5000130
              21       -3263.34600906191008    0.5000028
              22       -3263.34600906271044    0.5000028
Termination criterion satisfied: band energy change below threshold.
Final occupancy bounds: [    0.00000000000000:    1.00000000000000]
Closest occupancy to 0.5:     1.00000000000000
================================================================================
... done

Writing density kernel to file "complex_3901.vacuum_dkn" ... done

>>> Optimising kernel for current NGWFs:
   Initial electron number for spin 1:    7228.00000000
     Final electron number for spin 1:    7228.00000000

=================== Penalty functional idempotency correction ==================
 RMS occupancy error at iteration   1:  0.000000 (step -0.5000 Ne1=   7228.0000)
            Final RMS occupancy error   :  0.000000 (Ne1=   7228.0000)
               Final occupancy bounds   : [  0.0000,  1.0000]
================================================================================

................................................................................
<<<<<<<<<<<<<< LNV (Original version) density kernel optimisation >>>>>>>>>>>>>>
~~~~~~~~~~~~~~~~~~~~~~~~~~~~~~~~~~~~~~~~~~~~~~~~~~~~~~~~~~~~~~~~~~~~~~~~~~~~~~~~
   iter  |      energy (Eh)       | rms gradient |  commutator  |   dE (Eh)
MG BCs: +ve charge blocks (gridpoints):     30655 (   17043598).
MG BCs: -ve charge blocks (gridpoints):      8352 (    1113363).
MG BCs:     Elided blocks (gridpoints):    173627 (  181020920).
MG BCs: Computational effort saved:  99.9804%.
MG BCs: Charge after coarse-graining:           -9.0009322.
MG DL_MG: Calling solver with defect correction order = 8
MG DL_MG: Solver finished
MG Hartree energy from (\int phi*rho dr):              1426.890752
MG Hartree energy from (\int eps (grad phi)^2 dr):     1426.221436
MG Discrepancy due to finite box and discretization:     -0.669315 (  -0.04691%)
MG Correction to account for finite box:                  0.471382
MG Remaining discrepancy, due to discretization:         -0.197934 (  -0.01387%)
      ideal mu1:      -0.696588524872
             Q0:  -11550.115220587468
             G0:    -144.532190462277
   RMS gradient:       0.001837968835
MG BCs: +ve charge blocks (gridpoints):     30634 (   17124402).
MG BCs: -ve charge blocks (gridpoints):      8242 (    1092501).
MG BCs:     Elided blocks (gridpoints):    173643 (  180960978).
MG BCs: Computational effort saved:  99.9805%.
MG BCs: Charge after coarse-graining:           -9.0009542.
MG DL_MG: Calling solver with defect correction order = 8
MG DL_MG: Solver finished
MG Hartree energy from (\int phi*rho dr):              1452.323272
MG Hartree energy from (\int eps (grad phi)^2 dr):     1451.670296
MG Discrepancy due to finite box and discretization:     -0.652976 (  -0.04496%)
MG Correction to account for finite box:                  0.470990
MG Remaining discrepancy, due to discretization:         -0.181986 (  -0.01253%)
     Trial step:       0.500000000000
             Q1:  -11561.624538064818
 Quadratic coef:      60.756777753788
 Linear coef   :     -72.266095231138
           Qmin:  -11571.604133894882
Quadratic minimum step length (  0.297358162755) accepted
    Initial Ne1:    7228.00000000
      Final Ne1:    7228.00000000

=================== Penalty functional idempotency correction ==================
 RMS occupancy error at iteration   1:  0.003391 (step -0.4885 Ne1=   7228.0000)
 RMS occupancy error at iteration   2:  0.000027 (step -0.5001 Ne1=   7228.0000)
            Final RMS occupancy error   :  0.000000 (Ne1=   7228.0000)
               Final occupancy bounds   : [  0.0000,  1.0000]
================================================================================

    1        -1.155011522059E+04     1.8380E-03     1.6633E-03
MG BCs: +ve charge blocks (gridpoints):     30641 (   17093301).
MG BCs: -ve charge blocks (gridpoints):      8289 (    1101189).
MG BCs:     Elided blocks (gridpoints):    173637 (  180983391).
MG BCs: Computational effort saved:  99.9805%.
MG BCs: Charge after coarse-graining:           -9.0009452.
MG DL_MG: Calling solver with defect correction order = 8
MG DL_MG: Solver finished
MG Hartree energy from (\int phi*rho dr):              1434.108344
MG Hartree energy from (\int eps (grad phi)^2 dr):     1433.449669
MG Discrepancy due to finite box and discretization:     -0.658675 (  -0.04593%)
MG Correction to account for finite box:                  0.471067
MG Remaining discrepancy, due to discretization:         -0.187608 (  -0.01308%)
      ideal mu1:      -0.742060803746
             Q0:  -11572.002204364166
             G0:     -12.187943942177
   RMS gradient:       0.000530154210
MG BCs: +ve charge blocks (gridpoints):     30635 (   17109598).
MG BCs: -ve charge blocks (gridpoints):      8259 (    1096027).
MG BCs:     Elided blocks (gridpoints):    173643 (  180972256).
MG BCs: Computational effort saved:  99.9805%.
MG BCs: Charge after coarse-graining:           -9.0009490.
MG DL_MG: Calling solver with defect correction order = 8
MG DL_MG: Solver finished
MG Hartree energy from (\int phi*rho dr):              1439.250133
MG Hartree energy from (\int eps (grad phi)^2 dr):     1438.595542
MG Discrepancy due to finite box and discretization:     -0.654592 (  -0.04548%)
MG Correction to account for finite box:                  0.470225
MG Remaining discrepancy, due to discretization:         -0.184367 (  -0.01281%)
     Trial step:       0.385589265122
             Q1:  -11574.861136613064
 Quadratic coef:       1.840608099117
 Linear coef   :      -4.699540348016
           Qmin:  -11575.001984639666
Quadratic minimum step length (  0.492253704108) accepted
    Initial Ne1:    7227.99989817
      Final Ne1:    7228.00000000

=================== Penalty functional idempotency correction ==================
 RMS occupancy error at iteration   1:  0.001817 (step -0.4929 Ne1=   7228.0000)
 RMS occupancy error at iteration   2:  0.000012 (step -0.5002 Ne1=   7228.0000)
            Final RMS occupancy error   :  0.000000 (Ne1=   7228.0000)
               Final occupancy bounds   : [  0.0000,  1.0000]
================================================================================

    2        -1.157200220436E+04     5.3015E-04     4.7976E-04    -2.1887E+01
MG BCs: +ve charge blocks (gridpoints):     30633 (   17114177).
MG BCs: -ve charge blocks (gridpoints):      8253 (    1094500).
MG BCs:     Elided blocks (gridpoints):    173645 (  180969204).
MG BCs: Computational effort saved:  99.9805%.
MG BCs: Charge after coarse-graining:           -9.0009502.
MG DL_MG: Calling solver with defect correction order = 8
MG DL_MG: Solver finished
MG Hartree energy from (\int phi*rho dr):              1440.721590
MG Hartree energy from (\int eps (grad phi)^2 dr):     1440.068053
MG Discrepancy due to finite box and discretization:     -0.653537 (  -0.04536%)
MG Correction to account for finite box:                  0.470002
MG Remaining discrepancy, due to discretization:         -0.183535 (  -0.01274%)
      ideal mu1:      -0.767909134081
             Q0:  -11575.039282046375
             G0:      -1.979453494134
   RMS gradient:       0.000213722786
MG BCs: +ve charge blocks (gridpoints):     30635 (   17113336).
MG BCs: -ve charge blocks (gridpoints):      8258 (    1095510).
MG BCs:     Elided blocks (gridpoints):    173643 (  180969035).
MG BCs: Computational effort saved:  99.9805%.
MG BCs: Charge after coarse-graining:           -9.0009497.
MG DL_MG: Calling solver with defect correction order = 8
MG DL_MG: Solver finished
MG Hartree energy from (\int phi*rho dr):              1438.447574
MG Hartree energy from (\int eps (grad phi)^2 dr):     1437.794670
MG Discrepancy due to finite box and discretization:     -0.652904 (  -0.04539%)
MG Correction to account for finite box:                  0.469590
MG Remaining discrepancy, due to discretization:         -0.183314 (  -0.01274%)
     Trial step:       0.435669305805
             Q1:  -11575.549956196919
 Quadratic coef:       0.351712979118
 Linear coef   :      -0.862387129663
           Qmin:  -11575.567917329663
Quadratic minimum step length (  0.534122458400) accepted
    Initial Ne1:    7227.99992562
      Final Ne1:    7228.00000000

=================== Penalty functional idempotency correction ==================
 RMS occupancy error at iteration   1:  0.000678 (step -0.4962 Ne1=   7228.0000)
 RMS occupancy error at iteration   2:  0.000005 (step -0.5003 Ne1=   7228.0000)
            Final RMS occupancy error   :  0.000000 (Ne1=   7228.0000)
               Final occupancy bounds   : [  0.0000,  1.0000]
================================================================================

    3        -1.157503928205E+04     2.1372E-04     1.9341E-04    -3.0371E+00
MG BCs: +ve charge blocks (gridpoints):     30634 (   17113184).
MG BCs: -ve charge blocks (gridpoints):      8255 (    1095725).
MG BCs:     Elided blocks (gridpoints):    173644 (  180968972).
MG BCs: Computational effort saved:  99.9805%.
MG BCs: Charge after coarse-graining:           -9.0009496.
MG DL_MG: Calling solver with defect correction order = 8
MG DL_MG: Solver finished
MG Hartree energy from (\int phi*rho dr):              1437.943868
MG Hartree energy from (\int eps (grad phi)^2 dr):     1437.291095
MG Discrepancy due to finite box and discretization:     -0.652773 (  -0.04540%)
MG Correction to account for finite box:                  0.469498
MG Remaining discrepancy, due to discretization:         -0.183275 (  -0.01275%)
      ideal mu1:      -0.768878508209
             Q0:  -11575.572916580481
             G0:      -0.560660811599
   RMS gradient:       0.000113889328
MG BCs: +ve charge blocks (gridpoints):     30634 (   17113899).
MG BCs: -ve charge blocks (gridpoints):      8255 (    1095561).
MG BCs:     Elided blocks (gridpoints):    173645 (  180968421).
MG BCs: Computational effort saved:  99.9805%.
MG BCs: Charge after coarse-graining:           -9.0009500.
MG DL_MG: Calling solver with defect correction order = 8
MG DL_MG: Solver finished
MG Hartree energy from (\int phi*rho dr):              1439.206963
MG Hartree energy from (\int eps (grad phi)^2 dr):     1438.554346
MG Discrepancy due to finite box and discretization:     -0.652616 (  -0.04535%)
MG Correction to account for finite box:                  0.469239
MG Remaining discrepancy, due to discretization:         -0.183377 (  -0.01274%)
     Trial step:       0.482390672242
             Q1:  -11575.722944737761
 Quadratic coef:       0.120429388526
 Linear coef   :      -0.270457545807
           Qmin:  -11575.724763411597
Quadratic minimum step length (  0.541670928218) accepted
    Initial Ne1:    7227.99994871
      Final Ne1:    7228.00000000

=================== Penalty functional idempotency correction ==================
 RMS occupancy error at iteration   1:  0.000430 (step -0.4874 Ne1=   7228.0000)
 RMS occupancy error at iteration   2:  0.000009 (step -0.5003 Ne1=   7228.0000)
            Final RMS occupancy error   :  0.000000 (Ne1=   7228.0000)
               Final occupancy bounds   : [  0.0000,  1.0000]
================================================================================

    4        -1.157557291658E+04     1.1389E-04     1.0306E-04    -5.3363E-01
MG BCs: +ve charge blocks (gridpoints):     30634 (   17114015).
MG BCs: -ve charge blocks (gridpoints):      8254 (    1095534).
MG BCs:     Elided blocks (gridpoints):    173645 (  180968332).
MG BCs: Computational effort saved:  99.9805%.
MG BCs: Charge after coarse-graining:           -9.0009500.
MG DL_MG: Calling solver with defect correction order = 8
MG DL_MG: Solver finished
MG Hartree energy from (\int phi*rho dr):              1439.363316
MG Hartree energy from (\int eps (grad phi)^2 dr):     1438.710717
MG Discrepancy due to finite box and discretization:     -0.652599 (  -0.04534%)
MG Correction to account for finite box:                  0.469208
MG Remaining discrepancy, due to discretization:         -0.183391 (  -0.01274%)
      ideal mu1:      -0.769140878074
             Q0:  -11575.725246270769
             G0:      -0.299276344307
   RMS gradient:       0.000083578151
MG BCs: +ve charge blocks (gridpoints):     30631 (   17114441).
MG BCs: -ve charge blocks (gridpoints):      8252 (    1095279).
MG BCs:     Elided blocks (gridpoints):    173649 (  180968161).
MG BCs: Computational effort saved:  99.9805%.
MG BCs: Charge after coarse-graining:           -9.0009499.
MG DL_MG: Calling solver with defect correction order = 8
MG DL_MG: Solver finished
MG Hartree energy from (\int phi*rho dr):              1439.886001
MG Hartree energy from (\int eps (grad phi)^2 dr):     1439.233310
MG Discrepancy due to finite box and discretization:     -0.652691 (  -0.04533%)
MG Correction to account for finite box:                  0.469122
MG Remaining discrepancy, due to discretization:         -0.183569 (  -0.01275%)
     Trial step:       0.511172185469
             Q1:  -11575.836203842657
 Quadratic coef:       0.042024171091
 Linear coef   :      -0.152981742979
           Qmin:  -11575.864472179795
Quadratic minimum step length (  0.930417065530) accepted
    Initial Ne1:    7227.99983372
      Final Ne1:    7228.00000000

=================== Penalty functional idempotency correction ==================
 RMS occupancy error at iteration   1:  0.001975 (step -0.3951 Ne1=   7228.0000)
 RMS occupancy error at iteration   2:  0.000121 (step -0.4974 Ne1=   7228.0000)
 RMS occupancy error at iteration   3:  0.000001 (step -0.5000 Ne1=   7228.0000)
            Final RMS occupancy error   :  0.000000 (Ne1=   7228.0000)
               Final occupancy bounds   : [  0.0000,  1.0000]
================================================================================

    5        -1.157572524627E+04     8.3578E-05     7.5634E-05    -1.5233E-01
MG BCs: +ve charge blocks (gridpoints):     30629 (   17114871).
MG BCs: -ve charge blocks (gridpoints):      8249 (    1094981).
MG BCs:     Elided blocks (gridpoints):    173651 (  180968029).
MG BCs: Computational effort saved:  99.9805%.
MG BCs: Charge after coarse-graining:           -9.0009498.
MG DL_MG: Calling solver with defect correction order = 8
MG DL_MG: Solver finished
MG Hartree energy from (\int phi*rho dr):              1440.321108
MG Hartree energy from (\int eps (grad phi)^2 dr):     1439.668328
MG Discrepancy due to finite box and discretization:     -0.652780 (  -0.04532%)
MG Correction to account for finite box:                  0.469063
MG Remaining discrepancy, due to discretization:         -0.183717 (  -0.01276%)
      ideal mu1:      -0.768860928452
             Q0:  -11575.847805087804
             G0:      -0.422875339937
   RMS gradient:       0.000107406358
MG BCs: +ve charge blocks (gridpoints):     30632 (   17113941).
MG BCs: -ve charge blocks (gridpoints):      8255 (    1095624).
MG BCs:     Elided blocks (gridpoints):    173648 (  180968316).
MG BCs: Computational effort saved:  99.9805%.
MG BCs: Charge after coarse-graining:           -9.0009495.
MG DL_MG: Calling solver with defect correction order = 8
MG DL_MG: Solver finished
MG Hartree energy from (\int phi*rho dr):              1438.135343
MG Hartree energy from (\int eps (grad phi)^2 dr):     1437.482663
MG Discrepancy due to finite box and discretization:     -0.652679 (  -0.04538%)
MG Correction to account for finite box:                  0.468962
MG Remaining discrepancy, due to discretization:         -0.183717 (  -0.01277%)
     Trial step:       0.689639996509
             Q1:  -11575.928562714485
 Quadratic coef:       0.210874121276
 Linear coef   :      -0.291631747958
           Qmin:  -11575.948634288541
Quadratic minimum step length (  0.476874346711) accepted
    Initial Ne1:    7227.99985918
      Final Ne1:    7228.00000000

=================== Penalty functional idempotency correction ==================
 RMS occupancy error at iteration   1:  0.004488 (step -0.3093 Ne1=   7228.0000)
 RMS occupancy error at iteration   2:  0.000388 (step -0.4820 Ne1=   7228.0000)
 RMS occupancy error at iteration   3:  0.000011 (step -0.5004 Ne1=   7228.0000)
            Final RMS occupancy error   :  0.000000 (Ne1=   7228.0000)
               Final occupancy bounds   : [  0.0000,  1.0000]
================================================================================

    6        -1.157584780509E+04     1.0741E-04     9.7198E-05    -1.2256E-01
MG BCs: +ve charge blocks (gridpoints):     30632 (   17114194).
MG BCs: -ve charge blocks (gridpoints):      8254 (    1095470).
MG BCs:     Elided blocks (gridpoints):    173648 (  180968217).
MG BCs: Computational effort saved:  99.9805%.
MG BCs: Charge after coarse-graining:           -9.0009496.
MG DL_MG: Calling solver with defect correction order = 8
MG DL_MG: Solver finished
MG Hartree energy from (\int phi*rho dr):              1438.812087
MG Hartree energy from (\int eps (grad phi)^2 dr):     1438.159335
MG Discrepancy due to finite box and discretization:     -0.652752 (  -0.04537%)
MG Correction to account for finite box:                  0.469039
MG Remaining discrepancy, due to discretization:         -0.183713 (  -0.01277%)
      ideal mu1:      -0.768170693562
             Q0:  -11575.950311680092
             G0:      -0.473094459214
   RMS gradient:       0.000105154965
MG BCs: +ve charge blocks (gridpoints):     30632 (   17114019).
MG BCs: -ve charge blocks (gridpoints):      8255 (    1095692).
MG BCs:     Elided blocks (gridpoints):    173648 (  180968170).
MG BCs: Computational effort saved:  99.9805%.
MG BCs: Charge after coarse-graining:           -9.0009498.
MG DL_MG: Calling solver with defect correction order = 8
MG DL_MG: Solver finished
MG Hartree energy from (\int phi*rho dr):              1438.254642
MG Hartree energy from (\int eps (grad phi)^2 dr):     1437.602139
MG Discrepancy due to finite box and discretization:     -0.652502 (  -0.04537%)
MG Correction to account for finite box:                  0.469136
MG Remaining discrepancy, due to discretization:         -0.183366 (  -0.01275%)
     Trial step:       0.573473297374
             Q1:  -11576.098844909109
 Quadratic coef:       0.122773810477
 Linear coef   :      -0.271307039495
           Qmin:  -11576.100196067880
Quadratic minimum step length (  0.633634086680) accepted
    Initial Ne1:    7227.99990180
      Final Ne1:    7228.00000000

=================== Penalty functional idempotency correction ==================
 RMS occupancy error at iteration   1:  0.000235 (step -0.4847 Ne1=   7228.0000)
 RMS occupancy error at iteration   2:  0.000002 (step -0.5000 Ne1=   7228.0000)
            Final RMS occupancy error   :  0.000000 (Ne1=   7228.0000)
               Final occupancy bounds   : [  0.0000,  1.0000]
================================================================================

    7        -1.157595031168E+04     1.0515E-04     9.5160E-05    -1.0251E-01
MG BCs: +ve charge blocks (gridpoints):     30633 (   17113993).
MG BCs: -ve charge blocks (gridpoints):      8256 (    1095713).
MG BCs:     Elided blocks (gridpoints):    173647 (  180968175).
MG BCs: Computational effort saved:  99.9805%.
MG BCs: Charge after coarse-graining:           -9.0009499.
MG DL_MG: Calling solver with defect correction order = 8
MG DL_MG: Solver finished
MG Hartree energy from (\int phi*rho dr):              1438.197784
MG Hartree energy from (\int eps (grad phi)^2 dr):     1437.545307
MG Discrepancy due to finite box and discretization:     -0.652477 (  -0.04537%)
MG Correction to account for finite box:                  0.469147
MG Remaining discrepancy, due to discretization:         -0.183330 (  -0.01275%)
      ideal mu1:      -0.768762553808
             Q0:  -11576.100145403645
             G0:      -0.291347905521
   RMS gradient:       0.000082588475
MG BCs: +ve charge blocks (gridpoints):     30632 (   17114517).
MG BCs: -ve charge blocks (gridpoints):      8257 (    1095208).
MG BCs:     Elided blocks (gridpoints):    173646 (  180968156).
MG BCs: Computational effort saved:  99.9805%.
MG BCs: Charge after coarse-graining:           -9.0009500.
MG DL_MG: Calling solver with defect correction order = 8
MG DL_MG: Solver finished
MG Hartree energy from (\int phi*rho dr):              1438.945711
MG Hartree energy from (\int eps (grad phi)^2 dr):     1438.293005
MG Discrepancy due to finite box and discretization:     -0.652706 (  -0.04536%)
MG Correction to account for finite box:                  0.469464
MG Remaining discrepancy, due to discretization:         -0.183242 (  -0.01273%)
     Trial step:       0.602803640514
             Q1:  -11576.192296139780
 Quadratic coef:       0.083474841969
 Linear coef   :      -0.175625578104
           Qmin:  -11576.192521570394
Quadratic minimum step length (  0.634129609298) accepted
    Initial Ne1:    7227.99993868
      Final Ne1:    7228.00000000

=================== Penalty functional idempotency correction ==================
 RMS occupancy error at iteration   1:  0.000778 (step -0.4539 Ne1=   7228.0000)
 RMS occupancy error at iteration   2:  0.000020 (step -0.4995 Ne1=   7228.0000)
            Final RMS occupancy error   :  0.000000 (Ne1=   7228.0000)
               Final occupancy bounds   : [ -0.0000,  1.0000]
================================================================================

    8        -1.157610014540E+04     8.2588E-05     7.4739E-05    -1.4983E-01
MG BCs: +ve charge blocks (gridpoints):     30632 (   17114534).
MG BCs: -ve charge blocks (gridpoints):      8257 (    1095191).
MG BCs:     Elided blocks (gridpoints):    173646 (  180968156).
MG BCs: Computational effort saved:  99.9805%.
MG BCs: Charge after coarse-graining:           -9.0009500.
MG DL_MG: Calling solver with defect correction order = 8
MG DL_MG: Solver finished
MG Hartree energy from (\int phi*rho dr):              1438.985731
MG Hartree energy from (\int eps (grad phi)^2 dr):     1438.333014
MG Discrepancy due to finite box and discretization:     -0.652717 (  -0.04536%)
MG Correction to account for finite box:                  0.469480
MG Remaining discrepancy, due to discretization:         -0.183238 (  -0.01273%)
      ideal mu1:      -0.768781206125
             Q0:  -11576.193279560539
             G0:      -0.155919813764
   RMS gradient:       0.000059936485
MG BCs: +ve charge blocks (gridpoints):     30631 (   17114526).
MG BCs: -ve charge blocks (gridpoints):      8257 (    1095219).
MG BCs:     Elided blocks (gridpoints):    173647 (  180968136).
MG BCs: Computational effort saved:  99.9805%.
MG BCs: Charge after coarse-graining:           -9.0009499.
MG DL_MG: Calling solver with defect correction order = 8
MG DL_MG: Solver finished
MG Hartree energy from (\int phi*rho dr):              1439.196981
MG Hartree energy from (\int eps (grad phi)^2 dr):     1438.543983
MG Discrepancy due to finite box and discretization:     -0.652998 (  -0.04537%)
MG Correction to account for finite box:                  0.469730
MG Remaining discrepancy, due to discretization:         -0.183268 (  -0.01273%)
     Trial step:       0.618268256538
             Q1:  -11576.245129688643
 Quadratic coef:       0.044550143311
 Linear coef   :      -0.096400271416
           Qmin:  -11576.245428732451
Quadratic minimum step length (  0.668922963068) accepted
    Initial Ne1:    7228.00008995
      Final Ne1:    7228.00000000

=================== Penalty functional idempotency correction ==================
 RMS occupancy error at iteration   1:  0.001102 (step -0.4417 Ne1=   7228.0000)
 RMS occupancy error at iteration   2:  0.000026 (step -0.4997 Ne1=   7228.0000)
            Final RMS occupancy error   :  0.000000 (Ne1=   7228.0000)
               Final occupancy bounds   : [ -0.0000,  1.0000]
================================================================================

    9        -1.157619327956E+04     5.9936E-05     5.4240E-05    -9.3134E-02
MG BCs: +ve charge blocks (gridpoints):     30630 (   17114524).
MG BCs: -ve charge blocks (gridpoints):      8256 (    1095227).
MG BCs:     Elided blocks (gridpoints):    173648 (  180968130).
MG BCs: Computational effort saved:  99.9805%.
MG BCs: Charge after coarse-graining:           -9.0009499.
MG DL_MG: Calling solver with defect correction order = 8
MG DL_MG: Solver finished
MG Hartree energy from (\int phi*rho dr):              1439.215461
MG Hartree energy from (\int eps (grad phi)^2 dr):     1438.562440
MG Discrepancy due to finite box and discretization:     -0.653021 (  -0.04537%)
MG Correction to account for finite box:                  0.469750
MG Remaining discrepancy, due to discretization:         -0.183271 (  -0.01273%)
      ideal mu1:      -0.768045259869
   10        -1.157624662566E+04     4.6815E-05     4.2366E-05    -5.3346E-02
Finished density kernel iterations (  10)

Writing density kernel to file "complex_3901.vacuum_dkn" ... done


>>> Density kernel optimised for the current NGWF basis:
     ~~~~~~~~~~~~~~~~~~~~~~~~~~~~~~~~~~~~~~~~~~~~~~~~~~~~~~~~~~~
     Total energy                =  -1.15762466256564E+04  Eh
     Estimated bandgap           =  -4.6779E-01  Eh
     RMS occupancy error         =   4.5053E-08
     [H,K] commutator            =   4.2366E-05
     Occupancy bounds            = [ -0.000:  1.000]
     ~~~~~~~~~~~~~~~~~~~~~~~~~~~~~~~~~~~~~~~~~~~~~~~~~~~~~~~~~~~




################################################################################
########################### NGWF CG iteration  001 #############################
################################################################################
****** Reciprocal space K.E. preconditioning with k_zero =  3.5000 a0^-1 *******

>>> Checking for convergence of NGWFs:   NOT CONVERGED
  ========================================================================
         NGWF RMS gradient =  1.6018E-03 >  2.0000E-06  | above tolerance
  ========================================================================

>>> Improving NGWFs using line search:
============ Calculation of NGWF S^-1 using Hotelling algorithm ================ 
         Iteration  |  Frobenius norm and Maximum abs value    (of I-S*S_n^-1)   
               1       0.19878106E+00     0.51918678E-02
               2       0.91942985E-03     0.40234099E-04
               3       0.34237109E-07     0.27014996E-08
               4       0.13087474E-12     0.68833828E-14
================================================================================
MG BCs: +ve charge blocks (gridpoints):     30214 (   17063864).
MG BCs: -ve charge blocks (gridpoints):      8257 (    1095308).
MG BCs:     Elided blocks (gridpoints):    174069 (  181018709).
MG BCs: Computational effort saved:  99.9807%.
MG BCs: Charge after coarse-graining:           -9.0009506.
MG DL_MG: Calling solver with defect correction order = 8
MG DL_MG: Solver finished
MG Hartree energy from (\int phi*rho dr):              1407.095846
MG Hartree energy from (\int eps (grad phi)^2 dr):     1406.443668
MG Discrepancy due to finite box and discretization:     -0.652178 (  -0.04635%)
MG Correction to account for finite box:                  0.469672
MG Remaining discrepancy, due to discretization:         -0.182506 (  -0.01297%)
============ Calculation of NGWF S^-1 using Hotelling algorithm ================ 
         Iteration  |  Frobenius norm and Maximum abs value    (of I-S*S_n^-1)   
               1       0.18461352E+01     0.40906667E-01
               2       0.70857696E-01     0.24003176E-02
               3       0.14435030E-03     0.97026069E-05
               4       0.11748965E-08     0.16794566E-09
               5       0.11146908E-12     0.44408921E-14
================================================================================
------------------------------- NGWF line search -------------------------------
RMS gradient                =       0.00160181403431
Trial step length           =               0.122474
Gradient along search dir.  =       -279.07217900888
Functional at step 0        =  -11576.24662565637846
Functional at step 1        =  -11607.79796057636850
Functional predicted        =  -11687.38336606449229
Selected quadratic step     =               0.796473
--------------------------- NGWF line search finished --------------------------
                                               
Writing NGWFs to file "complex_3901.vacuum_tightbox_ngwfs"....  done

>>> Optimising kernel for current NGWFs:
   Initial electron number for spin 1:    7262.62655751
     Final electron number for spin 1:    7228.00000000

=================== Penalty functional idempotency correction ==================
 RMS occupancy error at iteration   1:  0.004281 (step -0.4859 Ne1=   7228.0000)
 RMS occupancy error at iteration   2:  0.000071 (step -0.5003 Ne1=   7228.0000)
            Final RMS occupancy error   :  0.000000 (Ne1=   7228.0000)
               Final occupancy bounds   : [  0.0000,  1.0000]
================================================================================

................................................................................
<<<<<<<<<<<<<< LNV (Original version) density kernel optimisation >>>>>>>>>>>>>>
~~~~~~~~~~~~~~~~~~~~~~~~~~~~~~~~~~~~~~~~~~~~~~~~~~~~~~~~~~~~~~~~~~~~~~~~~~~~~~~~
   iter  |      energy (Eh)       | rms gradient |  commutator  |   dE (Eh)
MG BCs: +ve charge blocks (gridpoints):     24589 (   16779581).
MG BCs: -ve charge blocks (gridpoints):      8396 (    1078988).
MG BCs:     Elided blocks (gridpoints):    179699 (  181319312).
MG BCs: Computational effort saved:  99.9834%.
MG BCs: Charge after coarse-graining:           -9.0006592.
MG DL_MG: Calling solver with defect correction order = 8
MG DL_MG: Solver finished
MG Hartree energy from (\int phi*rho dr):              1252.477531
MG Hartree energy from (\int eps (grad phi)^2 dr):     1251.825212
MG Discrepancy due to finite box and discretization:     -0.652319 (  -0.05208%)
MG Correction to account for finite box:                  0.469331
MG Remaining discrepancy, due to discretization:         -0.182988 (  -0.01461%)
      ideal mu1:      -0.709293875218
             Q0:  -11686.588921653689
             G0:      -9.967160405609
   RMS gradient:       0.000482660296
MG BCs: +ve charge blocks (gridpoints):     24629 (   16789961).
MG BCs: -ve charge blocks (gridpoints):      8400 (    1076754).
MG BCs:     Elided blocks (gridpoints):    179659 (  181311166).
MG BCs: Computational effort saved:  99.9834%.
MG BCs: Charge after coarse-graining:           -9.0006560.
MG DL_MG: Calling solver with defect correction order = 8
MG DL_MG: Solver finished
MG Hartree energy from (\int phi*rho dr):              1264.760520
MG Hartree energy from (\int eps (grad phi)^2 dr):     1264.103822
MG Discrepancy due to finite box and discretization:     -0.656698 (  -0.05192%)
MG Correction to account for finite box:                  0.468408
MG Remaining discrepancy, due to discretization:         -0.188290 (  -0.01489%)
     Trial step:       0.643097064318
             Q1:  -11686.682163835620
 Quadratic coef:       6.316609414500
 Linear coef   :      -6.409851596430
           Qmin:  -11688.215039195244
Quadratic minimum step length (  0.326295048014) accepted
    Initial Ne1:    7227.99958063
      Final Ne1:    7228.00000000

=================== Penalty functional idempotency correction ==================
 RMS occupancy error at iteration   1:  0.000349 (step -0.4986 Ne1=   7228.0000)
 RMS occupancy error at iteration   2:  0.000000 (step -0.5000 Ne1=   7228.0000)
            Final RMS occupancy error   :  0.000000 (Ne1=   7228.0000)
               Final occupancy bounds   : [  0.0000,  1.0000]
================================================================================

    1        -1.168658892165E+04     4.8266E-04     4.3678E-04
MG BCs: +ve charge blocks (gridpoints):     24609 (   16785056).
MG BCs: -ve charge blocks (gridpoints):      8400 (    1077836).
MG BCs:     Elided blocks (gridpoints):    179679 (  181314989).
MG BCs: Computational effort saved:  99.9834%.
MG BCs: Charge after coarse-graining:           -9.0006574.
MG DL_MG: Calling solver with defect correction order = 8
MG DL_MG: Solver finished
MG Hartree energy from (\int phi*rho dr):              1257.917997
MG Hartree energy from (\int eps (grad phi)^2 dr):     1257.263543
MG Discrepancy due to finite box and discretization:     -0.654454 (  -0.05203%)
MG Correction to account for finite box:                  0.468841
MG Remaining discrepancy, due to discretization:         -0.185613 (  -0.01476%)
      ideal mu1:      -0.715636375036
             Q0:  -11688.196373589104
             G0:      -0.966094111302
   RMS gradient:       0.000150632611
MG BCs: +ve charge blocks (gridpoints):     24611 (   16784614).
MG BCs: -ve charge blocks (gridpoints):      8402 (    1078690).
MG BCs:     Elided blocks (gridpoints):    179677 (  181314577).
MG BCs: Computational effort saved:  99.9834%.
MG BCs: Charge after coarse-graining:           -9.0006574.
MG DL_MG: Calling solver with defect correction order = 8
MG DL_MG: Solver finished
MG Hartree energy from (\int phi*rho dr):              1258.889637
MG Hartree energy from (\int eps (grad phi)^2 dr):     1258.234920
MG Discrepancy due to finite box and discretization:     -0.654717 (  -0.05201%)
MG Correction to account for finite box:                  0.468731
MG Remaining discrepancy, due to discretization:         -0.185986 (  -0.01477%)
     Trial step:       0.458082293348
             Q1:  -11688.403850990697
 Quadratic coef:       0.235073204503
 Linear coef   :      -0.442550606095
           Qmin:  -11688.404660874940
Quadratic minimum step length (  0.431194608060) accepted
    Initial Ne1:    7227.99994601
      Final Ne1:    7228.00000000

=================== Penalty functional idempotency correction ==================
 RMS occupancy error at iteration   1:  0.000142 (step -0.4994 Ne1=   7228.0000)
            Final RMS occupancy error   :  0.000000 (Ne1=   7228.0000)
               Final occupancy bounds   : [ -0.0000,  1.0000]
================================================================================

    2        -1.168819637359E+04     1.5063E-04     1.3632E-04    -1.6075E+00
MG BCs: +ve charge blocks (gridpoints):     24611 (   16784608).
MG BCs: -ve charge blocks (gridpoints):      8401 (    1078652).
MG BCs:     Elided blocks (gridpoints):    179677 (  181314621).
MG BCs: Computational effort saved:  99.9834%.
MG BCs: Charge after coarse-graining:           -9.0006574.
MG DL_MG: Calling solver with defect correction order = 8
MG DL_MG: Solver finished
MG Hartree energy from (\int phi*rho dr):              1258.832721
MG Hartree energy from (\int eps (grad phi)^2 dr):     1258.178020
MG Discrepancy due to finite box and discretization:     -0.654701 (  -0.05201%)
MG Correction to account for finite box:                  0.468738
MG Remaining discrepancy, due to discretization:         -0.185963 (  -0.01477%)
      ideal mu1:      -0.716700885338
             Q0:  -11688.405061356956
             G0:      -0.158955648240
   RMS gradient:       0.000060891399
MG BCs: +ve charge blocks (gridpoints):     24611 (   16784301).
MG BCs: -ve charge blocks (gridpoints):      8405 (    1078882).
MG BCs:     Elided blocks (gridpoints):    179677 (  181314698).
MG BCs: Computational effort saved:  99.9834%.
MG BCs: Charge after coarse-graining:           -9.0006573.
MG DL_MG: Calling solver with defect correction order = 8
MG DL_MG: Solver finished
MG Hartree energy from (\int phi*rho dr):              1258.511875
MG Hartree energy from (\int eps (grad phi)^2 dr):     1257.857276
MG Discrepancy due to finite box and discretization:     -0.654598 (  -0.05201%)
MG Correction to account for finite box:                  0.468658
MG Remaining discrepancy, due to discretization:         -0.185941 (  -0.01477%)
     Trial step:       0.444435163932
             Q1:  -11688.453977630008
 Quadratic coef:       0.021729206532
 Linear coef   :      -0.070645479584
           Qmin:  -11688.462481582797
Quadratic minimum step length (  0.722468518443) accepted
    Initial Ne1:    7228.00095146
      Final Ne1:    7228.00000000

=================== Penalty functional idempotency correction ==================
 RMS occupancy error at iteration   1:  0.000117 (step -0.4963 Ne1=   7228.0000)
 RMS occupancy error at iteration   2:  0.000001 (step -0.5000 Ne1=   7228.0000)
            Final RMS occupancy error   :  0.000000 (Ne1=   7228.0000)
               Final occupancy bounds   : [  0.0000,  1.0000]
================================================================================

    3        -1.168840506136E+04     6.0891E-05     5.5104E-05    -2.0869E-01
MG BCs: +ve charge blocks (gridpoints):     24610 (   16784030).
MG BCs: -ve charge blocks (gridpoints):      8406 (    1079067).
MG BCs:     Elided blocks (gridpoints):    179678 (  181314784).
MG BCs: Computational effort saved:  99.9834%.
MG BCs: Charge after coarse-graining:           -9.0006574.
MG DL_MG: Calling solver with defect correction order = 8
MG DL_MG: Solver finished
MG Hartree energy from (\int phi*rho dr):              1258.311489
MG Hartree energy from (\int eps (grad phi)^2 dr):     1257.656955
MG Discrepancy due to finite box and discretization:     -0.654534 (  -0.05202%)
MG Correction to account for finite box:                  0.468606
MG Remaining discrepancy, due to discretization:         -0.185927 (  -0.01478%)
      ideal mu1:      -0.716076526784
             Q0:  -11688.462571174721
             G0:      -0.058736196217
   RMS gradient:       0.000037002831
MG BCs: +ve charge blocks (gridpoints):     24610 (   16783681).
MG BCs: -ve charge blocks (gridpoints):      8406 (    1079149).
MG BCs:     Elided blocks (gridpoints):    179678 (  181315051).
MG BCs: Computational effort saved:  99.9834%.
MG BCs: Charge after coarse-graining:           -9.0006575.
MG DL_MG: Calling solver with defect correction order = 8
MG DL_MG: Solver finished
MG Hartree energy from (\int phi*rho dr):              1258.215476
MG Hartree energy from (\int eps (grad phi)^2 dr):     1257.561115
MG Discrepancy due to finite box and discretization:     -0.654361 (  -0.05201%)
MG Correction to account for finite box:                  0.468567
MG Remaining discrepancy, due to discretization:         -0.185793 (  -0.01477%)
     Trial step:       0.566648404595
             Q1:  -11688.482393422863
 Quadratic coef:       0.013460523738
 Linear coef   :      -0.033282771879
           Qmin:  -11688.483145093787
Quadratic minimum step length (  0.700553334790) accepted
    Initial Ne1:    7228.00034063
      Final Ne1:    7228.00000000

=================== Penalty functional idempotency correction ==================
 RMS occupancy error at iteration   1:  0.000158 (step -0.4913 Ne1=   7228.0000)
 RMS occupancy error at iteration   2:  0.000001 (step -0.5000 Ne1=   7228.0000)
            Final RMS occupancy error   :  0.000000 (Ne1=   7228.0000)
               Final occupancy bounds   : [  0.0000,  1.0000]
================================================================================

    4        -1.168846257117E+04     3.7003E-05     3.3486E-05    -5.7510E-02
MG BCs: +ve charge blocks (gridpoints):     24610 (   16783591).
MG BCs: -ve charge blocks (gridpoints):      8406 (    1079180).
MG BCs:     Elided blocks (gridpoints):    179678 (  181315110).
MG BCs: Computational effort saved:  99.9834%.
MG BCs: Charge after coarse-graining:           -9.0006575.
MG DL_MG: Calling solver with defect correction order = 8
MG DL_MG: Solver finished
MG Hartree energy from (\int phi*rho dr):              1258.193444
MG Hartree energy from (\int eps (grad phi)^2 dr):     1257.539125
MG Discrepancy due to finite box and discretization:     -0.654319 (  -0.05200%)
MG Correction to account for finite box:                  0.468557
MG Remaining discrepancy, due to discretization:         -0.185762 (  -0.01476%)
      ideal mu1:      -0.716338205088
             Q0:  -11688.483134056791
             G0:      -0.046625628545
   RMS gradient:       0.000033014840
MG BCs: +ve charge blocks (gridpoints):     24611 (   16784501).
MG BCs: -ve charge blocks (gridpoints):      8405 (    1078900).
MG BCs:     Elided blocks (gridpoints):    179677 (  181314480).
MG BCs: Computational effort saved:  99.9834%.
MG BCs: Charge after coarse-graining:           -9.0006572.
MG DL_MG: Calling solver with defect correction order = 8
MG DL_MG: Solver finished
MG Hartree energy from (\int phi*rho dr):              1258.860215
MG Hartree energy from (\int eps (grad phi)^2 dr):     1258.206105
MG Discrepancy due to finite box and discretization:     -0.654110 (  -0.05196%)
MG Correction to account for finite box:                  0.468415
MG Remaining discrepancy, due to discretization:         -0.185696 (  -0.01475%)
     Trial step:       0.630053513198
             Q1:  -11688.502128316555
 Quadratic coef:       0.010382381306
 Linear coef   :      -0.029376641070
           Qmin:  -11688.503914141222
Quadratic minimum step length (  0.891358897663) accepted
    Initial Ne1:    7228.00034492
      Final Ne1:    7228.00000000

=================== Penalty functional idempotency correction ==================
 RMS occupancy error at iteration   1:  0.000552 (step -0.4692 Ne1=   7228.0000)
 RMS occupancy error at iteration   2:  0.000004 (step -0.5000 Ne1=   7228.0000)
            Final RMS occupancy error   :  0.000000 (Ne1=   7228.0000)
               Final occupancy bounds   : [  0.0000,  1.0000]
================================================================================

    5        -1.168848313406E+04     3.3015E-05     2.9877E-05    -2.0563E-02
MG BCs: +ve charge blocks (gridpoints):     24611 (   16784937).
MG BCs: -ve charge blocks (gridpoints):      8404 (    1078732).
MG BCs:     Elided blocks (gridpoints):    179677 (  181314212).
MG BCs: Computational effort saved:  99.9834%.
MG BCs: Charge after coarse-graining:           -9.0006571.
MG DL_MG: Calling solver with defect correction order = 8
MG DL_MG: Solver finished
MG Hartree energy from (\int phi*rho dr):              1259.138048
MG Hartree energy from (\int eps (grad phi)^2 dr):     1258.484029
MG Discrepancy due to finite box and discretization:     -0.654019 (  -0.05194%)
MG Correction to account for finite box:                  0.468351
MG Remaining discrepancy, due to discretization:         -0.185668 (  -0.01475%)
      ideal mu1:      -0.717609801201
             Q0:  -11688.503718573251
             G0:      -0.049308261266
   RMS gradient:       0.000033998598
MG BCs: +ve charge blocks (gridpoints):     24609 (   16785207).
MG BCs: -ve charge blocks (gridpoints):      8404 (    1078702).
MG BCs:     Elided blocks (gridpoints):    179679 (  181313972).
MG BCs: Computational effort saved:  99.9834%.
MG BCs: Charge after coarse-graining:           -9.0006571.
MG DL_MG: Calling solver with defect correction order = 8
MG DL_MG: Solver finished
MG Hartree energy from (\int phi*rho dr):              1259.076351
MG Hartree energy from (\int eps (grad phi)^2 dr):     1258.422627
MG Discrepancy due to finite box and discretization:     -0.653723 (  -0.05192%)
MG Correction to account for finite box:                  0.468058
MG Remaining discrepancy, due to discretization:         -0.185666 (  -0.01475%)
     Trial step:       0.749402298497
             Q1:  -11688.528057254269
 Quadratic coef:       0.012613043309
 Linear coef   :      -0.036951724327
           Qmin:  -11688.530782420914
Quadratic minimum step length (  1.097740904623) accepted
    Initial Ne1:    7228.00044736
      Final Ne1:    7228.00000000

=================== Penalty functional idempotency correction ==================
 RMS occupancy error at iteration   1:  0.002021 (step -0.4037 Ne1=   7228.0000)
 RMS occupancy error at iteration   2:  0.000022 (step -0.4998 Ne1=   7228.0000)
            Final RMS occupancy error   :  0.000000 (Ne1=   7228.0000)
               Final occupancy bounds   : [ -0.0000,  1.0000]
================================================================================

    6        -1.168850371857E+04     3.3999E-05     3.0767E-05    -2.0585E-02
MG BCs: +ve charge blocks (gridpoints):     24608 (   16785326).
MG BCs: -ve charge blocks (gridpoints):      8403 (    1078686).
MG BCs:     Elided blocks (gridpoints):    179680 (  181313869).
MG BCs: Computational effort saved:  99.9834%.
MG BCs: Charge after coarse-graining:           -9.0006570.
MG DL_MG: Calling solver with defect correction order = 8
MG DL_MG: Solver finished
MG Hartree energy from (\int phi*rho dr):              1259.051029
MG Hartree energy from (\int eps (grad phi)^2 dr):     1258.397424
MG Discrepancy due to finite box and discretization:     -0.653605 (  -0.05191%)
MG Correction to account for finite box:                  0.467940
MG Remaining discrepancy, due to discretization:         -0.185665 (  -0.01475%)
      ideal mu1:      -0.718087481808
             Q0:  -11688.530186692602
             G0:      -0.059499648419
   RMS gradient:       0.000037291775
MG BCs: +ve charge blocks (gridpoints):     24610 (   16783143).
MG BCs: -ve charge blocks (gridpoints):      8404 (    1079381).
MG BCs:     Elided blocks (gridpoints):    179678 (  181315357).
MG BCs: Computational effort saved:  99.9834%.
MG BCs: Charge after coarse-graining:           -9.0006575.
MG DL_MG: Calling solver with defect correction order = 8
MG DL_MG: Solver finished
MG Hartree energy from (\int phi*rho dr):              1258.005712
MG Hartree energy from (\int eps (grad phi)^2 dr):     1257.352065
MG Discrepancy due to finite box and discretization:     -0.653647 (  -0.05196%)
MG Correction to account for finite box:                  0.467908
MG Remaining discrepancy, due to discretization:         -0.185738 (  -0.01476%)
     Trial step:       0.907000307100
             Q1:  -11688.543024622253
 Quadratic coef:       0.041128269737
 Linear coef   :      -0.053966199388
           Qmin:  -11688.547889544527
Quadratic minimum step length (  0.595057362382) accepted
    Initial Ne1:    7228.00010004
      Final Ne1:    7228.00000000

=================== Penalty functional idempotency correction ==================
 RMS occupancy error at iteration   1:  0.000027 (step -0.4984 Ne1=   7228.0000)
            Final RMS occupancy error   :  0.000000 (Ne1=   7228.0000)
               Final occupancy bounds   : [ -0.0000,  1.0000]
================================================================================

    7        -1.168853018669E+04     3.7292E-05     3.3747E-05    -2.6468E-02
MG BCs: +ve charge blocks (gridpoints):     24610 (   16783863).
MG BCs: -ve charge blocks (gridpoints):      8404 (    1079160).
MG BCs:     Elided blocks (gridpoints):    179678 (  181314858).
MG BCs: Computational effort saved:  99.9834%.
MG BCs: Charge after coarse-graining:           -9.0006573.
MG DL_MG: Calling solver with defect correction order = 8
MG DL_MG: Solver finished
MG Hartree energy from (\int phi*rho dr):              1258.362798
MG Hartree energy from (\int eps (grad phi)^2 dr):     1257.709164
MG Discrepancy due to finite box and discretization:     -0.653634 (  -0.05194%)
MG Correction to account for finite box:                  0.467922
MG Remaining discrepancy, due to discretization:         -0.185713 (  -0.01476%)
      ideal mu1:      -0.717293161246
             Q0:  -11688.547894448973
             G0:      -0.044957726064
   RMS gradient:       0.000032409206
MG BCs: +ve charge blocks (gridpoints):     24610 (   16783643).
MG BCs: -ve charge blocks (gridpoints):      8404 (    1079253).
MG BCs:     Elided blocks (gridpoints):    179678 (  181314985).
MG BCs: Computational effort saved:  99.9834%.
MG BCs: Charge after coarse-graining:           -9.0006574.
MG DL_MG: Calling solver with defect correction order = 8
MG DL_MG: Solver finished
MG Hartree energy from (\int phi*rho dr):              1258.096342
MG Hartree energy from (\int eps (grad phi)^2 dr):     1257.442808
MG Discrepancy due to finite box and discretization:     -0.653534 (  -0.05195%)
MG Correction to account for finite box:                  0.467753
MG Remaining discrepancy, due to discretization:         -0.185781 (  -0.01477%)
     Trial step:       0.734654483701
             Q1:  -11688.569611540297
 Quadratic coef:       0.011311303706
 Linear coef   :      -0.033028395030
           Qmin:  -11688.572004730746
Quadratic minimum step length (  1.072575678680) accepted
    Initial Ne1:    7228.00062958
      Final Ne1:    7228.00000000

=================== Penalty functional idempotency correction ==================
[...]
MG BCs: Computational effort saved:  99.9813%.
MG BCs: Charge after coarse-graining:           -9.0009250.
MG DL_MG: Calling solver with defect correction order = 8
MG DL_MG: Solver finished
MG Hartree energy from (\int phi*rho dr):              1215.900472
MG Hartree energy from (\int eps (grad phi)^2 dr):     1215.709300
MG Discrepancy due to finite box and discretization:     -0.191172 (  -0.01572%)
MG Correction to account for finite box:                  0.006296
MG Remaining discrepancy, due to discretization:         -0.184876 (  -0.01520%)
             Q2:  -11723.485986134969
  Cubic LS coeff:       1.033915204382
Predicted energy:  -11723.485986134987
Cubic minimum step length accepted
    Initial Ne1:    7228.00000000
      Final Ne1:    7228.00000000

=================== Penalty functional idempotency correction ==================
 RMS occupancy error at iteration   1:  0.000000 (step -0.5000 Ne1=   7228.0000)
            Final RMS occupancy error   :  0.000000 (Ne1=   7228.0000)
               Final occupancy bounds   : [  0.0000,  1.0000]
================================================================================

    7        -1.172348598613E+04     1.1466E-08     1.0376E-08    -3.9581E-09

Reusing previously generated solute cavity.
MG BCs: +ve charge blocks (gridpoints):     28883 (   18960238).
MG BCs: -ve charge blocks (gridpoints):      8385 (    1048183).
MG BCs:     Elided blocks (gridpoints):    175405 (  179169460).
MG BCs: Computational effort saved:  99.9813%.
MG BCs: Charge after coarse-graining:           -9.0009250.
MG DL_MG: Calling solver with defect correction order = 8
MG DL_MG: Solver finished
MG Hartree energy from (\int phi*rho dr):              1215.900472
MG Hartree energy from (\int eps (grad phi)^2 dr):     1215.709300
MG Discrepancy due to finite box and discretization:     -0.191172 (  -0.01572%)
MG Correction to account for finite box:                  0.006296
MG Remaining discrepancy, due to discretization:         -0.184876 (  -0.01520%)
      ideal mu1:      -0.480435821308
             Q0:  -11723.485986135085
             G0:      -0.000000007723
   RMS gradient:       0.000000013716

Reusing previously generated solute cavity.
MG BCs: +ve charge blocks (gridpoints):     28883 (   18960238).
MG BCs: -ve charge blocks (gridpoints):      8385 (    1048183).
MG BCs:     Elided blocks (gridpoints):    175405 (  179169460).
MG BCs: Computational effort saved:  99.9813%.
MG BCs: Charge after coarse-graining:           -9.0009250.
MG DL_MG: Calling solver with defect correction order = 8
MG DL_MG: Solver finished
MG Hartree energy from (\int phi*rho dr):              1215.900433
MG Hartree energy from (\int eps (grad phi)^2 dr):     1215.709261
MG Discrepancy due to finite box and discretization:     -0.191172 (  -0.01572%)
MG Correction to account for finite box:                  0.006296
MG Remaining discrepancy, due to discretization:         -0.184876 (  -0.01520%)
     Trial step:       0.733116459560
             Q1:  -11723.485986138694
 Quadratic coef:       0.000000002052
 Linear coef   :      -0.000000005662
           Qmin:  -11723.485986138990
Quadratic minimum step length (  1.011429184490) accepted
    Initial Ne1:    7228.00000000
      Final Ne1:    7228.00000000

=================== Penalty functional idempotency correction ==================
 RMS occupancy error at iteration   1:  0.000000 (step -0.5000 Ne1=   7228.0000)
            Final RMS occupancy error   :  0.000000 (Ne1=   7228.0000)
               Final occupancy bounds   : [ -0.0000,  1.0000]
================================================================================

    8        -1.172348598614E+04     1.3716E-08     1.2412E-08    -6.7521E-09

Reusing previously generated solute cavity.
MG BCs: +ve charge blocks (gridpoints):     28883 (   18960238).
MG BCs: -ve charge blocks (gridpoints):      8385 (    1048183).
MG BCs:     Elided blocks (gridpoints):    175405 (  179169460).
MG BCs: Computational effort saved:  99.9813%.
MG BCs: Charge after coarse-graining:           -9.0009250.
MG DL_MG: Calling solver with defect correction order = 8
MG DL_MG: Solver finished
MG Hartree energy from (\int phi*rho dr):              1215.900418
MG Hartree energy from (\int eps (grad phi)^2 dr):     1215.709246
MG Discrepancy due to finite box and discretization:     -0.191172 (  -0.01572%)
MG Correction to account for finite box:                  0.006296
MG Remaining discrepancy, due to discretization:         -0.184876 (  -0.01520%)
      ideal mu1:      -0.480435761152
             Q0:  -11723.485986139160
             G0:      -0.000000005299
   RMS gradient:       0.000000010686

Reusing previously generated solute cavity.
MG BCs: +ve charge blocks (gridpoints):     28883 (   18960237).
MG BCs: -ve charge blocks (gridpoints):      8385 (    1048183).
MG BCs:     Elided blocks (gridpoints):    175405 (  179169461).
MG BCs: Computational effort saved:  99.9813%.
MG BCs: Charge after coarse-graining:           -9.0009250.
MG DL_MG: Calling solver with defect correction order = 8
MG DL_MG: Solver finished
MG Hartree energy from (\int phi*rho dr):              1215.900444
MG Hartree energy from (\int eps (grad phi)^2 dr):     1215.709272
MG Discrepancy due to finite box and discretization:     -0.191172 (  -0.01572%)
MG Correction to account for finite box:                  0.006296
MG Remaining discrepancy, due to discretization:         -0.184876 (  -0.01520%)
     Trial step:       0.861101261658
             Q1:  -11723.485986140557
 Quadratic coef:       0.000000003165
 Linear coef   :      -0.000000004563
           Qmin:  -11723.485986140804
Quadratic minimum step length (  0.620678585853) accepted
    Initial Ne1:    7228.00000000
      Final Ne1:    7228.00000000

=================== Penalty functional idempotency correction ==================
 RMS occupancy error at iteration   1:  0.000000 (step -0.5000 Ne1=   7228.0000)
            Final RMS occupancy error   :  0.000000 (Ne1=   7228.0000)
               Final occupancy bounds   : [  0.0000,  1.0000]
================================================================================

    9        -1.172348598614E+04     1.0686E-08     9.6706E-09    -4.0745E-09

Reusing previously generated solute cavity.
MG BCs: +ve charge blocks (gridpoints):     28883 (   18960237).
MG BCs: -ve charge blocks (gridpoints):      8385 (    1048183).
MG BCs:     Elided blocks (gridpoints):    175405 (  179169461).
MG BCs: Computational effort saved:  99.9813%.
MG BCs: Charge after coarse-graining:           -9.0009250.
MG DL_MG: Calling solver with defect correction order = 8
MG DL_MG: Solver finished
MG Hartree energy from (\int phi*rho dr):              1215.900436
MG Hartree energy from (\int eps (grad phi)^2 dr):     1215.709265
MG Discrepancy due to finite box and discretization:     -0.191172 (  -0.01572%)
MG Correction to account for finite box:                  0.006296
MG Remaining discrepancy, due to discretization:         -0.184876 (  -0.01520%)
      ideal mu1:      -0.480435787677
   10        -1.172348598614E+04     5.7243E-09     5.1802E-09    -1.3970E-09
Finished density kernel iterations (  10)


>>> Density kernel optimised for the current NGWF basis:
     ~~~~~~~~~~~~~~~~~~~~~~~~~~~~~~~~~~~~~~~~~~~~~~~~~~~~~~~~~~~
     Total energy                =  -1.17234859861406E+04  Eh
     Estimated bandgap           =   7.3669E-02  Eh
     RMS occupancy error         =   8.3483E-16
     [H,K] commutator            =   5.1802E-09
     Occupancy bounds            = [  0.000:  1.000]
     ~~~~~~~~~~~~~~~~~~~~~~~~~~~~~~~~~~~~~~~~~~~~~~~~~~~~~~~~~~~




################################################################################
########################### NGWF CG iteration  004 #############################
################################################################################
****** Reciprocal space K.E. preconditioning with k_zero =  3.5000 a0^-1 *******

>>> Checking for convergence of NGWFs: 
           ........................................................
           |         *** NGWF optimisation converged ***          |
           | RMS NGWF gradient =    0.00000179306452              |
           | Criteria satisfied:                                  |
           | -> RMS NGWF gradient lower than set threshold.       |
           ========================================================

Reusing previously generated solute cavity.
MG BCs: +ve charge blocks (gridpoints):     28883 (   18960237).
MG BCs: -ve charge blocks (gridpoints):      8385 (    1048183).
MG BCs:     Elided blocks (gridpoints):    175405 (  179169461).
MG BCs: Computational effort saved:  99.9813%.
MG BCs: Charge after coarse-graining:           -9.0009250.
MG DL_MG: Calling solver with defect correction order = 8
MG DL_MG: Solver finished
MG Hartree energy from (\int phi*rho dr):              1215.900436
MG Hartree energy from (\int eps (grad phi)^2 dr):     1215.709265
MG Discrepancy due to finite box and discretization:     -0.191172 (  -0.01572%)
MG Correction to account for finite box:                  0.006296
MG Remaining discrepancy, due to discretization:         -0.184876 (  -0.01520%)

================================================================================
           ---------------- ENERGY COMPONENTS (Eh) ----------------
           | Kinetic                    :     8564.01845490977576 |
           | Pseudo. (local,OBC,corr'd) :    -5067.37115279280624 |
           | Pseudopotential (non-local):     1408.31712936622898 |
           | Hartree (molecular)        :     1215.90043631972435 |
           | Exchange-correlation       :    -3372.99600103063267 |
           | Ion-ion (open BC)          :   839146.26076150219887 |
           | Dispersion Correction      :       -3.31701252500014 |
           | Smeared ion non-self corr. :  -839097.93153301719576 |
           | Smeared ion self corr.     :   -14517.01090595763526 |
           | Solvent cavitation energy  :        2.29062380085851 |
           | Solute-solvent dis-rep en. :       -1.64678671603221 |
           | Total                      :   -11723.48598614056027 |
           --------------------------------------------------------
           ------ LOCAL ENERGY COMPONENTS FROM MATRIX TRACES ------
           | Pseudopotential (local)    :    -5067.37115279283080 |
           | Hartree                    :    -1998.13862019503404 |
           --------------------------------------------------------
           Integrated density           :     7227.99999999811916
           Integrated density tr(KS)    :     7228.00000000000091
================================================================================


                        <<<<< CALCULATION SUMMARY >>>>>                         
|ITER|    RMS GRADIENT   |     TOTAL ENERGY    |   step   |     Epredicted              
   0     0.00004140128840 -11723.41737175814342   0.635403 -11723.47660142938184        
   1     0.00000910807012 -11723.48558736452833   0.072556 -11723.48591469523308        
   2     0.00000401884770 -11723.48597269493621   0.013366 -11723.48598443534320        
   3     0.00000179306452 -11723.48598614055663  <-- CG                                 

=================== Finished the calculation in solvent ========================
= Adjusting the following parameters: 
= read_denskern: F
= read_tightbox_ngwfs: F
= maxit_pen: 0 (restored to user-specified value)
= restart read filename prefix: ""
= restart write filename prefix: ""
================================================================================

================================================================================
IS: Calculation in solvent completed (NGWFs converged).      

Individual components of total energy in solvent:     hartree           kcal/mol
- Usual non-electrostatic DFT terms:    -12940.03025954510667    -8119991.406364
- Electrostatic fixed charge energy:      1215.90043631972435      762989.026755
- Apolar cavitation energy:                  2.29062380085851        1437.388105
- Apolar dispersion-repulsion energy:       -1.64678671603221       -1033.374244
 -------------------------------------------------------------------------------
- Total energy in solvent:              -11723.48598614055663    -7356598.365747

Components of total energy in solvent:                hartree           kcal/mol
- Usual non-electrostatic DFT terms:    -12940.03025954510667    -8119991.406364
- Electrostatic energy:                   1215.90043631972435      762989.026755
- Apolar energy terms:                       0.64383708482631         404.013862
 -------------------------------------------------------------------------------
- Total energy in solvent:              -11723.48598614055663    -7356598.365747

Calculation of free energy of solvation:              hartree           kcal/mol
- Total energy in solvent:         (+)  -11723.48598614055663    -7356598.365747
- Total energy in vacuum:          (-)  -11719.46587219263893    -7354075.706213
 -------------------------------------------------------------------------------
- Total free energy of solvation:           -4.02011394791771       -2522.659534

Components of polar term in f.e. of solvation:        hartree           kcal/mol
- Electrostatic:                            -4.78009336236482       -2999.553807
- Change in nonelectrostatic DFT terms:      0.11614232962165          72.880411
 -------------------------------------------------------------------------------
- Polar term in f.e. of solvation:          -4.66395103274317       -2926.673396

Components of free energy of solvation:               hartree           kcal/mol
- Polar term in f.e. of solvation: (+)      -4.66395103274317       -2926.673396
- Apolar (cavitation, dis., rep.): (+)       0.64383708482631         404.013862
 -------------------------------------------------------------------------------
- Total free energy of solvation:           -4.02011394791686       -2522.659534
================================================================================


------------------------------ TIMING INFORMATION ------------------------------
AVERAGE TIME:   25870.319s on     40 node(s)                                    
TOTAL TIME:     25870.320s on     40 node(s)                                    
================= AVERAGE TIMINGS FROM ALL NODES (CUMULATIVE) ==================
|| TAG                                    #calls    cpu time   %total  Gflops ||
|| work_imbalance                       :     1        0.00s   0.000%  ------ ||
|| parallel_prepare_fd_halos_request    :  1827        0.01s   0.000%  ------ ||
|| sparse_set_to_garbage                :   164        0.04s   0.000%  ------ ||
|| parallel_prepare_fd_halos_satisfy    :  1827        0.06s   0.000%  ------ ||
|| ngwfs_initialise_from_radial         :     1        0.17s   0.001%  ------ ||
|| parallel_prepare_fd_halos_alloc      :  1827        0.20s   0.001%  ------ ||
|| basis_extract_function_from_box      :  5069        0.20s   0.001%  ------ ||
|| restart_ngwfs_tightbox_input         :     1        1.13s   0.004%  ------ ||
|| pseudopotentials_nonlocal_mat        :    28        1.40s   0.005%  ------ ||
|| density_init_guess_real              :     1        3.10s   0.012%  ------ ||
|| parallel_prepare_fd_halos_comms_imbal:  1827        3.27s   0.013%  ------ ||
|| openbc_locps_radial                  :     1        4.87s   0.019%  ------ ||
|| restart_kernel_read                  :     1        6.79s   0.026%  ------ ||
|| parallel_prepare_fd_halos_clear      :  1827       13.82s   0.053%  ------ ||
|| restart_kernel_write                 :    12       16.22s   0.063%  ------ ||
|| projectors_func_ovlp_box             :    28       21.97s   0.085%  ------ ||
|| sparse_init                          :     2       23.24s   0.090%  ------ ||
|| parallel_prepare_fd_halos_comms_wait :  1827       23.94s   0.093%  ------ ||
|| projectors_init_fftbox_recip         :   193       25.11s   0.097%  ------ ||
|| function_ops_brappd_ketppd           :    28       26.85s   0.104%  ------ ||
|| palser_mano_kernel_optimise          :     1       40.41s   0.156%  ------ ||
|| parallel_prepare_fd_halos            :  1827       41.30s   0.160%  ------ ||
|| fourier_apply_box_pair               :  7201       50.08s   0.194% 555.029 ||
|| basis_copy_function_to_box           : 81762       51.85s   0.200%  ------ ||
|| ngwf_gradient_coeffs                 :    15       60.35s   0.233%  ------ ||
|| pseudo_make_structure_factor         :     2       60.58s   0.234%  ------ ||
|| restart_ngwfs_tightbox_output        :    10       85.58s   0.331%  ------ ||
|| sparse_embed_hotelling_invert_embed  :    28       93.63s   0.362%  ------ ||
|| finite_difference_derivative         :  1827      107.38s   0.415%  ------ ||
|| integrals_kinetic                    :    28      157.95s   0.611%  ------ ||
|| openbc_locps_on_grid                 :     2      195.54s   0.756%  ------ ||
|| projectors_gradient_batch            :   165      200.73s   0.776%  ------ ||
|| fourier_apply_cell_forward           :  1217      228.07s   0.882%  75.690 ||
|| fourier_apply_cell_backward          :  1219      245.28s   0.948%  70.495 ||
|| basis_dot_function_with_box          : 12.72M     252.14s   0.975%  ------ ||
|| sparse_trace                         :  5235      265.53s   1.026%  ------ ||
|| kernel_purify                        :   464      331.34s   1.281%  ------ ||
|| hamiltonian_energy_components        :     4      432.43s   1.672%  ------ ||
|| basis_add_function_to_box            : 26.46M     515.35s   1.992%  ------ ||
|| lnv_gradient_norm                    :   150      543.73s   2.102%  ------ ||
|| xc_energy_potential                  :   304      545.81s   2.110%  ------ ||
|| kernel_fix                           :   150      682.07s   2.637%  ------ ||
|| ngwf_gradient_build_batch            :   165      720.33s   2.784%  ------ ||
|| cell_grid_deposit_box_real           : 51584      859.68s   3.323%  ------ ||
|| integrals_locpot_mat_els_batch       :  1749      925.84s   3.579%  ------ ||
|| cell_grid_extract_box_real           : 47992      960.69s   3.713%  ------ ||
|| ngwf_gradient_batch                  :   165     1009.51s   3.902%  ------ ||
|| ngwf_gradient_lnv                    :    15     1164.05s   4.500%  ------ ||
|| density_batch_row_sums               :  3333     1254.22s   4.848%  ------ ||
|| density_fftbox_deposit_to_cell       : 49692     1481.95s   5.728%  ------ ||
|| sparse_product                       :  6404     2105.97s   8.140%  ------ ||
|| multigrid_prepare_bound_cond         :   304     2378.79s   9.195%  ------ ||
|| potential_apply_to_ngwf_batch        :  1749     3116.96s  12.048%  ------ ||
|| density_fftbox_interpolate_multiply  : 49692     3420.98s  13.224%  ------ ||
|| fourier_apply_box                    : 171.7k    3438.66s  13.292% 934.424 ||
|| integrals_locpot_dbl_grid            :   159     4061.51s  15.699%  ------ ||
|| density_batch_interp_deposit         :  3333     5534.11s  21.392%  ------ ||
|| dl_mg_solver_calls                   :   304     6479.82s  25.047%  ------ ||
|| density_on_dbl_grid                  :   303     7243.57s  28.000%  ------ ||
|| multigrid_calculate_hartree          :   304     9007.25s  34.817%  ------ ||
|| hamiltonian_lhxc_calculate           :   299    16803.89s  64.954%  ------ ||
|| lnv_denskernel_optimise_cg           :    15    22194.72s  85.792%  ------ ||
|| ngwf_cg_optimise                     :     2    25039.30s  96.788%  ------ ||
|| total_time                           :     1    25870.32s 100.000%  ------ ||
================================================================================
Overhead of generating timer report: 
- 0 ms averaging over threads,
- 5 ms ensuring consistency across MPI ranks,
- 2 ms printing in order.

Job completed: 20-06-2020 18:37 (+0100)

