 +---------------------------------------------------------------+
 |                                                               |
 |        ####### #     # ####### ####### ####### ######         |
 |        #     # ##    # #          #    #       #     #        |
 |        #     # # #   # #          #    #       #     #        |
 |        #     # #  #  # #####      #    #####   ######         |
 |        #     # #   # # #          #    #       #              |
 |        #     # #    ## #          #    #       #              |
 |        ####### #     # #######    #    ####### #              |
 |                                                               |
 |        Linear-Scaling Ab Initio Total Energy Program          |
 |                                                               |
 |          Release for academic collaborators of ODG            |
 |                                             Version 5.3.2.6.  |
 |                                                               |
 +---------------------------------------------------------------+
 |                                                               |
 |  Authors:                                                     |
 |  Jacek Dziedzic, Peter D. Haynes, Nicholas D. M. Hine,        |
 |  Arash. A. Mostofi, Mike C. Payne and Chris-Kriton Skylaris   |
 |                                                               |
 |  Contributors:                                                |
 |  J. Aarons, L. Andrinopoulos, P. W. Avraam, R. A. Bell,       |
 |  A. Bhandari, G. A. Bramley, R. J. Charlton, S. J. Clark,     |
 |  R. J. Clements, G. C. Constantinescu, F. Corsetti,           |
 |  N. Corsini, O. Dieguez, S. M. M. Dubois, K. K. B. Duff,      |
 |  J. M. Escartin, A. Greco, H. Helal, Q. O. Hill, L. P. Lee,   |
 |  J.-H. Li, E. B. Linscott, G. Moynihan, D. D. O`Regan,        |
 |  O. K. Okan, M. J. S. Phipps, C. J. Pickard,                  |
 |  J. C. A. Prentice, M. I. J. Probert, L. E. Ratcliff,         |
 |  M. Robinson, A. Ruiz Serrano, J. S. Spencer, E. W. Tait,     |
 |  G. Teobaldi, D. Turban, V. Vitale, K. A. Wilkinson,          |
 |  C. Weber, J. C. Womack, N. Yeung and T. J. Zuehlsdorff       |
 |                                                               |
 |                                   Copyright (c) 2004-2019     |
 |                                                               |
 |  Please cite:                                                 |
 |  "Introducing ONETEP: Linear-scaling density functional       |
 |   simulations on parallel computers".                         |
 |   C.-K. Skylaris, P. D. Haynes, A. A. Mostofi, M. C. Payne.   |
 |   J. Chem. Phys. 122 084119 (2005).                           |
 |                                                               |
 |          in all publications arising from your use of ONETEP. |
 |                                                               |
 +---------------------------------------------------------------+
 |                                                               |
 |   ONETEP is based on developments described in the following  |
 |   publications:                                               |
 |                                                               |
 |  "Nonorthogonal generalized Wannier function pseudopotential  |
 |   plane-wave method".                                         |
 |   C.-K. Skylaris, A. A. Mostofi, P. D. Haynes, O. Dieguez,    |
 |   M. C. Payne.                                                |
 |   Phys. Rev. B 66 035119 (2002).                              |
 |                                                               |
 |  "Preconditioned iterative minimization for linear-scaling    |
 |   electronic structure calculations".                         |
 |   A. A. Mostofi, P. D. Haynes, C.-K. Skylaris, M. C. Payne.   |
 |   J. Chem. Phys. 119(17), pp.8842-8848 (2003).                |
 |                                                               |
 |  "Total-energy calculations on a real space grid with         |
 |   localized functions and a plane-wave basis".                |
 |   A. A. Mostofi, C.-K. Skylaris, P. D. Haynes, M. C. Payne.   |
 |   Comput. Phys. Commun. 147, pp.788-802 (2002).               |
 |                                                               |
 |  "Accurate kinetic energy evaluation in electronic structure  |
 |   calculations with localized functions on real space grids"  |
 |   C.-K. Skylaris, A. A. Mostofi, P. D. Haynes, C. J. Pickard, |
 |   M. C. Payne.                                                |
 |   Comput. Phys. Commun. 140, pp.315-322 (2001).               |
 |                                                               |
 |  "Accurate ionic forces and geometry optimization in linear-  |
 |   scaling density-functional theory with local orbitals"      |
 |   N. D. M. Hine, M. Robinson, P. D. Haynes, C.-K. Skylaris,   |
 |   M. C. Payne, and A. A. Mostofi.                             |
 |   Phys. Rev. B 83 195102 (2011).                              |
 |                                                               |
 +---------------------------------------------------------------+

Job started: 05-06-2020 20:45 (+0100)
 
Reading parameters from file "complex_12641.dat" ...... done

If your calculation crashes here, before "Checking processes and threads..."
is displayed, then your stack size is insufficient.
If so, use "ulimit -s unlimited" at runtime.
You can disable this check with "check_stack_size F".

Checking processes and threads...
   Determining the default number of threads...
      No default threads set at compilation time: defaulting to 1.
      OpenMP library call suggests 4 threads.
      Hybrid MPI-OpenMP compilation detected.
      Number of MPI processes > 1.
      OMP_NUM_THREADS environment variable present and
      its value matches the one obtained from the OpenMP library call.
      Using this value as default.
      Default threads: 4
      Default applies to threads_max and threads_num_fftboxes.
      Settings in the input file override this default.
   ... done

   Running with 40 MPI processes.
   There are 10 MPI processes running on the same node as the root process.
   Each MPI process is using: 
               1 threads for simulation cell FFTs.
               1 threads for parallel FFT box operations.
               4 threads for loops over batched FFT box operations.
               4 threads in other parallel regions.
... done

Basic input checks...... done

Reading geometry and species blocks from file "complex_12641.dat" ...
  <species_atomic_set> block not found: NGWF initialisation set to SOLVE
IS: Dielectric excluded regions:
    - NONE.
    
  Number of PPD points along a3 set to 1.  This is 
  the default value, it may have been provided also in the input file.
... done
 Writing xyz coordinates to file "complex_12641.xyz" ... done


--------------------------------------------------------------------------------
---------------------------------- INPUT FILE ----------------------------------
--------------------------------------------------------------------------------

cutoff_energy       : 800 eV                                                    
xc_functional PBE                                                               
task SINGLEPOINT                                                                
write_xyz true                                                                  
output_detail VERBOSE                                                           
ngwf_threshold_orig : 0.000002                                                  
kernel_cutoff       : 1000                                                      
k_zero              : 3.5                                                       
elec_cg_max 0                                                                   
occ_mix 1.0                                                                     
dispersion 1                                                                    
maxit_ngwf_cg 40                                                                
minit_lnv 10                                                                    
maxit_lnv 10                                                                    
write_denskern F                                                                
write_tightbox_ngwfs F                                                          
charge 9                                                                        
is_implicit_solvent T                                                           
is_auto_solvation T                                                             
is_include_apolar T                                                             
is_smeared_ion_rep T                                                            
is_solvent_surf_tension 4.7624E-5 Ha/bohr**2                                    
is_apolar_scaling_factor 0.281075                                               
is_solvation_beta 1.3                                                           
is_density_threshold 0.00035                                                    
is_bulk_permittivity 78.54                                                      
is_dielectric_model fix_initial                                                 
is_smeared_ion_width 0.8                                                        
mg_defco_fd_order 8                                                             
is_bc_coarseness 10                                                             
is_bc_surface_coarseness 1                                                      
fine_grid_scale 2.0                                                             
%block species                                                                  
N   N   7 4 8.0                                                                 
H   H   1 1 8.0                                                                 
C   C   6 4 8.0                                                                 
S   S  16 9 8.0                                                                 
O   O   8 4 8.0                                                                 
%endblock species                                                               
%block species_pot                                                              
N   N_00.recpot                                                                 
H   H_04.recpot                                                                 
C   C_01.recpot                                                                 
S   S_00.recpot                                                                 
O   O_02.recpot                                                                 
%endblock species_pot                                                           
%block lattice_cart                                                             
140.777   0.000   0.000                                                         
0.000 144.511   0.000                                                           
0.000   0.000   162.462                                                         
%endblock lattice_cart                                                          
%block positions_abs                                                            
     Hash =   000005748897492080649072
%endblock positions_abs                                                         

--------------------------------------------------------------------------------
-------------------------------- END INPUT FILE --------------------------------
--------------------------------------------------------------------------------


 
 ESDF WARNING(1): "kernelcutoff" (esdf_physical) has no units. Assume "bohr".
 ESDF WARNING(2): "kzero" (esdf_physical) has no units. Assume "1/bohr".
 ESDF WARNING(3
 ): "issmearedionwidth" (esdf_physical) has no units. Assume "bohr".
<<<<<<<<<<<<<<<<<<<<<<<<<<<<<<<<< Full system >>>>>>>>>>>>>>>>>>>>>>>>>>>>>>>>>>
<<<<<<<<<<<<<<<<<<<<<<<<< Pseudopotential information >>>>>>>>>>>>>>>>>>>>>>>>>>
File: N_00.recpot [ 2001 points up to Gmax=  52.9 (1/bohr)]
  Atomic number:  7;  ionic charge:  5.000000
    Shell 1: l = 0; rc = 1.48 bohr
File: H_04.recpot [ 2001 points up to Gmax=  52.9 (1/bohr)]
  Atomic number:  1;  ionic charge:  1.000000
    Local potential
File: C_01.recpot [ 2001 points up to Gmax=  52.9 (1/bohr)]
  Atomic number:  6;  ionic charge:  4.000000
    Shell 1: l = 0; rc = 1.48 bohr
File: S_00.recpot [ 2001 points up to Gmax=  52.9 (1/bohr)]
  Atomic number: 16;  ionic charge:  6.000000
    Shell 1: l = 0; rc = 1.90 bohr
    Shell 2: l = 2; rc = 1.84 bohr
File: O_02.recpot [ 2001 points up to Gmax=  52.9 (1/bohr)]
  Atomic number:  8;  ionic charge:  6.000000
    Shell 1: l = 0; rc = 1.31 bohr
<<<<<<<<<<<<<<<<<<<<<<<<<<<<<<<<<<<<<<<<>>>>>>>>>>>>>>>>>>>>>>>>>>>>>>>>>>>>>>>>

-------------------------- Atom counting information ---------------------------
Symbol    Natoms    Nngwfs    Nprojs
  N        236       944       236
  H       1319      1319         0
  C        817      3268       817
  S          6        54        36
  O        239       956       239
.......   ......    ......    ......
Totals:   2617      6541      1328
--------------------------------------------------------------------------------

=============================== PSINC grid sizes ===============================
                      Simulation cell:  280 x 286 x 320
                              FFT-box:   99 x  99 x  99
                                  PPD:    5 x  11 x   1
Grid space d1=  0.502775000000a0 (KE cutoff=  30.05084Eh = 817.72503eV)
Grid space d2=  0.505283216783a0 (KE cutoff=  29.75324Eh = 809.62684eV)
Grid space d3=  0.507693750000a0 (KE cutoff=  29.47137Eh = 801.95686eV)
================================================================================

********************* Fourier parallelisation information **********************
       Coarse grid (whole simulation cell) dimensions:    280   286   320
          Real-space ('12') slabs/node (min max mean):      8     8     8
         Recip-space ('23') slabs/node (min max mean):      3     4     3
********************************************************************************

********************* Fourier parallelisation information **********************
       Double grid (whole simulation cell) dimensions:    560   572   640
          Real-space ('12') slabs/node (min max mean):     16    16    16
         Recip-space ('23') slabs/node (min max mean):      7     8     7
********************************************************************************
ONETEP fine grid is 560 x 572 x 640 gridpoints, 140.7770 x 144.5110 x 162.4620 bohr.
FD multigrid is     553 x 569 x 633 gridpoints, 139.0173 x 143.7531 x 160.6851 bohr.


Calculating local pseudopotential in open BC on a radial grid ...
Discrepancy between calculated realspace psloc and -Z/x on [5a0,259.028a0]:
max |rel. diff| # avg |rel. diff| #  avg rel. diff #  f # pseudopotential file
 0.000261578119    0.000004844123   0.000000072210   55  'N_00.recpot'
 0.000419583258    0.000017514079  -0.000000069370   55  'H_04.recpot'
 0.000363553651    0.000016734795   0.000000141192   55  'C_01.recpot'
 0.000449990737    0.000019382085   0.000000449342   55  'S_00.recpot'
 0.000706973137    0.000028359832   0.000000146371   55  'O_02.recpot'
... done

Atom SCF Calculation for N  : Z (AE atom) =   7 : Z (PS atom) =   5
Config String:
Orbitals (num,occ):  2     2.00 3.00
Orbitals   (num,l):  2        0    1
Real-space Grid (nr,dr,rmax): 1203    0.0066555740    8.0000000000
Spherical Bessel Basis (nsws,lmax,cutoff):   47    1  176.3951722778
Confining potential (l,width,scale):  0    3.0000000000  100.0000000000
Confining potential (l,width,scale):  1    3.0000000000  100.0000000000
  1         -4.7312375307   -3.4155304497    7.0523828109   -1.9351020946
  2         -9.7309464766   -2.0532547791    8.2966052865   -2.2494486027
  3         -9.6627394379   -2.1124926340    8.2327997121   -2.2369778124
  4         -9.6814993499   -2.1215521045    8.2229805960   -2.2365178421
  5         -9.6843326483   -2.1250939529    8.2191374534   -2.2362718126
  6         -9.6859628709   -2.1267894855    8.2172963573   -2.2362066344
  7         -9.6867347035   -2.1276425665    8.2163697352   -2.2361903369
  8         -9.6870802100   -2.1280764625    8.2158983890   -2.2361891460
  9         -9.6872290423   -2.1282977424    8.2156580222   -2.2361920435
 10         -9.6872901988   -2.1284107021    8.2155353368   -2.2361953393
 11         -9.6873135296   -2.1284684031    8.2154726809   -2.2361979819
 12         -9.6873212476   -2.1284978948    8.2154406648   -2.2361998431
 13         -9.6873229586   -2.1285129774    8.2154242957   -2.2362010676
 14         -9.6873226456   -2.1285206957    8.2154159216   -2.2362018403
 15         -9.6873218534   -2.1285246479    8.2154116349   -2.2362023142
 16         -9.6873212599   -2.1285262679    8.2154098784   -2.2362025420
 17         -9.6873207834   -2.1285272564    8.2154088068   -2.2362026955
 18         -9.6873204210   -2.1285278597    8.2154081529   -2.2362027982
 19         -9.6873201550   -2.1285282280    8.2154077538   -2.2362028667
 20         -9.6873199645   -2.1285284529    8.2154075102   -2.2362029121
 21         -9.6873198305   -2.1285285903    8.2154073614   -2.2362029421
 22         -9.6873197377   -2.1285286742    8.2154072705   -2.2362029618
Atom SCF converged after  22 iterations to a total energy of     -9.68731974

Atom SCF Calculation for H  : Z (AE atom) =   1 : Z (PS atom) =   1
Config String:
Orbitals (num,occ):  1     1.00
Orbitals   (num,l):  1        0
Real-space Grid (nr,dr,rmax): 1203    0.0066555740    8.0000000000
Spherical Bessel Basis (nsws,lmax,cutoff):   47    0  176.3951722778
Confining potential (l,width,scale):  0    3.0000000000  100.0000000000
  1         -0.3194257691   -0.2393854593    0.2820953124   -0.2424203209
  2         -0.3951823392   -0.2377116493    0.2886404059   -0.2475147891
  3         -0.4317044583   -0.2352244387    0.2921333887   -0.2514046172
  4         -0.4470703708   -0.2341892222    0.2934391879   -0.2531009782
  5         -0.4532132900   -0.2338556667    0.2938388426   -0.2537313520
  6         -0.4556579251   -0.2337612552    0.2939448584   -0.2539550462
  7         -0.4566418315   -0.2337377355    0.2939680120   -0.2540342273
  8         -0.4570437922   -0.2337331116    0.2939708287   -0.2540627372
  9         -0.4572102946   -0.2337328328    0.2939698291   -0.2540732650
 10         -0.4572800424   -0.2337332404    0.2939687193   -0.2540772588
 11         -0.4573095100   -0.2337335791    0.2939680317   -0.2540788122
 12         -0.4573220379   -0.2337337762    0.2939676699   -0.2540794294
 13         -0.4573273880   -0.2337338775    0.2939674931   -0.2540796787
 14         -0.4573296803   -0.2337339266    0.2939674099   -0.2540797808
 15         -0.4573306647   -0.2337339495    0.2939673718   -0.2540798230
 16         -0.4573310882   -0.2337339601    0.2939673545   -0.2540798406
 17         -0.4573312706   -0.2337339649    0.2939673467   -0.2540798479
 18         -0.4573313493   -0.2337339670    0.2939673433   -0.2540798510
Atom SCF converged after  18 iterations to a total energy of     -0.45733135

Atom SCF Calculation for C  : Z (AE atom) =   6 : Z (PS atom) =   4
Config String:
Orbitals (num,occ):  2     2.00 2.00
Orbitals   (num,l):  2        0    1
Real-space Grid (nr,dr,rmax): 1203    0.0066555740    8.0000000000
Spherical Bessel Basis (nsws,lmax,cutoff):   47    1  176.3951722778
Confining potential (l,width,scale):  0    3.0000000000  100.0000000000
Confining potential (l,width,scale):  1    3.0000000000  100.0000000000
  1         -5.2976922011   -1.3069684169    4.5135249990   -1.4493313817
  2         -5.3721716256   -1.3429755895    4.4750154450   -1.4361613026
  3         -5.3809959565   -1.3617365618    4.4541655428   -1.4305930207
  4         -5.3918938866   -1.3667928461    4.4484735100   -1.4294652294
  5         -5.3956096428   -1.3688539142    4.4461376126   -1.4290734646
  6         -5.3968271862   -1.3696852393    4.4451910874   -1.4289366866
  7         -5.3972028401   -1.3700178062    4.4448112275   -1.4288900460
  8         -5.3973067903   -1.3701500158    4.4446598370   -1.4288749220
  9         -5.3973286940   -1.3702023868    4.4445997329   -1.4288704293
 10         -5.3973289850   -1.3702230869    4.4445759233   -1.4288693188
 11         -5.3973254264   -1.3702312560    4.4445665049   -1.4288691775
 12         -5.3973224003   -1.3702344755    4.4445627836   -1.4288692549
 13         -5.3973208708   -1.3702354890    4.4445616088   -1.4288693270
 14         -5.3973198783   -1.3702360102    4.4445610034   -1.4288693814
 15         -5.3973192535   -1.3702362780    4.4445606917   -1.4288694190
 16         -5.3973188684   -1.3702364155    4.4445605313   -1.4288694437
 17         -5.3973186349   -1.3702364860    4.4445604489   -1.4288694595
 18         -5.3973184951   -1.3702365221    4.4445604065   -1.4288694693
 19         -5.3973184122   -1.3702365405    4.4445603848   -1.4288694753
Atom SCF converged after  19 iterations to a total energy of     -5.39731841

Atom SCF Calculation for S  : Z (AE atom) =  16 : Z (PS atom) =   6
Config String:
Orbitals (num,occ):  3     2.00 4.00 0.00
Orbitals   (num,l):  3        0    1    2
Real-space Grid (nr,dr,rmax): 1203    0.0066555740    8.0000000000
Spherical Bessel Basis (nsws,lmax,cutoff):   47    2  176.3951722778
Confining potential (l,width,scale):  0    3.0000000000  100.0000000000
Confining potential (l,width,scale):  1    3.0000000000  100.0000000000
Confining potential (l,width,scale):  2    3.0000000000  100.0000000000
  1        -12.4735062396   -1.0328741412   10.1554312477   -2.4512393157
  2         -9.9458301913   -2.4607392455    8.3041325857   -2.0306994528
  3        -10.1450417646   -2.2931184565    8.4831893826   -2.0812538287
  4        -10.1528335592   -2.2733105793    8.5050388867   -2.0896035179
  5        -10.1571940363   -2.2633716629    8.5160794258   -2.0939370707
  6        -10.1594380571   -2.2584938667    8.5215163935   -2.0961289008
  7        -10.1605856507   -2.2561081821    8.5241804044   -2.0972291378
  8        -10.1611799191   -2.2549395235    8.5254868240   -2.0977806248
  9        -10.1614918752   -2.2543658586    8.5261285885   -2.0980571586
 10        -10.1616572884   -2.2540839121    8.5264441898   -2.0981959233
 11        -10.1617455602   -2.2539453058    8.5265994231   -2.0982656006
 12        -10.1617928447   -2.2538772062    8.5266757320   -2.0983006047
 13        -10.1618182292   -2.2538437891    8.5267131983   -2.0983181961
 14        -10.1618318741   -2.2538274201    8.5267315620   -2.0983270391
 15        -10.1618392144   -2.2538194197    8.5267405433   -2.0983314852
 16        -10.1618431651   -2.2538155200    8.5267449245   -2.0983337210
 17        -10.1618452923   -2.2538136252    8.5267470551   -2.0983348455
 18        -10.1618464380   -2.2538127080    8.5267480875   -2.0983354110
 19        -10.1618470552   -2.2538122659    8.5267485856   -2.0983356955
 20        -10.1618473878   -2.2538120540    8.5267488248   -2.0983358386
 21        -10.1618475670   -2.2538119530    8.5267489389   -2.0983359106
 22        -10.1618476637   -2.2538119053    8.5267489929   -2.0983359468
Atom SCF converged after  22 iterations to a total energy of    -10.16184766

Atom SCF Calculation for O  : Z (AE atom) =   8 : Z (PS atom) =   6
Config String:
Orbitals (num,occ):  2     2.00 4.00
Orbitals   (num,l):  2        0    1
Real-space Grid (nr,dr,rmax): 1203    0.0066555740    8.0000000000
Spherical Bessel Basis (nsws,lmax,cutoff):   47    1  176.3951722778
Confining potential (l,width,scale):  0    3.0000000000  100.0000000000
Confining potential (l,width,scale):  1    3.0000000000  100.0000000000
  1         -1.8735052164   -7.5539365035   10.1554312477   -2.4512393157
  2        -16.0318313751   -3.1285771268   13.6395848164   -3.2358799643
  3        -15.9524020423   -3.0762819706   13.6967272503   -3.2536856837
  4        -15.8521515939   -3.0781493909   13.6951909330   -3.2561700440
  5        -15.8357139793   -3.0748501933   13.6988803334   -3.2580493133
  6        -15.8246052853   -3.0740779781   13.6997881576   -3.2588327446
  7        -15.8189019501   -3.0737449687   13.7001869911   -3.2592378801
  8        -15.8159785510   -3.0736026016   13.7003615168   -3.2594475790
  9        -15.8144776168   -3.0735437994   13.7004360379   -3.2595560735
 10        -15.8137058024   -3.0735207882   13.7004667348   -3.2596122456
 11        -15.8133083127   -3.0735125946   13.7004786868   -3.2596413656
 12        -15.8131032938   -3.0735102195   13.7004828997   -3.2596564858
 13        -15.8129973902   -3.0735099286   13.7004840891   -3.2596643505
 14        -15.8129426040   -3.0735102506   13.7004842061   -3.2596684489
 15        -15.8129142203   -3.0735106556   13.7004840157   -3.2596705887
 16        -15.8128994940   -3.0735109855   13.7004837906   -3.2596717080
 17        -15.8128918425   -3.0735112169   13.7004836103   -3.2596722946
 18        -15.8128878614   -3.0735113674   13.7004834848   -3.2596726026
 19        -15.8128857871   -3.0735114608   13.7004834035   -3.2596727646
 20        -15.8128847048   -3.0735115170   13.7004833533   -3.2596728500
 21        -15.8128841394   -3.0735115501   13.7004833231   -3.2596728951
 22        -15.8128838436   -3.0735115693   13.7004833054   -3.2596729190
 23        -15.8128836887   -3.0735115802   13.7004832951   -3.2596729316
 24        -15.8128836074   -3.0735115864   13.7004832893   -3.2596729383
Atom SCF converged after  24 iterations to a total energy of    -15.81288361

========================== Calculation in vacuum ==============================
= Adjusting the following parameters: 
= is_implicit_solvent: F
= is_include_apolar: F
= write_denskern: T
= write_tightbox_ngwfs: T
= restart read filename prefix: ""
= restart write filename prefix: "vacuum_"
===============================================================================

Determining parallel strategy ...
... using space-filling curve
... NGWF load balancing: max    164;  min    163;  average    164
... Projector load balancing: max     36;  min     32;  average     33
... done
Calculating direct Ion-Ion energy ...
Ion-Ion Energy        :    832309.16340821306221
======================= Empirical dispersion information =======================
Model : Elstner
Dispersion Correction Energy: -0.32896332E+01 Hartree
================================================================================
Basis initialisation ...... NGWF spheres initialised
... Projector spheres initialised
... NGWF tight boxes initialised
... Tight-boxes gathered
... NGWF basis size (local,global):    1269396  50907175
... Nonlocal pseudopotential projector initialisation
... done

========================== Sparse matrix information ===========================
                        Overlap matrix filling:   6.71%
                        Density kernel filling: 100.00%
              NGWF-Proj overlap matrix filling:   1.76%
                    Hamiltonian matrix filling:   7.58%
                  NGWF diagonal matrix filling:   0.05%
                             KS matrix filling: 100.00% 
                           KSKS matrix filling: 100.00% 
================================================================================

Sparse matrix initialisation ... done

Generating smeared ion density ... done
Smeared ion self correction:     -14517.010906
Smeared ion non-self correction: -832260.880552
NGWF initialisation ...... done
============ Calculation of NGWF S^-1 using Hotelling algorithm ================ 
         Iteration  |  Frobenius norm and Maximum abs value    (of I-S*S_n^-1)   
               1       0.78699182E+02     0.98253869E+00
               2       0.76844815E+02     0.96552216E+00
               3       0.73841712E+02     0.93274945E+00
               4       0.69572034E+02     0.87199103E+00
               5       0.64252038E+02     0.76848967E+00
               6       0.58271961E+02     0.70321831E+00
               7       0.52258187E+02     0.66954826E+00
               8       0.46699966E+02     0.64322769E+00
               9       0.40625439E+02     0.60281405E+00
              10       0.32352255E+02     0.53483933E+00
              11       0.21768538E+02     0.42470383E+00
              12       0.11143357E+02     0.27510240E+00
              13       0.36815581E+01     0.12342226E+00
              14       0.58312176E+00     0.29444293E-01
              15       0.27685798E-01     0.21406924E-02
              16       0.14483420E-03     0.15052050E-04
              17       0.64836366E-08     0.92103880E-09
              18       0.93901460E-13     0.57731597E-14
================================================================================
Calculating local pseudopotential in open BC on the fine real space grid ...
... done

MG BCs: +ve charge blocks (gridpoints):     20618 (   16152407).
MG BCs: -ve charge blocks (gridpoints):      7980 (    1079473).
MG BCs:     Elided blocks (gridpoints):    183670 (  181946001).
MG BCs: Computational effort saved:  99.9856%.
MG BCs: Charge after coarse-graining:           -9.0002306.
MG DL_MG: Calling solver with defect correction order = 8
MG DL_MG: Solver finished
MG Hartree energy from (\int phi*rho dr):              1471.461896
MG Hartree energy from (\int eps (grad phi)^2 dr):     1470.848585
MG Discrepancy due to finite box and discretization:     -0.613311 (  -0.04168%)
MG Correction to account for finite box:                  0.458935
MG Remaining discrepancy, due to discretization:         -0.154377 (  -0.01049%)
Up spin density kernel initialisation ... 
======= Optimisation of K by Palser-Manolopoulos canonical purification ======== 
         Iteration  |  Band structure energy |    c_n   
               1       -2587.56058621442571    0.5270224
               2       -2764.23022093409782    0.5171607
               3       -2945.57866806784432    0.5153692
               4       -3097.31477647586917    0.5286046
               5       -3190.96598944769039    0.5640121
               6       -3230.31863091600735    0.6094842
               7       -3243.66308533392385    0.6233579
               8       -3249.39365293862465    0.6237844
               9       -3252.17521824758023    0.6400112
              10       -3253.34529251216236    0.6719427
              11       -3253.79916302860511    0.6929106
              12       -3254.00034270620290    0.6827813
              13       -3254.11353812079324    0.6397627
              14       -3254.18570249932964    0.5580333
              15       -3254.23076439938632    0.4588072
              16       -3254.24372452744001    0.4235452
              17       -3254.24473948903278    0.4297750
              18       -3254.24544837212670    0.4112953
              19       -3254.24580026693729    0.4112295
              20       -3254.24595212808663    0.4475845
              21       -3254.24605250755030    0.4832001
              22       -3254.24612207715927    0.4982972
              23       -3254.24618302921681    0.4999827
              24       -3254.24624333812380    0.5000000
              25       -3254.24628359118833    0.5000000
              26       -3254.24629503534106    0.5000000
              27       -3254.24629571127662    0.5000006
              28       -3254.24629571342484    0.5000006
Termination criterion satisfied: band energy change below threshold.
Final occupancy bounds: [    0.00000000000000:    1.00000000000000]
Closest occupancy to 0.5:     1.00000000000000
================================================================================
... done

Writing density kernel to file "complex_12641.vacuum_dkn" ... done

>>> Optimising kernel for current NGWFs:
   Initial electron number for spin 1:    7228.00000000
     Final electron number for spin 1:    7228.00000000

=================== Penalty functional idempotency correction ==================
 RMS occupancy error at iteration   1:  0.000000 (step -0.5000 Ne1=   7228.0000)
            Final RMS occupancy error   :  0.000000 (Ne1=   7228.0000)
               Final occupancy bounds   : [  0.0000,  1.0000]
================================================================================

................................................................................
<<<<<<<<<<<<<< LNV (Original version) density kernel optimisation >>>>>>>>>>>>>>
~~~~~~~~~~~~~~~~~~~~~~~~~~~~~~~~~~~~~~~~~~~~~~~~~~~~~~~~~~~~~~~~~~~~~~~~~~~~~~~~
   iter  |      energy (Eh)       | rms gradient |  commutator  |   dE (Eh)
MG BCs: +ve charge blocks (gridpoints):     30988 (   17327376).
MG BCs: -ve charge blocks (gridpoints):      8280 (    1113162).
MG BCs:     Elided blocks (gridpoints):    173288 (  180737343).
MG BCs: Computational effort saved:  99.9803%.
MG BCs: Charge after coarse-graining:           -9.0009443.
MG DL_MG: Calling solver with defect correction order = 8
MG DL_MG: Solver finished
MG Hartree energy from (\int phi*rho dr):              1426.947435
MG Hartree energy from (\int eps (grad phi)^2 dr):     1426.278984
MG Discrepancy due to finite box and discretization:     -0.668451 (  -0.04684%)
MG Correction to account for finite box:                  0.470462
MG Remaining discrepancy, due to discretization:         -0.197989 (  -0.01387%)
      ideal mu1:      -0.696651845480
             Q0:  -11550.164252102026
             G0:    -145.131060929736
   RMS gradient:       0.001841772720
MG BCs: +ve charge blocks (gridpoints):     30951 (   17413972).
MG BCs: -ve charge blocks (gridpoints):      8190 (    1092660).
MG BCs:     Elided blocks (gridpoints):    173322 (  180671249).
MG BCs: Computational effort saved:  99.9803%.
MG BCs: Charge after coarse-graining:           -9.0009646.
MG DL_MG: Calling solver with defect correction order = 8
MG DL_MG: Solver finished
MG Hartree energy from (\int phi*rho dr):              1451.794138
MG Hartree energy from (\int eps (grad phi)^2 dr):     1451.143806
MG Discrepancy due to finite box and discretization:     -0.650332 (  -0.04480%)
MG Correction to account for finite box:                  0.468380
MG Remaining discrepancy, due to discretization:         -0.181952 (  -0.01253%)
     Trial step:       0.500000000000
             Q1:  -11561.785866360646
 Quadratic coef:      60.943916206248
 Linear coef   :     -72.565530464868
           Qmin:  -11571.765080123263
Quadratic minimum step length (  0.297673397863) accepted
    Initial Ne1:    7228.00000000
      Final Ne1:    7228.00000000

=================== Penalty functional idempotency correction ==================
 RMS occupancy error at iteration   1:  0.003419 (step -0.4884 Ne1=   7228.0000)
 RMS occupancy error at iteration   2:  0.000027 (step -0.5001 Ne1=   7228.0000)
            Final RMS occupancy error   :  0.000000 (Ne1=   7228.0000)
               Final occupancy bounds   : [  0.0000,  1.0000]
================================================================================

    1        -1.155016425210E+04     1.8418E-03     1.6667E-03
MG BCs: +ve charge blocks (gridpoints):     30970 (   17380759).
MG BCs: -ve charge blocks (gridpoints):      8224 (    1101419).
MG BCs:     Elided blocks (gridpoints):    173304 (  180695703).
MG BCs: Computational effort saved:  99.9803%.
MG BCs: Charge after coarse-graining:           -9.0009561.
MG DL_MG: Calling solver with defect correction order = 8
MG DL_MG: Solver finished
MG Hartree energy from (\int phi*rho dr):              1433.794066
MG Hartree energy from (\int eps (grad phi)^2 dr):     1433.137369
MG Discrepancy due to finite box and discretization:     -0.656697 (  -0.04580%)
MG Correction to account for finite box:                  0.469111
MG Remaining discrepancy, due to discretization:         -0.187586 (  -0.01308%)
      ideal mu1:      -0.742790906945
             Q0:  -11572.170829935232
             G0:     -12.313455325384
   RMS gradient:       0.000532843404
MG BCs: +ve charge blocks (gridpoints):     30974 (   17398504).
MG BCs: -ve charge blocks (gridpoints):      8209 (    1096016).
MG BCs:     Elided blocks (gridpoints):    173299 (  180683361).
MG BCs: Computational effort saved:  99.9803%.
MG BCs: Charge after coarse-graining:           -9.0009597.
MG DL_MG: Calling solver with defect correction order = 8
MG DL_MG: Solver finished
MG Hartree energy from (\int phi*rho dr):              1438.977912
MG Hartree energy from (\int eps (grad phi)^2 dr):     1438.325465
MG Discrepancy due to finite box and discretization:     -0.652447 (  -0.04534%)
MG Correction to account for finite box:                  0.468097
MG Remaining discrepancy, due to discretization:         -0.184350 (  -0.01281%)
     Trial step:       0.385793596281
             Q1:  -11575.053022494307
 Quadratic coef:       1.868259653555
 Linear coef   :      -4.750452212630
           Qmin:  -11575.190591693394
Quadratic minimum step length (  0.490481620043) accepted
    Initial Ne1:    7227.99989237
      Final Ne1:    7228.00000000

=================== Penalty functional idempotency correction ==================
 RMS occupancy error at iteration   1:  0.001830 (step -0.4929 Ne1=   7228.0000)
 RMS occupancy error at iteration   2:  0.000012 (step -0.5002 Ne1=   7228.0000)
            Final RMS occupancy error   :  0.000000 (Ne1=   7228.0000)
               Final occupancy bounds   : [  0.0000,  1.0000]
================================================================================

    2        -1.157217082994E+04     5.3284E-04     4.8220E-04    -2.2007E+01
MG BCs: +ve charge blocks (gridpoints):     30969 (   17403299).
MG BCs: -ve charge blocks (gridpoints):      8207 (    1094601).
MG BCs:     Elided blocks (gridpoints):    173304 (  180679981).
MG BCs: Computational effort saved:  99.9803%.
MG BCs: Charge after coarse-graining:           -9.0009607.
MG DL_MG: Calling solver with defect correction order = 8
MG DL_MG: Solver finished
MG Hartree energy from (\int phi*rho dr):              1440.434863
MG Hartree energy from (\int eps (grad phi)^2 dr):     1439.783494
MG Discrepancy due to finite box and discretization:     -0.651368 (  -0.04522%)
MG Correction to account for finite box:                  0.467838
MG Remaining discrepancy, due to discretization:         -0.183531 (  -0.01274%)
      ideal mu1:      -0.767907821866
             Q0:  -11575.228678174550
             G0:      -1.948384561636
   RMS gradient:       0.000212020929
MG BCs: +ve charge blocks (gridpoints):     30973 (   17402736).
MG BCs: -ve charge blocks (gridpoints):      8218 (    1095552).
MG BCs:     Elided blocks (gridpoints):    173301 (  180679593).
MG BCs: Computational effort saved:  99.9803%.
MG BCs: Charge after coarse-graining:           -9.0009603.
MG DL_MG: Calling solver with defect correction order = 8
MG DL_MG: Solver finished
MG Hartree energy from (\int phi*rho dr):              1438.227081
MG Hartree energy from (\int eps (grad phi)^2 dr):     1437.576190
MG Discrepancy due to finite box and discretization:     -0.650891 (  -0.04526%)
MG Correction to account for finite box:                  0.467562
MG Remaining discrepancy, due to discretization:         -0.183329 (  -0.01275%)
     Trial step:       0.434999618513
             Q1:  -11575.728364257724
 Quadratic coef:       0.347860457854
 Linear coef   :      -0.847546541028
           Qmin:  -11575.744930541692
Quadratic minimum step length (  0.529928616051) accepted
    Initial Ne1:    7227.99992190
      Final Ne1:    7228.00000000

=================== Penalty functional idempotency correction ==================
 RMS occupancy error at iteration   1:  0.000655 (step -0.4964 Ne1=   7228.0000)
 RMS occupancy error at iteration   2:  0.000005 (step -0.5000 Ne1=   7228.0000)
            Final RMS occupancy error   :  0.000000 (Ne1=   7228.0000)
               Final occupancy bounds   : [  0.0000,  1.0000]
================================================================================

    3        -1.157522867817E+04     2.1202E-04     1.9187E-04    -3.0578E+00
MG BCs: +ve charge blocks (gridpoints):     30974 (   17402564).
MG BCs: -ve charge blocks (gridpoints):      8216 (    1095800).
MG BCs:     Elided blocks (gridpoints):    173300 (  180679517).
MG BCs: Computational effort saved:  99.9803%.
MG BCs: Charge after coarse-graining:           -9.0009602.
MG DL_MG: Calling solver with defect correction order = 8
MG DL_MG: Solver finished
MG Hartree energy from (\int phi*rho dr):              1437.755130
MG Hartree energy from (\int eps (grad phi)^2 dr):     1437.104333
MG Discrepancy due to finite box and discretization:     -0.650798 (  -0.04526%)
MG Correction to account for finite box:                  0.467503
MG Remaining discrepancy, due to discretization:         -0.183295 (  -0.01275%)
      ideal mu1:      -0.768436201410
             Q0:  -11575.749758956488
             G0:      -0.522271600518
   RMS gradient:       0.000109925369
MG BCs: +ve charge blocks (gridpoints):     30977 (   17403587).
MG BCs: -ve charge blocks (gridpoints):      8218 (    1095540).
MG BCs:     Elided blocks (gridpoints):    173297 (  180678754).
MG BCs: Computational effort saved:  99.9803%.
MG BCs: Charge after coarse-graining:           -9.0009604.
MG DL_MG: Calling solver with defect correction order = 8
MG DL_MG: Solver finished
MG Hartree energy from (\int phi*rho dr):              1439.047628
MG Hartree energy from (\int eps (grad phi)^2 dr):     1438.396833
MG Discrepancy due to finite box and discretization:     -0.650795 (  -0.04522%)
MG Correction to account for finite box:                  0.467407
MG Remaining discrepancy, due to discretization:         -0.183388 (  -0.01274%)
     Trial step:       0.480123677630
             Q1:  -11575.882234299788
 Quadratic coef:       0.118279618262
 Linear coef   :      -0.250754961563
           Qmin:  -11575.882660236675
Quadratic minimum step length (  0.508935504268) accepted
    Initial Ne1:    7227.99997994
      Final Ne1:    7228.00000000

=================== Penalty functional idempotency correction ==================
 RMS occupancy error at iteration   1:  0.000334 (step -0.4916 Ne1=   7228.0000)
 RMS occupancy error at iteration   2:  0.000006 (step -0.5002 Ne1=   7228.0000)
            Final RMS occupancy error   :  0.000000 (Ne1=   7228.0000)
               Final occupancy bounds   : [  0.0000,  1.0000]
================================================================================

    4        -1.157574975896E+04     1.0993E-04     9.9477E-05    -5.2108E-01
MG BCs: +ve charge blocks (gridpoints):     30977 (   17403649).
MG BCs: -ve charge blocks (gridpoints):      8218 (    1095539).
MG BCs:     Elided blocks (gridpoints):    173297 (  180678693).
MG BCs: Computational effort saved:  99.9803%.
MG BCs: Charge after coarse-graining:           -9.0009604.
MG DL_MG: Calling solver with defect correction order = 8
MG DL_MG: Solver finished
MG Hartree energy from (\int phi*rho dr):              1439.125982
MG Hartree energy from (\int eps (grad phi)^2 dr):     1438.475186
MG Discrepancy due to finite box and discretization:     -0.650796 (  -0.04522%)
MG Correction to account for finite box:                  0.467401
MG Remaining discrepancy, due to discretization:         -0.183395 (  -0.01274%)
      ideal mu1:      -0.768646037619
             Q0:  -11575.883258832619
             G0:      -0.217030121022
   RMS gradient:       0.000071086731
MG BCs: +ve charge blocks (gridpoints):     30980 (   17403946).
MG BCs: -ve charge blocks (gridpoints):      8215 (    1095322).
MG BCs:     Elided blocks (gridpoints):    173295 (  180678613).
MG BCs: Computational effort saved:  99.9803%.
MG BCs: Charge after coarse-graining:           -9.0009603.
MG DL_MG: Calling solver with defect correction order = 8
MG DL_MG: Solver finished
MG Hartree energy from (\int phi*rho dr):              1439.610338
MG Hartree energy from (\int eps (grad phi)^2 dr):     1438.959387
MG Discrepancy due to finite box and discretization:     -0.650952 (  -0.04522%)
MG Correction to account for finite box:                  0.467393
MG Remaining discrepancy, due to discretization:         -0.183559 (  -0.01275%)
     Trial step:       0.494319720409
             Q1:  -11575.955803414341
 Quadratic coef:       0.034737687021
 Linear coef   :      -0.107282268744
           Qmin:  -11575.966090234000
Quadratic minimum step length (  0.763317100787) accepted
    Initial Ne1:    7227.99994684
      Final Ne1:    7228.00000000

=================== Penalty functional idempotency correction ==================
 RMS occupancy error at iteration   1:  0.000802 (step -0.4479 Ne1=   7228.0000)
 RMS occupancy error at iteration   2:  0.000027 (step -0.4998 Ne1=   7228.0000)
            Final RMS occupancy error   :  0.000000 (Ne1=   7228.0000)
               Final occupancy bounds   : [ -0.0000,  1.0000]
================================================================================

    5        -1.157588325883E+04     7.1087E-05     6.4330E-05    -1.3350E-01
MG BCs: +ve charge blocks (gridpoints):     30977 (   17404095).
MG BCs: -ve charge blocks (gridpoints):      8214 (    1095157).
MG BCs:     Elided blocks (gridpoints):    173297 (  180678629).
MG BCs: Computational effort saved:  99.9803%.
MG BCs: Charge after coarse-graining:           -9.0009603.
MG DL_MG: Calling solver with defect correction order = 8
MG DL_MG: Solver finished
MG Hartree energy from (\int phi*rho dr):              1439.872854
MG Hartree energy from (\int eps (grad phi)^2 dr):     1439.221815
MG Discrepancy due to finite box and discretization:     -0.651038 (  -0.04521%)
MG Correction to account for finite box:                  0.467390
MG Remaining discrepancy, due to discretization:         -0.183648 (  -0.01275%)
      ideal mu1:      -0.768765987297
             Q0:  -11575.963574718568
             G0:      -0.239270411321
   RMS gradient:       0.000076286236
MG BCs: +ve charge blocks (gridpoints):     30979 (   17403168).
MG BCs: -ve charge blocks (gridpoints):      8217 (    1095704).
MG BCs:     Elided blocks (gridpoints):    173295 (  180679009).
MG BCs: Computational effort saved:  99.9803%.
MG BCs: Charge after coarse-graining:           -9.0009601.
MG DL_MG: Calling solver with defect correction order = 8
MG DL_MG: Solver finished
MG Hartree energy from (\int phi*rho dr):              1438.330559
MG Hartree energy from (\int eps (grad phi)^2 dr):     1437.679532
MG Discrepancy due to finite box and discretization:     -0.651027 (  -0.04526%)
MG Correction to account for finite box:                  0.467400
MG Remaining discrepancy, due to discretization:         -0.183627 (  -0.01277%)
     Trial step:       0.614265981351
             Q1:  -11576.056690176250
 Quadratic coef:       0.053860216336
 Linear coef   :      -0.146975674018
           Qmin:  -11576.063842830277
Quadratic minimum step length (  0.838115428948) accepted
    Initial Ne1:    7228.00006095
      Final Ne1:    7228.00000000

=================== Penalty functional idempotency correction ==================
 RMS occupancy error at iteration   1:  0.003957 (step -0.3100 Ne1=   7228.0000)
 RMS occupancy error at iteration   2:  0.000255 (step -0.4909 Ne1=   7228.0000)
 RMS occupancy error at iteration   3:  0.000003 (step -0.5000 Ne1=   7228.0000)
            Final RMS occupancy error   :  0.000000 (Ne1=   7228.0000)
               Final occupancy bounds   : [  0.0000,  1.0000]
================================================================================

    6        -1.157596357472E+04     7.6286E-05     6.9035E-05    -8.0316E-02
MG BCs: +ve charge blocks (gridpoints):     30976 (   17402871).
MG BCs: -ve charge blocks (gridpoints):      8217 (    1095894).
MG BCs:     Elided blocks (gridpoints):    173298 (  180679116).
MG BCs: Computational effort saved:  99.9803%.
MG BCs: Charge after coarse-graining:           -9.0009600.
MG DL_MG: Calling solver with defect correction order = 8
MG DL_MG: Solver finished
MG Hartree energy from (\int phi*rho dr):              1437.795761
MG Hartree energy from (\int eps (grad phi)^2 dr):     1437.144726
MG Discrepancy due to finite box and discretization:     -0.651035 (  -0.04528%)
MG Correction to account for finite box:                  0.467410
MG Remaining discrepancy, due to discretization:         -0.183625 (  -0.01277%)
      ideal mu1:      -0.768136535637
             Q0:  -11576.057859936496
             G0:      -0.291153643535
   RMS gradient:       0.000082492975
MG BCs: +ve charge blocks (gridpoints):     30976 (   17404013).
MG BCs: -ve charge blocks (gridpoints):      8220 (    1095352).
MG BCs:     Elided blocks (gridpoints):    173298 (  180678516).
MG BCs: Computational effort saved:  99.9803%.
MG BCs: Charge after coarse-graining:           -9.0009606.
MG DL_MG: Calling solver with defect correction order = 8
MG DL_MG: Solver finished
MG Hartree energy from (\int phi*rho dr):              1439.156517
MG Hartree energy from (\int eps (grad phi)^2 dr):     1438.505780
MG Discrepancy due to finite box and discretization:     -0.650737 (  -0.04522%)
MG Correction to account for finite box:                  0.467382
MG Remaining discrepancy, due to discretization:         -0.183355 (  -0.01274%)
     Trial step:       0.717513621089
             Q1:  -11576.159167789971
 Quadratic coef:       0.107598851591
 Linear coef   :      -0.208906705066
           Qmin:  -11576.159259744152
Quadratic minimum step length (  0.696538133097) accepted
    Initial Ne1:    7227.99999834
      Final Ne1:    7228.00000000

=================== Penalty functional idempotency correction ==================
 RMS occupancy error at iteration   1:  0.000218 (step -0.4850 Ne1=   7228.0000)
 RMS occupancy error at iteration   2:  0.000002 (step -0.5000 Ne1=   7228.0000)
            Final RMS occupancy error   :  0.000000 (Ne1=   7228.0000)
               Final occupancy bounds   : [  0.0000,  1.0000]
================================================================================

    7        -1.157605785994E+04     8.2493E-05     7.4652E-05    -9.4285E-02
MG BCs: +ve charge blocks (gridpoints):     30977 (   17403954).
MG BCs: -ve charge blocks (gridpoints):      8221 (    1095359).
MG BCs:     Elided blocks (gridpoints):    173297 (  180678568).
MG BCs: Computational effort saved:  99.9803%.
MG BCs: Charge after coarse-graining:           -9.0009606.
MG DL_MG: Calling solver with defect correction order = 8
MG DL_MG: Solver finished
MG Hartree energy from (\int phi*rho dr):              1439.116674
MG Hartree energy from (\int eps (grad phi)^2 dr):     1438.465929
MG Discrepancy due to finite box and discretization:     -0.650745 (  -0.04522%)
MG Correction to account for finite box:                  0.467383
MG Remaining discrepancy, due to discretization:         -0.183362 (  -0.01274%)
      ideal mu1:      -0.769199700023
             Q0:  -11576.159318187740
             G0:      -0.220803704400
   RMS gradient:       0.000071849897
MG BCs: +ve charge blocks (gridpoints):     30978 (   17404065).
MG BCs: -ve charge blocks (gridpoints):      8214 (    1095199).
MG BCs:     Elided blocks (gridpoints):    173296 (  180678617).
MG BCs: Computational effort saved:  99.9803%.
MG BCs: Charge after coarse-graining:           -9.0009605.
MG DL_MG: Calling solver with defect correction order = 8
MG DL_MG: Solver finished
MG Hartree energy from (\int phi*rho dr):              1439.180009
MG Hartree energy from (\int eps (grad phi)^2 dr):     1438.529368
MG Discrepancy due to finite box and discretization:     -0.650641 (  -0.04521%)
MG Correction to account for finite box:                  0.467396
MG Remaining discrepancy, due to discretization:         -0.183245 (  -0.01273%)
     Trial step:       0.706948087277
             Q1:  -11576.238521081861
 Quadratic coef:       0.076893862368
 Linear coef   :      -0.156096756490
           Qmin:  -11576.238538416235
Quadratic minimum step length (  0.717562494797) accepted
    Initial Ne1:    7227.99999820
      Final Ne1:    7228.00000000

=================== Penalty functional idempotency correction ==================
 RMS occupancy error at iteration   1:  0.001010 (step -0.4377 Ne1=   7228.0000)
 RMS occupancy error at iteration   2:  0.000032 (step -0.4987 Ne1=   7228.0000)
            Final RMS occupancy error   :  0.000000 (Ne1=   7228.0000)
               Final occupancy bounds   : [ -0.0000,  1.0000]
================================================================================

    8        -1.157615931819E+04     7.1850E-05     6.5021E-05    -1.0146E-01
MG BCs: +ve charge blocks (gridpoints):     30978 (   17404056).
MG BCs: -ve charge blocks (gridpoints):      8214 (    1095198).
MG BCs:     Elided blocks (gridpoints):    173296 (  180678627).
MG BCs: Computational effort saved:  99.9803%.
MG BCs: Charge after coarse-graining:           -9.0009605.
MG DL_MG: Calling solver with defect correction order = 8
MG DL_MG: Solver finished
MG Hartree energy from (\int phi*rho dr):              1439.181802
MG Hartree energy from (\int eps (grad phi)^2 dr):     1438.531163
MG Discrepancy due to finite box and discretization:     -0.650639 (  -0.04521%)
MG Correction to account for finite box:                  0.467396
MG Remaining discrepancy, due to discretization:         -0.183244 (  -0.01273%)
      ideal mu1:      -0.768790276747
             Q0:  -11576.239410885493
             G0:      -0.157947624870
   RMS gradient:       0.000060243360
MG BCs: +ve charge blocks (gridpoints):     30975 (   17403440).
MG BCs: -ve charge blocks (gridpoints):      8215 (    1095518).
MG BCs:     Elided blocks (gridpoints):    173299 (  180678923).
MG BCs: Computational effort saved:  99.9803%.
MG BCs: Charge after coarse-graining:           -9.0009604.
MG DL_MG: Calling solver with defect correction order = 8
MG DL_MG: Solver finished
MG Hartree energy from (\int phi*rho dr):              1438.472372
MG Hartree energy from (\int eps (grad phi)^2 dr):     1437.821793
MG Discrepancy due to finite box and discretization:     -0.650579 (  -0.04523%)
MG Correction to account for finite box:                  0.467364
MG Remaining discrepancy, due to discretization:         -0.183215 (  -0.01274%)
     Trial step:       0.712235518069
             Q1:  -11576.297056055279
 Quadratic coef:       0.054850738643
 Linear coef   :      -0.112495908427
           Qmin:  -11576.297091646618
Quadratic minimum step length (  0.730378328548) accepted
    Initial Ne1:    7228.00051261
      Final Ne1:    7228.00000000

=================== Penalty functional idempotency correction ==================
 RMS occupancy error at iteration   1:  0.001876 (step -0.4025 Ne1=   7228.0000)
 RMS occupancy error at iteration   2:  0.000084 (step -0.4972 Ne1=   7228.0000)
 RMS occupancy error at iteration   3:  0.000001 (step -0.5000 Ne1=   7228.0000)
            Final RMS occupancy error   :  0.000000 (Ne1=   7228.0000)
               Final occupancy bounds   : [  0.0000,  1.0000]
================================================================================

    9        -1.157623941089E+04     6.0243E-05     5.4517E-05    -8.0093E-02
MG BCs: +ve charge blocks (gridpoints):     30975 (   17403422).
MG BCs: -ve charge blocks (gridpoints):      8215 (    1095517).
MG BCs:     Elided blocks (gridpoints):    173299 (  180678942).
MG BCs: Computational effort saved:  99.9803%.
MG BCs: Charge after coarse-graining:           -9.0009604.
MG DL_MG: Calling solver with defect correction order = 8
MG DL_MG: Solver finished
MG Hartree energy from (\int phi*rho dr):              1438.454880
MG Hartree energy from (\int eps (grad phi)^2 dr):     1437.804296
MG Discrepancy due to finite box and discretization:     -0.650584 (  -0.04523%)
MG Correction to account for finite box:                  0.467371
MG Remaining discrepancy, due to discretization:         -0.183214 (  -0.01274%)
      ideal mu1:      -0.767980949892
   10        -1.157630020597E+04     4.9476E-05     4.4773E-05    -6.0795E-02
Finished density kernel iterations (  10)

Writing density kernel to file "complex_12641.vacuum_dkn" ... done


>>> Density kernel optimised for the current NGWF basis:
     ~~~~~~~~~~~~~~~~~~~~~~~~~~~~~~~~~~~~~~~~~~~~~~~~~~~~~~~~~~~
     Total energy                =  -1.15763002059689E+04  Eh
     Estimated bandgap           =  -4.4465E-01  Eh
     RMS occupancy error         =   3.9736E-11
     [H,K] commutator            =   4.4773E-05
     Occupancy bounds            = [  0.000:  1.000]
     ~~~~~~~~~~~~~~~~~~~~~~~~~~~~~~~~~~~~~~~~~~~~~~~~~~~~~~~~~~~




################################################################################
########################### NGWF CG iteration  001 #############################
################################################################################
****** Reciprocal space K.E. preconditioning with k_zero =  3.5000 a0^-1 *******

>>> Checking for convergence of NGWFs:   NOT CONVERGED
  ========================================================================
         NGWF RMS gradient =  1.6009E-03 >  2.0000E-06  | above tolerance
  ========================================================================

>>> Improving NGWFs using line search:
============ Calculation of NGWF S^-1 using Hotelling algorithm ================ 
         Iteration  |  Frobenius norm and Maximum abs value    (of I-S*S_n^-1)   
               1       0.19831135E+00     0.53451328E-02
               2       0.91039115E-03     0.41010258E-04
               3       0.33442464E-07     0.28975016E-08
               4       0.13111806E-12     0.59952043E-14
================================================================================
MG BCs: +ve charge blocks (gridpoints):     30573 (   17353255).
MG BCs: -ve charge blocks (gridpoints):      8225 (    1095484).
MG BCs:     Elided blocks (gridpoints):    173704 (  180729142).
MG BCs: Computational effort saved:  99.9805%.
MG BCs: Charge after coarse-graining:           -9.0009665.
MG DL_MG: Calling solver with defect correction order = 8
MG DL_MG: Solver finished
MG Hartree energy from (\int phi*rho dr):              1406.405626
MG Hartree energy from (\int eps (grad phi)^2 dr):     1405.755922
MG Discrepancy due to finite box and discretization:     -0.649704 (  -0.04620%)
MG Correction to account for finite box:                  0.467278
MG Remaining discrepancy, due to discretization:         -0.182426 (  -0.01297%)
============ Calculation of NGWF S^-1 using Hotelling algorithm ================ 
         Iteration  |  Frobenius norm and Maximum abs value    (of I-S*S_n^-1)   
               1       0.18435416E+01     0.42786976E-01
               2       0.70474293E-01     0.24501288E-02
               3       0.14176707E-03     0.10502883E-04
               4       0.11727370E-08     0.20173219E-09
               5       0.11056870E-12     0.51070259E-14
================================================================================
------------------------------- NGWF line search -------------------------------
RMS gradient                =       0.00160085900306
Trial step length           =               0.122474
Gradient along search dir.  =       -278.73950219175
Functional at step 0        =  -11576.30020596890245
Functional at step 1        =  -11607.81329691433348
Functional predicted        =  -11687.27773185997285
Selected quadratic step     =               0.796281
--------------------------- NGWF line search finished --------------------------
                                               
Writing NGWFs to file "complex_12641.vacuum_tightbox_ngwfs"....  done

>>> Optimising kernel for current NGWFs:
   Initial electron number for spin 1:    7262.61802412
     Final electron number for spin 1:    7228.00000000

=================== Penalty functional idempotency correction ==================
 RMS occupancy error at iteration   1:  0.004290 (step -0.4857 Ne1=   7228.0000)
 RMS occupancy error at iteration   2:  0.000072 (step -0.5003 Ne1=   7228.0000)
            Final RMS occupancy error   :  0.000000 (Ne1=   7228.0000)
               Final occupancy bounds   : [  0.0000,  1.0000]
================================================================================

................................................................................
<<<<<<<<<<<<<< LNV (Original version) density kernel optimisation >>>>>>>>>>>>>>
~~~~~~~~~~~~~~~~~~~~~~~~~~~~~~~~~~~~~~~~~~~~~~~~~~~~~~~~~~~~~~~~~~~~~~~~~~~~~~~~
   iter  |      energy (Eh)       | rms gradient |  commutator  |   dE (Eh)
MG BCs: +ve charge blocks (gridpoints):     24837 (   17062235).
MG BCs: -ve charge blocks (gridpoints):      8384 (    1079599).
MG BCs:     Elided blocks (gridpoints):    179451 (  181036047).
MG BCs: Computational effort saved:  99.9833%.
MG BCs: Charge after coarse-graining:           -9.0006763.
MG DL_MG: Calling solver with defect correction order = 8
MG DL_MG: Solver finished
MG Hartree energy from (\int phi*rho dr):              1252.163526
MG Hartree energy from (\int eps (grad phi)^2 dr):     1251.513909
MG Discrepancy due to finite box and discretization:     -0.649617 (  -0.05188%)
MG Correction to account for finite box:                  0.466834
MG Remaining discrepancy, due to discretization:         -0.182783 (  -0.01460%)
      ideal mu1:      -0.709017152506
             Q0:  -11686.485401692567
             G0:     -10.052570699107
   RMS gradient:       0.000484723883
MG BCs: +ve charge blocks (gridpoints):     24893 (   17075983).
MG BCs: -ve charge blocks (gridpoints):      8363 (    1076715).
MG BCs:     Elided blocks (gridpoints):    179395 (  181025183).
MG BCs: Computational effort saved:  99.9833%.
MG BCs: Charge after coarse-graining:           -9.0006723.
MG DL_MG: Calling solver with defect correction order = 8
MG DL_MG: Solver finished
MG Hartree energy from (\int phi*rho dr):              1267.514797
MG Hartree energy from (\int eps (grad phi)^2 dr):     1266.859612
MG Discrepancy due to finite box and discretization:     -0.655185 (  -0.05169%)
MG Correction to account for finite box:                  0.466403
MG Remaining discrepancy, due to discretization:         -0.188782 (  -0.01489%)
     Trial step:       0.721249878489
             Q1:  -11685.789661574876
 Quadratic coef:       7.946155512920
 Linear coef   :      -7.250415395228
           Qmin:  -11688.139299710228
Quadratic minimum step length (  0.329049765909) accepted
    Initial Ne1:    7227.99956257
      Final Ne1:    7228.00000000

=================== Penalty functional idempotency correction ==================
 RMS occupancy error at iteration   1:  0.000359 (step -0.4985 Ne1=   7228.0000)
 RMS occupancy error at iteration   2:  0.000000 (step -0.5000 Ne1=   7228.0000)
            Final RMS occupancy error   :  0.000000 (Ne1=   7228.0000)
               Final occupancy bounds   : [  0.0000,  1.0000]
================================================================================

    1        -1.168648540169E+04     4.8472E-04     4.3865E-04
MG BCs: +ve charge blocks (gridpoints):     24864 (   17068658).
MG BCs: -ve charge blocks (gridpoints):      8370 (    1078342).
MG BCs:     Elided blocks (gridpoints):    179424 (  181030881).
MG BCs: Computational effort saved:  99.9833%.
MG BCs: Charge after coarse-graining:           -9.0006744.
MG DL_MG: Calling solver with defect correction order = 8
MG DL_MG: Solver finished
MG Hartree energy from (\int phi*rho dr):              1258.197463
MG Hartree energy from (\int eps (grad phi)^2 dr):     1257.545402
MG Discrepancy due to finite box and discretization:     -0.652061 (  -0.05182%)
MG Correction to account for finite box:                  0.466620
MG Remaining discrepancy, due to discretization:         -0.185440 (  -0.01474%)
      ideal mu1:      -0.714927412517
             Q0:  -11688.113855752395
             G0:      -0.990382236201
   RMS gradient:       0.000152791609
MG BCs: +ve charge blocks (gridpoints):     24865 (   17068428).
MG BCs: -ve charge blocks (gridpoints):      8371 (    1079060).
MG BCs:     Elided blocks (gridpoints):    179423 (  181030393).
MG BCs: Computational effort saved:  99.9833%.
MG BCs: Charge after coarse-graining:           -9.0006743.
MG DL_MG: Calling solver with defect correction order = 8
MG DL_MG: Solver finished
MG Hartree energy from (\int phi*rho dr):              1259.271406
MG Hartree energy from (\int eps (grad phi)^2 dr):     1258.619041
MG Discrepancy due to finite box and discretization:     -0.652365 (  -0.05180%)
MG Correction to account for finite box:                  0.466545
MG Remaining discrepancy, due to discretization:         -0.185820 (  -0.01476%)
     Trial step:       0.487162297062
             Q1:  -11688.319892118918
 Quadratic coef:       0.276440518634
 Linear coef   :      -0.482476885157
           Qmin:  -11688.324374769163
Quadratic minimum step length (  0.425126802709) accepted
    Initial Ne1:    7227.99994383
      Final Ne1:    7228.00000000

=================== Penalty functional idempotency correction ==================
 RMS occupancy error at iteration   1:  0.000145 (step -0.4993 Ne1=   7228.0000)
            Final RMS occupancy error   :  0.000000 (Ne1=   7228.0000)
               Final occupancy bounds   : [ -0.0000,  1.0000]
================================================================================

    2        -1.168811385575E+04     1.5279E-04     1.3827E-04    -1.6285E+00
MG BCs: +ve charge blocks (gridpoints):     24862 (   17068466).
MG BCs: -ve charge blocks (gridpoints):      8370 (    1078970).
MG BCs:     Elided blocks (gridpoints):    179426 (  181030445).
MG BCs: Computational effort saved:  99.9833%.
MG BCs: Charge after coarse-graining:           -9.0006743.
MG DL_MG: Calling solver with defect correction order = 8
MG DL_MG: Solver finished
MG Hartree energy from (\int phi*rho dr):              1259.134605
MG Hartree energy from (\int eps (grad phi)^2 dr):     1258.482280
MG Discrepancy due to finite box and discretization:     -0.652325 (  -0.05181%)
MG Correction to account for finite box:                  0.466555
MG Remaining discrepancy, due to discretization:         -0.185770 (  -0.01475%)
      ideal mu1:      -0.715919943314
             Q0:  -11688.324822818628
             G0:      -0.160590692388
   RMS gradient:       0.000061200683
MG BCs: +ve charge blocks (gridpoints):     24863 (   17068117).
MG BCs: -ve charge blocks (gridpoints):      8370 (    1079271).
MG BCs:     Elided blocks (gridpoints):    179425 (  181030493).
MG BCs: Computational effort saved:  99.9833%.
MG BCs: Charge after coarse-graining:           -9.0006742.
MG DL_MG: Calling solver with defect correction order = 8
MG DL_MG: Solver finished
MG Hartree energy from (\int phi*rho dr):              1258.729121
MG Hartree energy from (\int eps (grad phi)^2 dr):     1258.076885
MG Discrepancy due to finite box and discretization:     -0.652236 (  -0.05182%)
MG Correction to account for finite box:                  0.466486
MG Remaining discrepancy, due to discretization:         -0.185750 (  -0.01476%)
     Trial step:       0.455088727338
             Q1:  -11688.375253183185
 Quadratic coef:       0.022652649264
 Linear coef   :      -0.073083013821
           Qmin:  -11688.383768759641
Quadratic minimum step length (  0.734114040305) accepted
    Initial Ne1:    7228.00108787
      Final Ne1:    7228.00000000

=================== Penalty functional idempotency correction ==================
 RMS occupancy error at iteration   1:  0.000129 (step -0.4949 Ne1=   7228.0000)
 RMS occupancy error at iteration   2:  0.000001 (step -0.5000 Ne1=   7228.0000)
            Final RMS occupancy error   :  0.000000 (Ne1=   7228.0000)
               Final occupancy bounds   : [  0.0000,  1.0000]
================================================================================

    3        -1.168832482282E+04     6.1201E-05     5.5384E-05    -2.1097E-01
MG BCs: +ve charge blocks (gridpoints):     24863 (   17067868).
MG BCs: -ve charge blocks (gridpoints):      8371 (    1079467).
MG BCs:     Elided blocks (gridpoints):    179425 (  181030546).
MG BCs: Computational effort saved:  99.9833%.
MG BCs: Charge after coarse-graining:           -9.0006742.
MG DL_MG: Calling solver with defect correction order = 8
MG DL_MG: Solver finished
MG Hartree energy from (\int phi*rho dr):              1258.480470
MG Hartree energy from (\int eps (grad phi)^2 dr):     1257.828288
MG Discrepancy due to finite box and discretization:     -0.652182 (  -0.05182%)
MG Correction to account for finite box:                  0.466444
MG Remaining discrepancy, due to discretization:         -0.185738 (  -0.01476%)
      ideal mu1:      -0.715239211535
             Q0:  -11688.383835038170
             G0:      -0.061883040658
   RMS gradient:       0.000037995138
MG BCs: +ve charge blocks (gridpoints):     24864 (   17067753).
MG BCs: -ve charge blocks (gridpoints):      8372 (    1079471).
MG BCs:     Elided blocks (gridpoints):    179424 (  181030657).
MG BCs: Computational effort saved:  99.9833%.
MG BCs: Charge after coarse-graining:           -9.0006742.
MG DL_MG: Calling solver with defect correction order = 8
MG DL_MG: Solver finished
MG Hartree energy from (\int phi*rho dr):              1258.444278
MG Hartree energy from (\int eps (grad phi)^2 dr):     1257.792310
MG Discrepancy due to finite box and discretization:     -0.651968 (  -0.05181%)
MG Correction to account for finite box:                  0.466363
MG Remaining discrepancy, due to discretization:         -0.185605 (  -0.01475%)
     Trial step:       0.578002616191
             Q1:  -11688.405756409746
 Quadratic coef:       0.013847187824
 Linear coef   :      -0.035768559398
           Qmin:  -11688.406933407632
Quadratic minimum step length (  0.746516952506) accepted
    Initial Ne1:    7228.00042625
      Final Ne1:    7228.00000000

=================== Penalty functional idempotency correction ==================
 RMS occupancy error at iteration   1:  0.000212 (step -0.4859 Ne1=   7228.0000)
 RMS occupancy error at iteration   2:  0.000002 (step -0.5000 Ne1=   7228.0000)
            Final RMS occupancy error   :  0.000000 (Ne1=   7228.0000)
               Final occupancy bounds   : [  0.0000,  1.0000]
================================================================================

    4        -1.168838383504E+04     3.7995E-05     3.4384E-05    -5.9012E-02
MG BCs: +ve charge blocks (gridpoints):     24864 (   17067738).
MG BCs: -ve charge blocks (gridpoints):      8372 (    1079439).
MG BCs:     Elided blocks (gridpoints):    179424 (  181030704).
MG BCs: Computational effort saved:  99.9833%.
MG BCs: Charge after coarse-graining:           -9.0006743.
MG DL_MG: Calling solver with defect correction order = 8
MG DL_MG: Solver finished
MG Hartree energy from (\int phi*rho dr):              1258.434563
MG Hartree energy from (\int eps (grad phi)^2 dr):     1257.782659
MG Discrepancy due to finite box and discretization:     -0.651905 (  -0.05180%)
MG Correction to account for finite box:                  0.466338
MG Remaining discrepancy, due to discretization:         -0.185566 (  -0.01475%)
      ideal mu1:      -0.715483113401
             Q0:  -11688.406858908245
             G0:      -0.060509391329
   RMS gradient:       0.000037669427
MG BCs: +ve charge blocks (gridpoints):     24865 (   17068831).
MG BCs: -ve charge blocks (gridpoints):      8368 (    1079036).
MG BCs:     Elided blocks (gridpoints):    179423 (  181030014).
MG BCs: Computational effort saved:  99.9833%.
MG BCs: Charge after coarse-graining:           -9.0006740.
MG DL_MG: Calling solver with defect correction order = 8
MG DL_MG: Solver finished
MG Hartree energy from (\int phi*rho dr):              1259.205745
MG Hartree energy from (\int eps (grad phi)^2 dr):     1258.554101
MG Discrepancy due to finite box and discretization:     -0.651644 (  -0.05175%)
MG Correction to account for finite box:                  0.466163
MG Remaining discrepancy, due to discretization:         -0.185481 (  -0.01473%)
     Trial step:       0.656878034021
             Q1:  -11688.434150098939
 Quadratic coef:       0.012456099323
 Linear coef   :      -0.039747290016
           Qmin:  -11688.438567210795
Quadratic minimum step length (  1.048045662091) accepted
    Initial Ne1:    7228.00058761
      Final Ne1:    7228.00000000

=================== Penalty functional idempotency correction ==================
 RMS occupancy error at iteration   1:  0.001198 (step -0.4238 Ne1=   7228.0000)
 RMS occupancy error at iteration   2:  0.000040 (step -0.4978 Ne1=   7228.0000)
            Final RMS occupancy error   :  0.000000 (Ne1=   7228.0000)
               Final occupancy bounds   : [ -0.0000,  1.0000]
================================================================================

    5        -1.168840685891E+04     3.7669E-05     3.4089E-05    -2.3024E-02
MG BCs: +ve charge blocks (gridpoints):     24867 (   17069499).
MG BCs: -ve charge blocks (gridpoints):      8368 (    1078800).
MG BCs:     Elided blocks (gridpoints):    179421 (  181029582).
MG BCs: Computational effort saved:  99.9833%.
MG BCs: Charge after coarse-graining:           -9.0006739.
MG DL_MG: Calling solver with defect correction order = 8
MG DL_MG: Solver finished
MG Hartree energy from (\int phi*rho dr):              1259.667930
MG Hartree energy from (\int eps (grad phi)^2 dr):     1259.016438
MG Discrepancy due to finite box and discretization:     -0.651492 (  -0.05172%)
MG Correction to account for finite box:                  0.466061
MG Remaining discrepancy, due to discretization:         -0.185431 (  -0.01472%)
      ideal mu1:      -0.716834373718
             Q0:  -11688.436444853898
             G0:      -0.095782717090
   RMS gradient:       0.000048649495
MG BCs: +ve charge blocks (gridpoints):     24866 (   17070109).
MG BCs: -ve charge blocks (gridpoints):      8368 (    1078694).
MG BCs:     Elided blocks (gridpoints):    179422 (  181029078).
MG BCs: Computational effort saved:  99.9833%.
MG BCs: Charge after coarse-graining:           -9.0006738.
MG DL_MG: Calling solver with defect correction order = 8
MG DL_MG: Solver finished
MG Hartree energy from (\int phi*rho dr):              1259.796890
MG Hartree energy from (\int eps (grad phi)^2 dr):     1259.145939
MG Discrepancy due to finite box and discretization:     -0.650951 (  -0.05167%)
MG Correction to account for finite box:                  0.465560
MG Remaining discrepancy, due to discretization:         -0.185390 (  -0.01472%)
     Trial step:       0.829721744972
             Q1:  -11688.487649741932
 Quadratic coef:       0.028268115128
 Linear coef   :      -0.079473003162
           Qmin:  -11688.492302471244
Quadratic minimum step length (  1.166340213418) accepted
    Initial Ne1:    7228.00339735
      Final Ne1:    7228.00000000

=================== Penalty functional idempotency correction ==================
 RMS occupancy error at iteration   1:  0.007361 (step -0.2394 Ne1=   7228.0000)
 RMS occupancy error at iteration   2:  0.000648 (step -0.4587 Ne1=   7228.0000)
 RMS occupancy error at iteration   3:  0.000020 (step -0.5003 Ne1=   7228.0000)
            Final RMS occupancy error   :  0.000000 (Ne1=   7228.0000)
               Final occupancy bounds   : [  0.0000,  1.0000]
================================================================================

    6        -1.168843644485E+04     4.8649E-05     4.4025E-05    -2.9586E-02
MG BCs: +ve charge blocks (gridpoints):     24868 (   17070355).
MG BCs: -ve charge blocks (gridpoints):      8367 (    1078676).
MG BCs:     Elided blocks (gridpoints):    179420 (  181028850).
MG BCs: Computational effort saved:  99.9833%.
MG BCs: Charge after coarse-graining:           -9.0006737.
MG DL_MG: Calling solver with defect correction order = 8
MG DL_MG: Solver finished
MG Hartree energy from (\int phi*rho dr):              1259.858798
MG Hartree energy from (\int eps (grad phi)^2 dr):     1259.207934
MG Discrepancy due to finite box and discretization:     -0.650864 (  -0.05166%)
MG Correction to account for finite box:                  0.465496
MG Remaining discrepancy, due to discretization:         -0.185367 (  -0.01471%)
      ideal mu1:      -0.717851361345
             Q0:  -11688.473436103901
             G0:      -0.197018801506
   RMS gradient:       0.000067859349
MG BCs: +ve charge blocks (gridpoints):     24865 (   17066251).
MG BCs: -ve charge blocks (gridpoints):      8374 (    1080016).
MG BCs:     Elided blocks (gridpoints):    179423 (  181031614).
MG BCs: Computational effort saved:  99.9833%.
MG BCs: Charge after coarse-graining:           -9.0006745.
MG DL_MG: Calling solver with defect correction order = 8
MG DL_MG: Solver finished
MG Hartree energy from (\int phi*rho dr):              1257.479113
MG Hartree energy from (\int eps (grad phi)^2 dr):     1256.828418
MG Discrepancy due to finite box and discretization:     -0.650695 (  -0.05175%)
MG Correction to account for finite box:                  0.465154
MG Remaining discrepancy, due to discretization:         -0.185541 (  -0.01475%)
     Trial step:       0.983736670612
             Q1:  -11688.555711121997
 Quadratic coef:       0.111539601745
 Linear coef   :      -0.193814619841
           Qmin:  -11688.557630655156
Quadratic minimum step length (  0.854685447392) accepted
    Initial Ne1:    7227.99977474
      Final Ne1:    7228.00000000

=================== Penalty functional idempotency correction ==================
 RMS occupancy error at iteration   1:  0.000396 (step -0.4688 Ne1=   7228.0000)
 RMS occupancy error at iteration   2:  0.000002 (step -0.5000 Ne1=   7228.0000)
            Final RMS occupancy error   :  0.000000 (Ne1=   7228.0000)
               Final occupancy bounds   : [  0.0000,  1.0000]
================================================================================

    7        -1.168847343610E+04     6.7859E-05     6.1409E-05    -3.6991E-02
MG BCs: +ve charge blocks (gridpoints):     24865 (   17066771).
MG BCs: -ve charge blocks (gridpoints):      8374 (    1079848).
MG BCs:     Elided blocks (gridpoints):    179423 (  181031262).
MG BCs: Computational effort saved:  99.9833%.
MG BCs: Charge after coarse-graining:           -9.0006744.
MG DL_MG: Calling solver with defect correction order = 8
MG DL_MG: Solver finished
MG Hartree energy from (\int phi*rho dr):              1257.787715
MG Hartree energy from (\int eps (grad phi)^2 dr):     1257.136992
MG Discrepancy due to finite box and discretization:     -0.650722 (  -0.05174%)
MG Correction to account for finite box:                  0.465205
MG Remaining discrepancy, due to discretization:         -0.185518 (  -0.01475%)
      ideal mu1:      -0.717024489764
             Q0:  -11688.557761658565
             G0:      -0.250433856283
   RMS gradient:       0.000076658981
MG BCs: +ve charge blocks (gridpoints):     24868 (   17067048).
MG BCs: -ve charge blocks (gridpoints):      8371 (    1079741).
MG BCs:     Elided blocks (gridpoints):    179420 (  181031092).
MG BCs: Computational effort saved:  99.9833%.
MG BCs: Charge after coarse-graining:           -9.0006744.
MG DL_MG: Calling solver with defect correction order = 8
MG DL_MG: Solver finished
MG Hartree energy from (\int phi*rho dr):              1257.527569
MG Hartree energy from (\int eps (grad phi)^2 dr):     1256.877209
MG Discrepancy due to finite box and discretization:     -0.650360 (  -0.05172%)
[...]
MG BCs: Computational effort saved:  99.9811%.
MG BCs: Charge after coarse-graining:           -9.0009504.
MG DL_MG: Calling solver with defect correction order = 8
MG DL_MG: Solver finished
MG Hartree energy from (\int phi*rho dr):              1216.176397
MG Hartree energy from (\int eps (grad phi)^2 dr):     1215.985254
MG Discrepancy due to finite box and discretization:     -0.191143 (  -0.01572%)
MG Correction to account for finite box:                  0.006367
MG Remaining discrepancy, due to discretization:         -0.184776 (  -0.01519%)
             Q2:  -11723.411138418363
  Cubic LS coeff:       0.973838788733
Predicted energy:  -11723.411138418494
Cubic minimum step length accepted
    Initial Ne1:    7228.00000000
      Final Ne1:    7228.00000000

=================== Penalty functional idempotency correction ==================
 RMS occupancy error at iteration   1:  0.000000 (step -0.5000 Ne1=   7228.0000)
            Final RMS occupancy error   :  0.000000 (Ne1=   7228.0000)
               Final occupancy bounds   : [ -0.0000,  1.0000]
================================================================================

    7        -1.172341113842E+04     8.0793E-09     7.3114E-09    -2.2119E-09

Reusing previously generated solute cavity.
MG BCs: +ve charge blocks (gridpoints):     29275 (   19311403).
MG BCs: -ve charge blocks (gridpoints):      8353 (    1048509).
MG BCs:     Elided blocks (gridpoints):    175013 (  178817969).
MG BCs: Computational effort saved:  99.9811%.
MG BCs: Charge after coarse-graining:           -9.0009504.
MG DL_MG: Calling solver with defect correction order = 8
MG DL_MG: Solver finished
MG Hartree energy from (\int phi*rho dr):              1216.176392
MG Hartree energy from (\int eps (grad phi)^2 dr):     1215.985249
MG Discrepancy due to finite box and discretization:     -0.191143 (  -0.01572%)
MG Correction to account for finite box:                  0.006367
MG Remaining discrepancy, due to discretization:         -0.184776 (  -0.01519%)
      ideal mu1:      -0.481117871040
             Q0:  -11723.411138418247
             G0:      -0.000000002897
   RMS gradient:       0.000000010489

Reusing previously generated solute cavity.
MG BCs: +ve charge blocks (gridpoints):     29275 (   19311403).
MG BCs: -ve charge blocks (gridpoints):      8353 (    1048509).
MG BCs:     Elided blocks (gridpoints):    175013 (  178817969).
MG BCs: Computational effort saved:  99.9811%.
MG BCs: Charge after coarse-graining:           -9.0009504.
MG DL_MG: Calling solver with defect correction order = 8
MG DL_MG: Solver finished
MG Hartree energy from (\int phi*rho dr):              1216.176374
MG Hartree energy from (\int eps (grad phi)^2 dr):     1215.985231
MG Discrepancy due to finite box and discretization:     -0.191143 (  -0.01572%)
MG Correction to account for finite box:                  0.006367
MG Remaining discrepancy, due to discretization:         -0.184776 (  -0.01519%)
     Trial step:       0.739690433713
             Q1:  -11723.411138419295
 Quadratic coef:       0.000000001095
 Linear coef   :      -0.000000002143
           Qmin:  -11723.411138419295
Quadratic minimum step length (  0.723677563752) accepted
    Initial Ne1:    7228.00000000
      Final Ne1:    7228.00000000

=================== Penalty functional idempotency correction ==================
 RMS occupancy error at iteration   1:  0.000000 (step -0.5000 Ne1=   7228.0000)
            Final RMS occupancy error   :  0.000000 (Ne1=   7228.0000)
               Final occupancy bounds   : [  0.0000,  1.0000]
================================================================================

    8        -1.172341113842E+04     1.0489E-08     9.4922E-09    -2.3283E-09

Reusing previously generated solute cavity.
MG BCs: +ve charge blocks (gridpoints):     29275 (   19311403).
MG BCs: -ve charge blocks (gridpoints):      8353 (    1048509).
MG BCs:     Elided blocks (gridpoints):    175013 (  178817969).
MG BCs: Computational effort saved:  99.9811%.
MG BCs: Charge after coarse-graining:           -9.0009504.
MG DL_MG: Calling solver with defect correction order = 8
MG DL_MG: Solver finished
MG Hartree energy from (\int phi*rho dr):              1216.176374
MG Hartree energy from (\int eps (grad phi)^2 dr):     1215.985232
MG Discrepancy due to finite box and discretization:     -0.191143 (  -0.01572%)
MG Correction to account for finite box:                  0.006367
MG Remaining discrepancy, due to discretization:         -0.184776 (  -0.01519%)
      ideal mu1:      -0.481117844994
             Q0:  -11723.411138419178
             G0:      -0.000000003681
   RMS gradient:       0.000000008958

Reusing previously generated solute cavity.
MG BCs: +ve charge blocks (gridpoints):     29275 (   19311405).
MG BCs: -ve charge blocks (gridpoints):      8353 (    1048510).
MG BCs:     Elided blocks (gridpoints):    175013 (  178817966).
MG BCs: Computational effort saved:  99.9811%.
MG BCs: Charge after coarse-graining:           -9.0009504.
MG DL_MG: Calling solver with defect correction order = 8
MG DL_MG: Solver finished
MG Hartree energy from (\int phi*rho dr):              1216.176323
MG Hartree energy from (\int eps (grad phi)^2 dr):     1215.985181
MG Discrepancy due to finite box and discretization:     -0.191143 (  -0.01572%)
MG Correction to account for finite box:                  0.006367
MG Remaining discrepancy, due to discretization:         -0.184776 (  -0.01519%)
     Trial step:       0.731640192308
             Q1:  -11723.411138418596
 Quadratic coef:       0.000000003274
 Linear coef   :      -0.000000002693
           Qmin:  -11723.411138419731
Quadratic minimum step length (  0.300884226784) accepted
    Initial Ne1:    7228.00000000
      Final Ne1:    7228.00000000

=================== Penalty functional idempotency correction ==================
 RMS occupancy error at iteration   1:  0.000000 (step -0.5000 Ne1=   7228.0000)
            Final RMS occupancy error   :  0.000000 (Ne1=   7228.0000)
               Final occupancy bounds   : [ -0.0000,  1.0000]
================================================================================

    9        -1.172341113842E+04     8.9579E-09     8.1065E-09    -9.3132E-10

Reusing previously generated solute cavity.
MG BCs: +ve charge blocks (gridpoints):     29275 (   19311405).
MG BCs: -ve charge blocks (gridpoints):      8353 (    1048509).
MG BCs:     Elided blocks (gridpoints):    175013 (  178817967).
MG BCs: Computational effort saved:  99.9811%.
MG BCs: Charge after coarse-graining:           -9.0009504.
MG DL_MG: Calling solver with defect correction order = 8
MG DL_MG: Solver finished
MG Hartree energy from (\int phi*rho dr):              1216.176353
MG Hartree energy from (\int eps (grad phi)^2 dr):     1215.985211
MG Discrepancy due to finite box and discretization:     -0.191143 (  -0.01572%)
MG Correction to account for finite box:                  0.006367
MG Remaining discrepancy, due to discretization:         -0.184776 (  -0.01519%)
      ideal mu1:      -0.481117828118
   10        -1.172341113842E+04     5.1197E-09     4.6331E-09    -3.4925E-10
Finished density kernel iterations (  10)


>>> Density kernel optimised for the current NGWF basis:
     ~~~~~~~~~~~~~~~~~~~~~~~~~~~~~~~~~~~~~~~~~~~~~~~~~~~~~~~~~~~
     Total energy                =  -1.17234111384195E+04  Eh
     Estimated bandgap           =   9.0358E-02  Eh
     RMS occupancy error         =   5.9570E-16
     [H,K] commutator            =   4.6331E-09
     Occupancy bounds            = [ -0.000:  1.000]
     ~~~~~~~~~~~~~~~~~~~~~~~~~~~~~~~~~~~~~~~~~~~~~~~~~~~~~~~~~~~




################################################################################
########################### NGWF CG iteration  004 #############################
################################################################################
****** Reciprocal space K.E. preconditioning with k_zero =  3.5000 a0^-1 *******

>>> Checking for convergence of NGWFs: 
           ........................................................
           |         *** NGWF optimisation converged ***          |
           | RMS NGWF gradient =    0.00000189136957              |
           | Criteria satisfied:                                  |
           | -> RMS NGWF gradient lower than set threshold.       |
           ========================================================

Reusing previously generated solute cavity.
MG BCs: +ve charge blocks (gridpoints):     29275 (   19311405).
MG BCs: -ve charge blocks (gridpoints):      8353 (    1048509).
MG BCs:     Elided blocks (gridpoints):    175013 (  178817967).
MG BCs: Computational effort saved:  99.9811%.
MG BCs: Charge after coarse-graining:           -9.0009504.
MG DL_MG: Calling solver with defect correction order = 8
MG DL_MG: Solver finished
MG Hartree energy from (\int phi*rho dr):              1216.176353
MG Hartree energy from (\int eps (grad phi)^2 dr):     1215.985211
MG Discrepancy due to finite box and discretization:     -0.191143 (  -0.01572%)
MG Correction to account for finite box:                  0.006367
MG Remaining discrepancy, due to discretization:         -0.184776 (  -0.01519%)

================================================================================
           ---------------- ENERGY COMPONENTS (Eh) ----------------
           | Kinetic                    :     8562.52864217620299 |
           | Pseudo. (local,OBC,corr'd) :    -5066.52102759979061 |
           | Pseudopotential (non-local):     1408.47647933213784 |
           | Hartree (molecular)        :     1216.17635344593418 |
           | Exchange-correlation       :    -3372.71264705004432 |
           | Ion-ion (open BC)          :   832309.16340821306221 |
           | Dispersion Correction      :       -3.28963321981586 |
           | Smeared ion non-self corr. :  -832260.88055155309848 |
           | Smeared ion self corr.     :   -14517.01090595763526 |
           | Solvent cavitation energy  :        2.34365843119517 |
           | Solute-solvent dis-rep en. :       -1.68491463764699 |
           | Total                      :   -11723.41113841946026 |
           --------------------------------------------------------
           ------ LOCAL ENERGY COMPONENTS FROM MATRIX TRACES ------
           | Pseudopotential (local)    :    -5066.52102759978516 |
           | Hartree                    :    -2000.54601490109803 |
           --------------------------------------------------------
           Integrated density           :     7227.99999999815191
           Integrated density tr(KS)    :     7228.00000000000000
================================================================================


                        <<<<< CALCULATION SUMMARY >>>>>                         
|ITER|    RMS GRADIENT   |     TOTAL ENERGY    |   step   |     Epredicted              
   0     0.00004405909218 -11723.33246416109614   0.648027 -11723.40087528840195        
   1     0.00000858980683 -11723.41083476261701   0.062293 -11723.41108472236374        
   2     0.00000401803563 -11723.41112549672835   0.012948 -11723.41113686535755        
   3     0.00000189136957 -11723.41113841952756  <-- CG                                 

=================== Finished the calculation in solvent ========================
= Adjusting the following parameters: 
= read_denskern: F
= read_tightbox_ngwfs: F
= maxit_pen: 0 (restored to user-specified value)
= restart read filename prefix: ""
= restart write filename prefix: ""
================================================================================

================================================================================
IS: Calculation in solvent completed (NGWFs converged).      

Individual components of total energy in solvent:     hartree           kcal/mol
- Usual non-electrostatic DFT terms:    -12940.24623565901129    -8120126.933418
- Electrostatic fixed charge energy:      1216.17635344593418      763162.167362
- Apolar cavitation energy:                  2.34365843119517        1470.667838
- Apolar dispersion-repulsion energy:       -1.68491463764699       -1057.299875
 -------------------------------------------------------------------------------
- Total energy in solvent:              -11723.41113841952756    -7356551.398094

Components of total energy in solvent:                hartree           kcal/mol
- Usual non-electrostatic DFT terms:    -12940.24623565901129    -8120126.933418
- Electrostatic energy:                   1216.17635344593418      763162.167362
- Apolar energy terms:                       0.65874379354818         413.367962
 -------------------------------------------------------------------------------
- Total energy in solvent:              -11723.41113841952756    -7356551.398094

Calculation of free energy of solvation:              hartree           kcal/mol
- Total energy in solvent:         (+)  -11723.41113841952756    -7356551.398094
- Total energy in vacuum:          (-)  -11719.31072881980799    -7353978.352278
 -------------------------------------------------------------------------------
- Total free energy of solvation:           -4.10040959971957       -2573.045816

Components of polar term in f.e. of solvation:        hartree           kcal/mol
- Electrostatic:                            -4.71817269937787       -2960.698005
- Change in nonelectrostatic DFT terms:     -0.04098069389147         -25.715773
 -------------------------------------------------------------------------------
- Polar term in f.e. of solvation:          -4.75915339326934       -2986.413778

Components of free energy of solvation:               hartree           kcal/mol
- Polar term in f.e. of solvation: (+)      -4.75915339326934       -2986.413778
- Apolar (cavitation, dis., rep.): (+)       0.65874379354818         413.367962
 -------------------------------------------------------------------------------
- Total free energy of solvation:           -4.10040959972116       -2573.045816
================================================================================


------------------------------ TIMING INFORMATION ------------------------------
AVERAGE TIME:   27012.914s on     40 node(s)                                    
TOTAL TIME:     27012.915s on     40 node(s)                                    
================= AVERAGE TIMINGS FROM ALL NODES (CUMULATIVE) ==================
|| TAG                                    #calls    cpu time   %total  Gflops ||
|| work_imbalance                       :     1        0.00s   0.000%  ------ ||
|| parallel_prepare_fd_halos_request    :  1947        0.02s   0.000%  ------ ||
|| sparse_set_to_garbage                :   176        0.04s   0.000%  ------ ||
|| parallel_prepare_fd_halos_satisfy    :  1947        0.06s   0.000%  ------ ||
|| ngwfs_initialise_from_radial         :     1        0.17s   0.001%  ------ ||
|| parallel_prepare_fd_halos_alloc      :  1947        0.18s   0.001%  ------ ||
|| basis_extract_function_from_box      :  5396        0.21s   0.001%  ------ ||
|| restart_ngwfs_tightbox_input         :     1        0.87s   0.003%  ------ ||
|| pseudopotentials_nonlocal_mat        :    30        1.44s   0.005%  ------ ||
|| parallel_prepare_fd_halos_comms_imbal:  1947        3.30s   0.012%  ------ ||
|| density_init_guess_real              :     1        3.99s   0.015%  ------ ||
|| restart_kernel_read                  :     1        4.55s   0.017%  ------ ||
|| openbc_locps_radial                  :     1        5.16s   0.019%  ------ ||
|| restart_kernel_write                 :    13       12.79s   0.047%  ------ ||
|| parallel_prepare_fd_halos_clear      :  1947       14.65s   0.054%  ------ ||
|| sparse_init                          :     2       21.45s   0.079%  ------ ||
|| projectors_func_ovlp_box             :    30       23.12s   0.086%  ------ ||
|| parallel_prepare_fd_halos_comms_wait :  1947       25.36s   0.094%  ------ ||
|| projectors_init_fftbox_recip         :   206       26.57s   0.098%  ------ ||
|| function_ops_brappd_ketppd           :    30       27.72s   0.103%  ------ ||
|| parallel_prepare_fd_halos            :  1947       43.58s   0.161%  ------ ||
|| palser_mano_kernel_optimise          :     1       48.45s   0.179%  ------ ||
|| fourier_apply_box_pair               :  7692       53.75s   0.199% 552.330 ||
|| basis_copy_function_to_box           : 87158       55.84s   0.207%  ------ ||
|| pseudo_make_structure_factor         :     2       59.49s   0.220%  ------ ||
|| ngwf_gradient_coeffs                 :    16       63.63s   0.236%  ------ ||
|| restart_ngwfs_tightbox_output        :    11       65.44s   0.242%  ------ ||
|| sparse_embed_hotelling_invert_embed  :    30       97.83s   0.362%  ------ ||
|| finite_difference_derivative         :  1947      113.48s   0.420%  ------ ||
|| integrals_kinetic                    :    30      166.61s   0.617%  ------ ||
|| openbc_locps_on_grid                 :     2      202.32s   0.749%  ------ ||
|| projectors_gradient_batch            :   176      211.68s   0.784%  ------ ||
|| fourier_apply_cell_forward           :  1297      242.44s   0.897%  75.886 ||
|| fourier_apply_cell_backward          :  1299      248.16s   0.919%  74.251 ||
|| basis_dot_function_with_box          : 13.32M     262.62s   0.972%  ------ ||
|| sparse_trace                         :  5468      268.52s   0.994%  ------ ||
|| kernel_purify                        :   495      346.25s   1.282%  ------ ||
|| hamiltonian_energy_components        :     4      428.77s   1.587%  ------ ||
|| basis_add_function_to_box            : 27.76M     542.74s   2.009%  ------ ||
|| xc_energy_potential                  :   324      567.45s   2.101%  ------ ||
|| lnv_gradient_norm                    :   160      575.20s   2.129%  ------ ||
|| kernel_fix                           :   160      687.11s   2.544%  ------ ||
|| ngwf_gradient_build_batch            :   176      767.03s   2.840%  ------ ||
|| cell_grid_deposit_box_real           : 54984      889.17s   3.292%  ------ ||
|| cell_grid_extract_box_real           : 51076      937.26s   3.470%  ------ ||
|| integrals_locpot_mat_els_batch       :  1859      938.45s   3.474%  ------ ||
|| ngwf_gradient_batch                  :   176     1072.64s   3.971%  ------ ||
|| ngwf_gradient_lnv                    :    16     1229.80s   4.553%  ------ ||
|| density_batch_row_sums               :  3553     1278.28s   4.732%  ------ ||
|| density_fftbox_deposit_to_cell       : 52972     1491.61s   5.522%  ------ ||
|| sparse_product                       :  6763     2201.65s   8.150%  ------ ||
|| multigrid_prepare_bound_cond         :   324     2485.11s   9.200%  ------ ||
|| potential_apply_to_ngwf_batch        :  1859     3298.91s  12.212%  ------ ||
|| fourier_apply_box                    : 182.8k    3698.57s  13.692% 925.296 ||
|| density_fftbox_interpolate_multiply  : 52972     3703.10s  13.709%  ------ ||
|| integrals_locpot_dbl_grid            :   169     4257.91s  15.762%  ------ ||
|| density_batch_interp_deposit         :  3553     5825.26s  21.565%  ------ ||
|| dl_mg_solver_calls                   :   324     6834.72s  25.302%  ------ ||
|| density_on_dbl_grid                  :   323     7514.09s  27.817%  ------ ||
|| multigrid_calculate_hartree          :   324     9477.04s  35.083%  ------ ||
|| hamiltonian_lhxc_calculate           :   319    17599.98s  65.154%  ------ ||
|| lnv_denskernel_optimise_cg           :    16    23227.50s  85.987%  ------ ||
|| ngwf_cg_optimise                     :     2    26180.14s  96.917%  ------ ||
|| total_time                           :     1    27012.91s 100.000%  ------ ||
================================================================================
Overhead of generating timer report: 
- 0 ms averaging over threads,
- 5 ms ensuring consistency across MPI ranks,
- 2 ms printing in order.

Job completed: 06-06-2020 04:16 (+0100)

