 +---------------------------------------------------------------+
 |                                                               |
 |        ####### #     # ####### ####### ####### ######         |
 |        #     # ##    # #          #    #       #     #        |
 |        #     # # #   # #          #    #       #     #        |
 |        #     # #  #  # #####      #    #####   ######         |
 |        #     # #   # # #          #    #       #              |
 |        #     # #    ## #          #    #       #              |
 |        ####### #     # #######    #    ####### #              |
 |                                                               |
 |        Linear-Scaling Ab Initio Total Energy Program          |
 |                                                               |
 |          Release for academic collaborators of ODG            |
 |                                             Version 5.3.2.6.  |
 |                                                               |
 +---------------------------------------------------------------+
 |                                                               |
 |  Authors:                                                     |
 |  Jacek Dziedzic, Peter D. Haynes, Nicholas D. M. Hine,        |
 |  Arash. A. Mostofi, Mike C. Payne and Chris-Kriton Skylaris   |
 |                                                               |
 |  Contributors:                                                |
 |  J. Aarons, L. Andrinopoulos, P. W. Avraam, R. A. Bell,       |
 |  A. Bhandari, G. A. Bramley, R. J. Charlton, S. J. Clark,     |
 |  R. J. Clements, G. C. Constantinescu, F. Corsetti,           |
 |  N. Corsini, O. Dieguez, S. M. M. Dubois, K. K. B. Duff,      |
 |  J. M. Escartin, A. Greco, H. Helal, Q. O. Hill, L. P. Lee,   |
 |  J.-H. Li, E. B. Linscott, G. Moynihan, D. D. O`Regan,        |
 |  O. K. Okan, M. J. S. Phipps, C. J. Pickard,                  |
 |  J. C. A. Prentice, M. I. J. Probert, L. E. Ratcliff,         |
 |  M. Robinson, A. Ruiz Serrano, J. S. Spencer, E. W. Tait,     |
 |  G. Teobaldi, D. Turban, V. Vitale, K. A. Wilkinson,          |
 |  C. Weber, J. C. Womack, N. Yeung and T. J. Zuehlsdorff       |
 |                                                               |
 |                                   Copyright (c) 2004-2019     |
 |                                                               |
 |  Please cite:                                                 |
 |  "Introducing ONETEP: Linear-scaling density functional       |
 |   simulations on parallel computers".                         |
 |   C.-K. Skylaris, P. D. Haynes, A. A. Mostofi, M. C. Payne.   |
 |   J. Chem. Phys. 122 084119 (2005).                           |
 |                                                               |
 |          in all publications arising from your use of ONETEP. |
 |                                                               |
 +---------------------------------------------------------------+
 |                                                               |
 |   ONETEP is based on developments described in the following  |
 |   publications:                                               |
 |                                                               |
 |  "Nonorthogonal generalized Wannier function pseudopotential  |
 |   plane-wave method".                                         |
 |   C.-K. Skylaris, A. A. Mostofi, P. D. Haynes, O. Dieguez,    |
 |   M. C. Payne.                                                |
 |   Phys. Rev. B 66 035119 (2002).                              |
 |                                                               |
 |  "Preconditioned iterative minimization for linear-scaling    |
 |   electronic structure calculations".                         |
 |   A. A. Mostofi, P. D. Haynes, C.-K. Skylaris, M. C. Payne.   |
 |   J. Chem. Phys. 119(17), pp.8842-8848 (2003).                |
 |                                                               |
 |  "Total-energy calculations on a real space grid with         |
 |   localized functions and a plane-wave basis".                |
 |   A. A. Mostofi, C.-K. Skylaris, P. D. Haynes, M. C. Payne.   |
 |   Comput. Phys. Commun. 147, pp.788-802 (2002).               |
 |                                                               |
 |  "Accurate kinetic energy evaluation in electronic structure  |
 |   calculations with localized functions on real space grids"  |
 |   C.-K. Skylaris, A. A. Mostofi, P. D. Haynes, C. J. Pickard, |
 |   M. C. Payne.                                                |
 |   Comput. Phys. Commun. 140, pp.315-322 (2001).               |
 |                                                               |
 |  "Accurate ionic forces and geometry optimization in linear-  |
 |   scaling density-functional theory with local orbitals"      |
 |   N. D. M. Hine, M. Robinson, P. D. Haynes, C.-K. Skylaris,   |
 |   M. C. Payne, and A. A. Mostofi.                             |
 |   Phys. Rev. B 83 195102 (2011).                              |
 |                                                               |
 +---------------------------------------------------------------+

Job started: 26-06-2020 08:31 (+0100)
 
Reading parameters from file "complex_25941.dat" ...... done

If your calculation crashes here, before "Checking processes and threads..."
is displayed, then your stack size is insufficient.
If so, use "ulimit -s unlimited" at runtime.
You can disable this check with "check_stack_size F".

Checking processes and threads...
   Determining the default number of threads...
      No default threads set at compilation time: defaulting to 1.
      OpenMP library call suggests 4 threads.
      Hybrid MPI-OpenMP compilation detected.
      Number of MPI processes > 1.
      OMP_NUM_THREADS environment variable present and
      its value matches the one obtained from the OpenMP library call.
      Using this value as default.
      Default threads: 4
      Default applies to threads_max and threads_num_fftboxes.
      Settings in the input file override this default.
   ... done

   Running with 40 MPI processes.
   There are 10 MPI processes running on the same node as the root process.
   Each MPI process is using: 
               1 threads for simulation cell FFTs.
               1 threads for parallel FFT box operations.
               4 threads for loops over batched FFT box operations.
               4 threads in other parallel regions.
... done

Basic input checks...... done

Reading geometry and species blocks from file "complex_25941.dat" ...
  <species_atomic_set> block not found: NGWF initialisation set to SOLVE
IS: Dielectric excluded regions:
    - NONE.
    
  Number of PPD points along a3 set to 1.  This is 
  the default value, it may have been provided also in the input file.
... done
 Writing xyz coordinates to file "complex_25941.xyz" ... done


--------------------------------------------------------------------------------
---------------------------------- INPUT FILE ----------------------------------
--------------------------------------------------------------------------------

cutoff_energy       : 800 eV                                                    
xc_functional PBE                                                               
task SINGLEPOINT                                                                
write_xyz true                                                                  
output_detail VERBOSE                                                           
ngwf_threshold_orig : 0.000002                                                  
kernel_cutoff       : 1000                                                      
k_zero              : 3.5                                                       
elec_cg_max 0                                                                   
occ_mix 1.0                                                                     
dispersion 1                                                                    
maxit_ngwf_cg 40                                                                
minit_lnv 10                                                                    
maxit_lnv 10                                                                    
write_denskern F                                                                
write_tightbox_ngwfs F                                                          
charge 9                                                                        
is_implicit_solvent T                                                           
is_auto_solvation T                                                             
is_include_apolar T                                                             
is_smeared_ion_rep T                                                            
is_solvent_surf_tension 4.7624E-5 Ha/bohr**2                                    
is_apolar_scaling_factor 0.281075                                               
is_solvation_beta 1.3                                                           
is_density_threshold 0.00035                                                    
is_bulk_permittivity 78.54                                                      
is_dielectric_model fix_initial                                                 
is_smeared_ion_width 0.8                                                        
mg_defco_fd_order 8                                                             
is_bc_coarseness 10                                                             
is_bc_surface_coarseness 1                                                      
fine_grid_scale 2.0                                                             
%block species                                                                  
N   N   7 4 8.0                                                                 
H   H   1 1 8.0                                                                 
C   C   6 4 8.0                                                                 
S   S  16 9 8.0                                                                 
O   O   8 4 8.0                                                                 
%endblock species                                                               
%block species_pot                                                              
N   N_00.recpot                                                                 
H   H_04.recpot                                                                 
C   C_01.recpot                                                                 
S   S_00.recpot                                                                 
O   O_02.recpot                                                                 
%endblock species_pot                                                           
%block lattice_cart                                                             
140.777   0.000   0.000                                                         
0.000 144.511   0.000                                                           
0.000   0.000   162.462                                                         
%endblock lattice_cart                                                          
%block positions_abs                                                            
     Hash =   000001380922224488117241
%endblock positions_abs                                                         

--------------------------------------------------------------------------------
-------------------------------- END INPUT FILE --------------------------------
--------------------------------------------------------------------------------


 
 ESDF WARNING(1): "kernelcutoff" (esdf_physical) has no units. Assume "bohr".
 ESDF WARNING(2): "kzero" (esdf_physical) has no units. Assume "1/bohr".
 ESDF WARNING(3
 ): "issmearedionwidth" (esdf_physical) has no units. Assume "bohr".
<<<<<<<<<<<<<<<<<<<<<<<<<<<<<<<<< Full system >>>>>>>>>>>>>>>>>>>>>>>>>>>>>>>>>>
<<<<<<<<<<<<<<<<<<<<<<<<< Pseudopotential information >>>>>>>>>>>>>>>>>>>>>>>>>>
File: N_00.recpot [ 2001 points up to Gmax=  52.9 (1/bohr)]
  Atomic number:  7;  ionic charge:  5.000000
    Shell 1: l = 0; rc = 1.48 bohr
File: H_04.recpot [ 2001 points up to Gmax=  52.9 (1/bohr)]
  Atomic number:  1;  ionic charge:  1.000000
    Local potential
File: C_01.recpot [ 2001 points up to Gmax=  52.9 (1/bohr)]
  Atomic number:  6;  ionic charge:  4.000000
    Shell 1: l = 0; rc = 1.48 bohr
File: S_00.recpot [ 2001 points up to Gmax=  52.9 (1/bohr)]
  Atomic number: 16;  ionic charge:  6.000000
    Shell 1: l = 0; rc = 1.90 bohr
    Shell 2: l = 2; rc = 1.84 bohr
File: O_02.recpot [ 2001 points up to Gmax=  52.9 (1/bohr)]
  Atomic number:  8;  ionic charge:  6.000000
    Shell 1: l = 0; rc = 1.31 bohr
<<<<<<<<<<<<<<<<<<<<<<<<<<<<<<<<<<<<<<<<>>>>>>>>>>>>>>>>>>>>>>>>>>>>>>>>>>>>>>>>

-------------------------- Atom counting information ---------------------------
Symbol    Natoms    Nngwfs    Nprojs
  N        236       944       236
  H       1319      1319         0
  C        817      3268       817
  S          6        54        36
  O        239       956       239
.......   ......    ......    ......
Totals:   2617      6541      1328
--------------------------------------------------------------------------------

=============================== PSINC grid sizes ===============================
                      Simulation cell:  280 x 286 x 320
                              FFT-box:   99 x  99 x  99
                                  PPD:    5 x  11 x   1
Grid space d1=  0.502775000000a0 (KE cutoff=  30.05084Eh = 817.72503eV)
Grid space d2=  0.505283216783a0 (KE cutoff=  29.75324Eh = 809.62684eV)
Grid space d3=  0.507693750000a0 (KE cutoff=  29.47137Eh = 801.95686eV)
================================================================================

********************* Fourier parallelisation information **********************
       Coarse grid (whole simulation cell) dimensions:    280   286   320
          Real-space ('12') slabs/node (min max mean):      8     8     8
         Recip-space ('23') slabs/node (min max mean):      3     4     3
********************************************************************************

********************* Fourier parallelisation information **********************
       Double grid (whole simulation cell) dimensions:    560   572   640
          Real-space ('12') slabs/node (min max mean):     16    16    16
         Recip-space ('23') slabs/node (min max mean):      7     8     7
********************************************************************************
ONETEP fine grid is 560 x 572 x 640 gridpoints, 140.7770 x 144.5110 x 162.4620 bohr.
FD multigrid is     553 x 569 x 633 gridpoints, 139.0173 x 143.7531 x 160.6851 bohr.


Calculating local pseudopotential in open BC on a radial grid ...
Discrepancy between calculated realspace psloc and -Z/x on [5a0,259.028a0]:
max |rel. diff| # avg |rel. diff| #  avg rel. diff #  f # pseudopotential file
 0.000261578119    0.000004844123   0.000000072210   55  'N_00.recpot'
 0.000419583258    0.000017514079  -0.000000069370   55  'H_04.recpot'
 0.000363553651    0.000016734795   0.000000141192   55  'C_01.recpot'
 0.000449990737    0.000019382085   0.000000449342   55  'S_00.recpot'
 0.000706973137    0.000028359832   0.000000146371   55  'O_02.recpot'
... done

Atom SCF Calculation for N  : Z (AE atom) =   7 : Z (PS atom) =   5
Config String:
Orbitals (num,occ):  2     2.00 3.00
Orbitals   (num,l):  2        0    1
Real-space Grid (nr,dr,rmax): 1203    0.0066555740    8.0000000000
Spherical Bessel Basis (nsws,lmax,cutoff):   47    1  176.3951722778
Confining potential (l,width,scale):  0    3.0000000000  100.0000000000
Confining potential (l,width,scale):  1    3.0000000000  100.0000000000
  1         -4.7312375307   -3.4155304497    7.0523828109   -1.9351020946
  2         -9.7309464766   -2.0532547791    8.2966052865   -2.2494486027
  3         -9.6627394379   -2.1124926340    8.2327997121   -2.2369778124
  4         -9.6814993499   -2.1215521045    8.2229805960   -2.2365178421
  5         -9.6843326483   -2.1250939529    8.2191374534   -2.2362718126
  6         -9.6859628709   -2.1267894855    8.2172963573   -2.2362066344
  7         -9.6867347035   -2.1276425665    8.2163697352   -2.2361903369
  8         -9.6870802100   -2.1280764625    8.2158983890   -2.2361891460
  9         -9.6872290423   -2.1282977424    8.2156580222   -2.2361920435
 10         -9.6872901988   -2.1284107021    8.2155353368   -2.2361953393
 11         -9.6873135296   -2.1284684031    8.2154726809   -2.2361979819
 12         -9.6873212476   -2.1284978948    8.2154406648   -2.2361998431
 13         -9.6873229586   -2.1285129774    8.2154242957   -2.2362010676
 14         -9.6873226456   -2.1285206957    8.2154159216   -2.2362018403
 15         -9.6873218534   -2.1285246479    8.2154116349   -2.2362023142
 16         -9.6873212599   -2.1285262679    8.2154098784   -2.2362025420
 17         -9.6873207834   -2.1285272564    8.2154088068   -2.2362026955
 18         -9.6873204210   -2.1285278597    8.2154081529   -2.2362027982
 19         -9.6873201550   -2.1285282280    8.2154077538   -2.2362028667
 20         -9.6873199645   -2.1285284529    8.2154075102   -2.2362029121
 21         -9.6873198305   -2.1285285903    8.2154073614   -2.2362029421
 22         -9.6873197377   -2.1285286742    8.2154072705   -2.2362029618
Atom SCF converged after  22 iterations to a total energy of     -9.68731974

Atom SCF Calculation for H  : Z (AE atom) =   1 : Z (PS atom) =   1
Config String:
Orbitals (num,occ):  1     1.00
Orbitals   (num,l):  1        0
Real-space Grid (nr,dr,rmax): 1203    0.0066555740    8.0000000000
Spherical Bessel Basis (nsws,lmax,cutoff):   47    0  176.3951722778
Confining potential (l,width,scale):  0    3.0000000000  100.0000000000
  1         -0.3194257691   -0.2393854593    0.2820953124   -0.2424203209
  2         -0.3951823392   -0.2377116493    0.2886404059   -0.2475147891
  3         -0.4317044583   -0.2352244387    0.2921333887   -0.2514046172
  4         -0.4470703708   -0.2341892222    0.2934391879   -0.2531009782
  5         -0.4532132900   -0.2338556667    0.2938388426   -0.2537313520
  6         -0.4556579251   -0.2337612552    0.2939448584   -0.2539550462
  7         -0.4566418315   -0.2337377355    0.2939680120   -0.2540342273
  8         -0.4570437922   -0.2337331116    0.2939708287   -0.2540627372
  9         -0.4572102946   -0.2337328328    0.2939698291   -0.2540732650
 10         -0.4572800424   -0.2337332404    0.2939687193   -0.2540772588
 11         -0.4573095100   -0.2337335791    0.2939680317   -0.2540788122
 12         -0.4573220379   -0.2337337762    0.2939676699   -0.2540794294
 13         -0.4573273880   -0.2337338775    0.2939674931   -0.2540796787
 14         -0.4573296803   -0.2337339266    0.2939674099   -0.2540797808
 15         -0.4573306647   -0.2337339495    0.2939673718   -0.2540798230
 16         -0.4573310882   -0.2337339601    0.2939673545   -0.2540798406
 17         -0.4573312706   -0.2337339649    0.2939673467   -0.2540798479
 18         -0.4573313493   -0.2337339670    0.2939673433   -0.2540798510
Atom SCF converged after  18 iterations to a total energy of     -0.45733135

Atom SCF Calculation for C  : Z (AE atom) =   6 : Z (PS atom) =   4
Config String:
Orbitals (num,occ):  2     2.00 2.00
Orbitals   (num,l):  2        0    1
Real-space Grid (nr,dr,rmax): 1203    0.0066555740    8.0000000000
Spherical Bessel Basis (nsws,lmax,cutoff):   47    1  176.3951722778
Confining potential (l,width,scale):  0    3.0000000000  100.0000000000
Confining potential (l,width,scale):  1    3.0000000000  100.0000000000
  1         -5.2976922011   -1.3069684169    4.5135249990   -1.4493313817
  2         -5.3721716256   -1.3429755895    4.4750154450   -1.4361613026
  3         -5.3809959565   -1.3617365618    4.4541655428   -1.4305930207
  4         -5.3918938866   -1.3667928461    4.4484735100   -1.4294652294
  5         -5.3956096428   -1.3688539142    4.4461376126   -1.4290734646
  6         -5.3968271862   -1.3696852393    4.4451910874   -1.4289366866
  7         -5.3972028401   -1.3700178062    4.4448112275   -1.4288900460
  8         -5.3973067903   -1.3701500158    4.4446598370   -1.4288749220
  9         -5.3973286940   -1.3702023868    4.4445997329   -1.4288704293
 10         -5.3973289850   -1.3702230869    4.4445759233   -1.4288693188
 11         -5.3973254264   -1.3702312560    4.4445665049   -1.4288691775
 12         -5.3973224003   -1.3702344755    4.4445627836   -1.4288692549
 13         -5.3973208708   -1.3702354890    4.4445616088   -1.4288693270
 14         -5.3973198783   -1.3702360102    4.4445610034   -1.4288693814
 15         -5.3973192535   -1.3702362780    4.4445606917   -1.4288694190
 16         -5.3973188684   -1.3702364155    4.4445605313   -1.4288694437
 17         -5.3973186349   -1.3702364860    4.4445604489   -1.4288694595
 18         -5.3973184951   -1.3702365221    4.4445604065   -1.4288694693
 19         -5.3973184122   -1.3702365405    4.4445603848   -1.4288694753
Atom SCF converged after  19 iterations to a total energy of     -5.39731841

Atom SCF Calculation for S  : Z (AE atom) =  16 : Z (PS atom) =   6
Config String:
Orbitals (num,occ):  3     2.00 4.00 0.00
Orbitals   (num,l):  3        0    1    2
Real-space Grid (nr,dr,rmax): 1203    0.0066555740    8.0000000000
Spherical Bessel Basis (nsws,lmax,cutoff):   47    2  176.3951722778
Confining potential (l,width,scale):  0    3.0000000000  100.0000000000
Confining potential (l,width,scale):  1    3.0000000000  100.0000000000
Confining potential (l,width,scale):  2    3.0000000000  100.0000000000
  1        -12.4735062396   -1.0328741412   10.1554312477   -2.4512393157
  2         -9.9458301913   -2.4607392455    8.3041325857   -2.0306994528
  3        -10.1450417646   -2.2931184565    8.4831893826   -2.0812538287
  4        -10.1528335592   -2.2733105793    8.5050388867   -2.0896035179
  5        -10.1571940363   -2.2633716629    8.5160794258   -2.0939370707
  6        -10.1594380571   -2.2584938667    8.5215163935   -2.0961289008
  7        -10.1605856507   -2.2561081821    8.5241804044   -2.0972291378
  8        -10.1611799191   -2.2549395235    8.5254868240   -2.0977806248
  9        -10.1614918752   -2.2543658586    8.5261285885   -2.0980571586
 10        -10.1616572884   -2.2540839121    8.5264441898   -2.0981959233
 11        -10.1617455602   -2.2539453058    8.5265994231   -2.0982656006
 12        -10.1617928447   -2.2538772062    8.5266757320   -2.0983006047
 13        -10.1618182292   -2.2538437891    8.5267131983   -2.0983181961
 14        -10.1618318741   -2.2538274201    8.5267315620   -2.0983270391
 15        -10.1618392144   -2.2538194197    8.5267405433   -2.0983314852
 16        -10.1618431651   -2.2538155200    8.5267449245   -2.0983337210
 17        -10.1618452923   -2.2538136252    8.5267470551   -2.0983348455
 18        -10.1618464380   -2.2538127080    8.5267480875   -2.0983354110
 19        -10.1618470552   -2.2538122659    8.5267485856   -2.0983356955
 20        -10.1618473878   -2.2538120540    8.5267488248   -2.0983358386
 21        -10.1618475670   -2.2538119530    8.5267489389   -2.0983359106
 22        -10.1618476637   -2.2538119053    8.5267489929   -2.0983359468
Atom SCF converged after  22 iterations to a total energy of    -10.16184766

Atom SCF Calculation for O  : Z (AE atom) =   8 : Z (PS atom) =   6
Config String:
Orbitals (num,occ):  2     2.00 4.00
Orbitals   (num,l):  2        0    1
Real-space Grid (nr,dr,rmax): 1203    0.0066555740    8.0000000000
Spherical Bessel Basis (nsws,lmax,cutoff):   47    1  176.3951722778
Confining potential (l,width,scale):  0    3.0000000000  100.0000000000
Confining potential (l,width,scale):  1    3.0000000000  100.0000000000
  1         -1.8735052164   -7.5539365035   10.1554312477   -2.4512393157
  2        -16.0318313751   -3.1285771268   13.6395848164   -3.2358799643
  3        -15.9524020423   -3.0762819706   13.6967272503   -3.2536856837
  4        -15.8521515939   -3.0781493909   13.6951909330   -3.2561700440
  5        -15.8357139793   -3.0748501933   13.6988803334   -3.2580493133
  6        -15.8246052853   -3.0740779781   13.6997881576   -3.2588327446
  7        -15.8189019501   -3.0737449687   13.7001869911   -3.2592378801
  8        -15.8159785510   -3.0736026016   13.7003615168   -3.2594475790
  9        -15.8144776168   -3.0735437994   13.7004360379   -3.2595560735
 10        -15.8137058024   -3.0735207882   13.7004667348   -3.2596122456
 11        -15.8133083127   -3.0735125946   13.7004786868   -3.2596413656
 12        -15.8131032938   -3.0735102195   13.7004828997   -3.2596564858
 13        -15.8129973902   -3.0735099286   13.7004840891   -3.2596643505
 14        -15.8129426040   -3.0735102506   13.7004842061   -3.2596684489
 15        -15.8129142203   -3.0735106556   13.7004840157   -3.2596705887
 16        -15.8128994940   -3.0735109855   13.7004837906   -3.2596717080
 17        -15.8128918425   -3.0735112169   13.7004836103   -3.2596722946
 18        -15.8128878614   -3.0735113674   13.7004834848   -3.2596726026
 19        -15.8128857871   -3.0735114608   13.7004834035   -3.2596727646
 20        -15.8128847048   -3.0735115170   13.7004833533   -3.2596728500
 21        -15.8128841394   -3.0735115501   13.7004833231   -3.2596728951
 22        -15.8128838436   -3.0735115693   13.7004833054   -3.2596729190
 23        -15.8128836887   -3.0735115802   13.7004832951   -3.2596729316
 24        -15.8128836074   -3.0735115864   13.7004832893   -3.2596729383
Atom SCF converged after  24 iterations to a total energy of    -15.81288361

========================== Calculation in vacuum ==============================
= Adjusting the following parameters: 
= is_implicit_solvent: F
= is_include_apolar: F
= write_denskern: T
= write_tightbox_ngwfs: T
= restart read filename prefix: ""
= restart write filename prefix: "vacuum_"
===============================================================================

Determining parallel strategy ...
... using space-filling curve
... NGWF load balancing: max    164;  min    163;  average    164
... Projector load balancing: max     36;  min     32;  average     33
... done
Calculating direct Ion-Ion energy ...
Ion-Ion Energy        :    830675.43483502231538
======================= Empirical dispersion information =======================
Model : Elstner
Dispersion Correction Energy: -0.32797302E+01 Hartree
================================================================================
Basis initialisation ...... NGWF spheres initialised
... Projector spheres initialised
... NGWF tight boxes initialised
... Tight-boxes gathered
... NGWF basis size (local,global):    1272212  50933439
... Nonlocal pseudopotential projector initialisation
... done

========================== Sparse matrix information ===========================
                        Overlap matrix filling:   6.73%
                        Density kernel filling: 100.00%
              NGWF-Proj overlap matrix filling:   1.76%
                    Hamiltonian matrix filling:   7.59%
                  NGWF diagonal matrix filling:   0.05%
                             KS matrix filling: 100.00% 
                           KSKS matrix filling: 100.00% 
================================================================================

Sparse matrix initialisation ... done

Generating smeared ion density ... done
Smeared ion self correction:     -14517.010906
Smeared ion non-self correction: -830627.231609
NGWF initialisation ...... done
============ Calculation of NGWF S^-1 using Hotelling algorithm ================ 
         Iteration  |  Frobenius norm and Maximum abs value    (of I-S*S_n^-1)   
               1       0.78723398E+02     0.98282963E+00
               2       0.76886616E+02     0.96608311E+00
               3       0.73906617E+02     0.93381309E+00
               4       0.69660744E+02     0.87412557E+00
               5       0.64360471E+02     0.77184117E+00
               6       0.58390585E+02     0.70626521E+00
               7       0.52371793E+02     0.67083971E+00
               8       0.46811072E+02     0.64519448E+00
               9       0.40769958E+02     0.60513425E+00
              10       0.32556178E+02     0.53644832E+00
              11       0.22014478E+02     0.42557107E+00
              12       0.11366839E+02     0.27468177E+00
              13       0.38219609E+01     0.12569238E+00
              14       0.63441004E+00     0.34324964E-01
              15       0.34842497E-01     0.31431437E-02
              16       0.26125443E-03     0.35667374E-04
              17       0.26470964E-07     0.50206983E-08
              18       0.98573102E-13     0.54400928E-14
================================================================================
Calculating local pseudopotential in open BC on the fine real space grid ...
... done

MG BCs: +ve charge blocks (gridpoints):     20314 (   15928037).
MG BCs: -ve charge blocks (gridpoints):      8017 (    1079717).
MG BCs:     Elided blocks (gridpoints):    183974 (  182170127).
MG BCs: Computational effort saved:  99.9858%.
MG BCs: Charge after coarse-graining:           -9.0002252.
MG DL_MG: Calling solver with defect correction order = 8
MG DL_MG: Solver finished
MG Hartree energy from (\int phi*rho dr):              1471.141615
MG Hartree energy from (\int eps (grad phi)^2 dr):     1470.528172
MG Discrepancy due to finite box and discretization:     -0.613443 (  -0.04170%)
MG Correction to account for finite box:                  0.459110
MG Remaining discrepancy, due to discretization:         -0.154333 (  -0.01049%)
Up spin density kernel initialisation ... 
======= Optimisation of K by Palser-Manolopoulos canonical purification ======== 
         Iteration  |  Band structure energy |    c_n   
               1       -2585.46612141598553    0.5271338
               2       -2762.34494855068669    0.5172293
               3       -2943.81510974636876    0.5154194
               4       -3095.61340404018028    0.5286181
               5       -3189.34295237599690    0.5637172
               6       -3228.80555467789463    0.6086563
               7       -3242.22180549830955    0.6225892
               8       -3247.96927184819879    0.6243343
               9       -3250.74023823198877    0.6455598
              10       -3251.88131261391300    0.6776446
              11       -3252.33051150716892    0.6905037
              12       -3252.54465814030027    0.6802727
              13       -3252.66569437976796    0.6498884
              14       -3252.73799987792518    0.5903108
              15       -3252.78079988462741    0.5060030
              16       -3252.79966855669909    0.4470265
              17       -3252.80069701876437    0.4714255
              18       -3252.80116672551776    0.4923048
              19       -3252.80159602255344    0.4973770
              20       -3252.80202877298279    0.4952507
              21       -3252.80237971389670    0.4943683
              22       -3252.80254541514569    0.4981531
              23       -3252.80257918211964    0.4999480
              24       -3252.80258077428243    0.5000005
              25       -3252.80258077815324    0.5000005
Termination criterion satisfied: band energy change below threshold.
Final occupancy bounds: [    0.00000000000001:    1.00000000000000]
Closest occupancy to 0.5:     1.00000000000000
================================================================================
... done

Writing density kernel to file "complex_25941.vacuum_dkn" ... done

>>> Optimising kernel for current NGWFs:
   Initial electron number for spin 1:    7228.00000000
     Final electron number for spin 1:    7228.00000000

=================== Penalty functional idempotency correction ==================
 RMS occupancy error at iteration   1:  0.000000 (step -0.5000 Ne1=   7228.0000)
            Final RMS occupancy error   :  0.000000 (Ne1=   7228.0000)
               Final occupancy bounds   : [ -0.0000,  1.0000]
================================================================================

................................................................................
<<<<<<<<<<<<<< LNV (Original version) density kernel optimisation >>>>>>>>>>>>>>
~~~~~~~~~~~~~~~~~~~~~~~~~~~~~~~~~~~~~~~~~~~~~~~~~~~~~~~~~~~~~~~~~~~~~~~~~~~~~~~~
   iter  |      energy (Eh)       | rms gradient |  commutator  |   dE (Eh)
MG BCs: +ve charge blocks (gridpoints):     30548 (   17088550).
MG BCs: -ve charge blocks (gridpoints):      8353 (    1112830).
MG BCs:     Elided blocks (gridpoints):    173730 (  180976501).
MG BCs: Computational effort saved:  99.9805%.
MG BCs: Charge after coarse-graining:           -9.0009502.
MG DL_MG: Calling solver with defect correction order = 8
MG DL_MG: Solver finished
MG Hartree energy from (\int phi*rho dr):              1424.451377
MG Hartree energy from (\int eps (grad phi)^2 dr):     1423.790276
MG Discrepancy due to finite box and discretization:     -0.661101 (  -0.04641%)
MG Correction to account for finite box:                  0.463756
MG Remaining discrepancy, due to discretization:         -0.197345 (  -0.01385%)
      ideal mu1:      -0.733054612677
             Q0:  -11552.436527252081
             G0:    -141.767347952096
   RMS gradient:       0.001820304147
MG BCs: +ve charge blocks (gridpoints):     30545 (   17170596).
MG BCs: -ve charge blocks (gridpoints):      8265 (    1091963).
MG BCs:     Elided blocks (gridpoints):    173733 (  180915322).
MG BCs: Computational effort saved:  99.9805%.
MG BCs: Charge after coarse-graining:           -9.0009695.
MG DL_MG: Calling solver with defect correction order = 8
MG DL_MG: Solver finished
MG Hartree energy from (\int phi*rho dr):              1450.429158
MG Hartree energy from (\int eps (grad phi)^2 dr):     1449.783851
MG Discrepancy due to finite box and discretization:     -0.645307 (  -0.04449%)
MG Correction to account for finite box:                  0.463870
MG Remaining discrepancy, due to discretization:         -0.181437 (  -0.01251%)
     Trial step:       0.500000000000
             Q1:  -11563.378010827699
 Quadratic coef:      59.942190400430
 Linear coef   :     -70.883673976048
           Qmin:  -11573.392114638767
Quadratic minimum step length (  0.295633482454) accepted
    Initial Ne1:    7228.00000000
      Final Ne1:    7228.00000000

=================== Penalty functional idempotency correction ==================
 RMS occupancy error at iteration   1:  0.003303 (step -0.4888 Ne1=   7228.0000)
 RMS occupancy error at iteration   2:  0.000024 (step -0.5000 Ne1=   7228.0000)
            Final RMS occupancy error   :  0.000000 (Ne1=   7228.0000)
               Final occupancy bounds   : [  0.0000,  1.0000]
================================================================================

    1        -1.155243652725E+04     1.8203E-03     1.6473E-03
MG BCs: +ve charge blocks (gridpoints):     30549 (   17139520).
MG BCs: -ve charge blocks (gridpoints):      8309 (    1100516).
MG BCs:     Elided blocks (gridpoints):    173728 (  180937845).
MG BCs: Computational effort saved:  99.9805%.
MG BCs: Charge after coarse-graining:           -9.0009609.
MG DL_MG: Calling solver with defect correction order = 8
MG DL_MG: Solver finished
MG Hartree energy from (\int phi*rho dr):              1431.946660
MG Hartree energy from (\int eps (grad phi)^2 dr):     1431.295877
MG Discrepancy due to finite box and discretization:     -0.650783 (  -0.04545%)
MG Correction to account for finite box:                  0.463680
MG Remaining discrepancy, due to discretization:         -0.187103 (  -0.01307%)
      ideal mu1:      -0.770115506197
             Q0:  -11573.778971311986
             G0:     -11.550730804841
   RMS gradient:       0.000516165903
MG BCs: +ve charge blocks (gridpoints):     30548 (   17155741).
MG BCs: -ve charge blocks (gridpoints):      8291 (    1095560).
MG BCs:     Elided blocks (gridpoints):    173729 (  180926580).
MG BCs: Computational effort saved:  99.9805%.
MG BCs: Charge after coarse-graining:           -9.0009650.
MG DL_MG: Calling solver with defect correction order = 8
MG DL_MG: Solver finished
MG Hartree energy from (\int phi*rho dr):              1437.441590
MG Hartree energy from (\int eps (grad phi)^2 dr):     1436.794298
MG Discrepancy due to finite box and discretization:     -0.647292 (  -0.04503%)
MG Correction to account for finite box:                  0.463452
MG Remaining discrepancy, due to discretization:         -0.183840 (  -0.01279%)
     Trial step:       0.384469428209
             Q1:  -11576.490419391193
 Quadratic coef:       1.729454788721
 Linear coef   :      -4.440902867929
           Qmin:  -11576.629814596672
Quadratic minimum step length (  0.493621283857) accepted
    Initial Ne1:    7227.99992353
      Final Ne1:    7228.00000000

=================== Penalty functional idempotency correction ==================
 RMS occupancy error at iteration   1:  0.001727 (step -0.4935 Ne1=   7228.0000)
 RMS occupancy error at iteration   2:  0.000009 (step -0.5000 Ne1=   7228.0000)
            Final RMS occupancy error   :  0.000000 (Ne1=   7228.0000)
               Final occupancy bounds   : [  0.0000,  1.0000]
================================================================================

    2        -1.157377897131E+04     5.1617E-04     4.6711E-04    -2.1342E+01
MG BCs: +ve charge blocks (gridpoints):     30541 (   17160231).
MG BCs: -ve charge blocks (gridpoints):      8277 (    1094103).
MG BCs:     Elided blocks (gridpoints):    173736 (  180923547).
MG BCs: Computational effort saved:  99.9805%.
MG BCs: Charge after coarse-graining:           -9.0009664.
MG DL_MG: Calling solver with defect correction order = 8
MG DL_MG: Solver finished
MG Hartree energy from (\int phi*rho dr):              1439.042420
MG Hartree energy from (\int eps (grad phi)^2 dr):     1438.396043
MG Discrepancy due to finite box and discretization:     -0.646377 (  -0.04492%)
MG Correction to account for finite box:                  0.463400
MG Remaining discrepancy, due to discretization:         -0.182977 (  -0.01272%)
      ideal mu1:      -0.789809435151
             Q0:  -11576.663412877009
             G0:      -1.826680428128
   RMS gradient:       0.000205405109
MG BCs: +ve charge blocks (gridpoints):     30546 (   17159841).
MG BCs: -ve charge blocks (gridpoints):      8276 (    1095114).
MG BCs:     Elided blocks (gridpoints):    173731 (  180922926).
MG BCs: Computational effort saved:  99.9805%.
MG BCs: Charge after coarse-graining:           -9.0009659.
MG DL_MG: Calling solver with defect correction order = 8
MG DL_MG: Solver finished
MG Hartree energy from (\int phi*rho dr):              1436.903665
MG Hartree energy from (\int eps (grad phi)^2 dr):     1436.257660
MG Discrepancy due to finite box and discretization:     -0.646005 (  -0.04496%)
MG Correction to account for finite box:                  0.463225
MG Remaining discrepancy, due to discretization:         -0.182780 (  -0.01272%)
     Trial step:       0.435640095441
             Q1:  -11577.121309207985
 Quadratic coef:       0.337878905075
 Linear coef   :      -0.795775236051
           Qmin:  -11577.131967007499
Quadratic minimum step length (  0.513011606490) accepted
    Initial Ne1:    7227.99996932
      Final Ne1:    7228.00000000

=================== Penalty functional idempotency correction ==================
 RMS occupancy error at iteration   1:  0.000574 (step -0.4977 Ne1=   7228.0000)
 RMS occupancy error at iteration   2:  0.000001 (step -0.5000 Ne1=   7228.0000)
            Final RMS occupancy error   :  0.000000 (Ne1=   7228.0000)
               Final occupancy bounds   : [  0.0000,  1.0000]
================================================================================

    3        -1.157666341288E+04     2.0541E-04     1.8588E-04    -2.8844E+00
MG BCs: +ve charge blocks (gridpoints):     30547 (   17159899).
MG BCs: -ve charge blocks (gridpoints):      8277 (    1095255).
MG BCs:     Elided blocks (gridpoints):    173730 (  180922727).
MG BCs: Computational effort saved:  99.9805%.
MG BCs: Charge after coarse-graining:           -9.0009658.
MG DL_MG: Calling solver with defect correction order = 8
MG DL_MG: Solver finished
MG Hartree energy from (\int phi*rho dr):              1436.532043
MG Hartree energy from (\int eps (grad phi)^2 dr):     1435.886095
MG Discrepancy due to finite box and discretization:     -0.645948 (  -0.04497%)
MG Correction to account for finite box:                  0.463194
MG Remaining discrepancy, due to discretization:         -0.182754 (  -0.01272%)
      ideal mu1:      -0.790194869004
             Q0:  -11577.136135861394
             G0:      -0.427516451768
   RMS gradient:       0.000099472621
MG BCs: +ve charge blocks (gridpoints):     30546 (   17160765).
MG BCs: -ve charge blocks (gridpoints):      8275 (    1094959).
MG BCs:     Elided blocks (gridpoints):    173731 (  180922157).
MG BCs: Computational effort saved:  99.9805%.
MG BCs: Charge after coarse-graining:           -9.0009659.
MG DL_MG: Calling solver with defect correction order = 8
MG DL_MG: Solver finished
MG Hartree energy from (\int phi*rho dr):              1437.680281
MG Hartree energy from (\int eps (grad phi)^2 dr):     1437.034292
MG Discrepancy due to finite box and discretization:     -0.645989 (  -0.04493%)
MG Correction to account for finite box:                  0.463116
MG Remaining discrepancy, due to discretization:         -0.182873 (  -0.01272%)
     Trial step:       0.472745624214
             Q1:  -11577.234253424220
 Quadratic coef:       0.103988969027
 Linear coef   :      -0.202106531853
           Qmin:  -11577.234336301786
Quadratic minimum step length (  0.459399585612) accepted
    Initial Ne1:    7227.99999344
      Final Ne1:    7228.00000000

=================== Penalty functional idempotency correction ==================
 RMS occupancy error at iteration   1:  0.000185 (step -0.4992 Ne1=   7228.0000)
            Final RMS occupancy error   :  0.000000 (Ne1=   7228.0000)
               Final occupancy bounds   : [ -0.0000,  1.0000]
================================================================================

    4        -1.157713613586E+04     9.9473E-05     9.0018E-05    -4.7272E-01
MG BCs: +ve charge blocks (gridpoints):     30545 (   17160736).
MG BCs: -ve charge blocks (gridpoints):      8275 (    1094954).
MG BCs:     Elided blocks (gridpoints):    173732 (  180922191).
MG BCs: Computational effort saved:  99.9805%.
MG BCs: Charge after coarse-graining:           -9.0009659.
MG DL_MG: Calling solver with defect correction order = 8
MG DL_MG: Solver finished
MG Hartree energy from (\int phi*rho dr):              1437.647893
MG Hartree energy from (\int eps (grad phi)^2 dr):     1437.001905
MG Discrepancy due to finite box and discretization:     -0.645987 (  -0.04493%)
MG Correction to account for finite box:                  0.463118
MG Remaining discrepancy, due to discretization:         -0.182869 (  -0.01272%)
      ideal mu1:      -0.790447894145
             Q0:  -11577.234753635712
             G0:      -0.104523275673
   RMS gradient:       0.000049326520
MG BCs: +ve charge blocks (gridpoints):     30543 (   17160752).
MG BCs: -ve charge blocks (gridpoints):      8274 (    1094820).
MG BCs:     Elided blocks (gridpoints):    173734 (  180922309).
MG BCs: Computational effort saved:  99.9805%.
MG BCs: Charge after coarse-graining:           -9.0009659.
MG DL_MG: Calling solver with defect correction order = 8
MG DL_MG: Solver finished
MG Hartree energy from (\int phi*rho dr):              1438.042752
MG Hartree energy from (\int eps (grad phi)^2 dr):     1437.396647
MG Discrepancy due to finite box and discretization:     -0.646104 (  -0.04493%)
MG Correction to account for finite box:                  0.463096
MG Remaining discrepancy, due to discretization:         -0.183008 (  -0.01273%)
     Trial step:       0.466024831810
             Q1:  -11577.260508070001
 Quadratic coef:       0.022956007677
 Linear coef   :      -0.048710441966
           Qmin:  -11577.260593354773
Quadratic minimum step length (  0.494429951497) accepted
    Initial Ne1:    7228.00162830
      Final Ne1:    7228.00000000

=================== Penalty functional idempotency correction ==================
 RMS occupancy error at iteration   1:  0.000066 (step -0.4997 Ne1=   7228.0000)
            Final RMS occupancy error   :  0.000000 (Ne1=   7228.0000)
               Final occupancy bounds   : [ -0.0000,  1.0000]
================================================================================

    5        -1.157723475364E+04     4.9327E-05     4.4638E-05    -9.8618E-02
MG BCs: +ve charge blocks (gridpoints):     30542 (   17160723).
MG BCs: -ve charge blocks (gridpoints):      8274 (    1094829).
MG BCs:     Elided blocks (gridpoints):    173735 (  180922329).
MG BCs: Computational effort saved:  99.9805%.
MG BCs: Charge after coarse-graining:           -9.0009660.
MG DL_MG: Calling solver with defect correction order = 8
MG DL_MG: Solver finished
MG Hartree energy from (\int phi*rho dr):              1438.066861
MG Hartree energy from (\int eps (grad phi)^2 dr):     1437.420749
MG Discrepancy due to finite box and discretization:     -0.646112 (  -0.04493%)
MG Correction to account for finite box:                  0.463095
MG Remaining discrepancy, due to discretization:         -0.183017 (  -0.01273%)
      ideal mu1:      -0.790424060679
             Q0:  -11577.260642997455
             G0:      -0.032167358121
   RMS gradient:       0.000027385792
MG BCs: +ve charge blocks (gridpoints):     30544 (   17160438).
MG BCs: -ve charge blocks (gridpoints):      8274 (    1095001).
MG BCs:     Elided blocks (gridpoints):    173733 (  180922442).
MG BCs: Computational effort saved:  99.9805%.
MG BCs: Charge after coarse-graining:           -9.0009658.
MG DL_MG: Calling solver with defect correction order = 8
MG DL_MG: Solver finished
MG Hartree energy from (\int phi*rho dr):              1437.440663
MG Hartree energy from (\int eps (grad phi)^2 dr):     1436.794548
MG Discrepancy due to finite box and discretization:     -0.646115 (  -0.04495%)
MG Correction to account for finite box:                  0.463110
MG Remaining discrepancy, due to discretization:         -0.183005 (  -0.01273%)
     Trial step:       0.480017327800
             Q1:  -11577.270823969273
 Quadratic coef:       0.005259917469
 Linear coef   :      -0.015440889288
           Qmin:  -11577.271974974781
Quadratic minimum step length (  0.704563755874) accepted
    Initial Ne1:    7228.00105217
      Final Ne1:    7228.00000000

=================== Penalty functional idempotency correction ==================
 RMS occupancy error at iteration   1:  0.000043 (step -0.4997 Ne1=   7228.0000)
            Final RMS occupancy error   :  0.000000 (Ne1=   7228.0000)
               Final occupancy bounds   : [ -0.0000,  1.0000]
================================================================================

    6        -1.157726064300E+04     2.7386E-05     2.4783E-05    -2.5889E-02
MG BCs: +ve charge blocks (gridpoints):     30545 (   17160278).
MG BCs: -ve charge blocks (gridpoints):      8274 (    1095115).
MG BCs:     Elided blocks (gridpoints):    173732 (  180922488).
MG BCs: Computational effort saved:  99.9805%.
MG BCs: Charge after coarse-graining:           -9.0009657.
MG DL_MG: Calling solver with defect correction order = 8
MG DL_MG: Solver finished
MG Hartree energy from (\int phi*rho dr):              1437.146922
MG Hartree energy from (\int eps (grad phi)^2 dr):     1436.500806
MG Discrepancy due to finite box and discretization:     -0.646116 (  -0.04496%)
MG Correction to account for finite box:                  0.463116
MG Remaining discrepancy, due to discretization:         -0.182999 (  -0.01273%)
      ideal mu1:      -0.790183005605
             Q0:  -11577.271984834457
             G0:      -0.017615576143
   RMS gradient:       0.000020291039
MG BCs: +ve charge blocks (gridpoints):     30545 (   17160732).
MG BCs: -ve charge blocks (gridpoints):      8274 (    1094876).
MG BCs:     Elided blocks (gridpoints):    173732 (  180922273).
MG BCs: Computational effort saved:  99.9805%.
MG BCs: Charge after coarse-graining:           -9.0009659.
MG DL_MG: Calling solver with defect correction order = 8
MG DL_MG: Solver finished
MG Hartree energy from (\int phi*rho dr):              1437.762181
MG Hartree energy from (\int eps (grad phi)^2 dr):     1437.116107
MG Discrepancy due to finite box and discretization:     -0.646073 (  -0.04494%)
MG Correction to account for finite box:                  0.463095
MG Remaining discrepancy, due to discretization:         -0.182979 (  -0.01273%)
     Trial step:       0.581552071065
             Q1:  -11577.276466089766
 Quadratic coef:       0.005763119480
 Linear coef   :      -0.010244374789
           Qmin:  -11577.276537369555
Quadratic minimum step length (  0.516876094310) accepted
    Initial Ne1:    7228.00026576
      Final Ne1:    7228.00000000

=================== Penalty functional idempotency correction ==================
 RMS occupancy error at iteration   1:  0.000003 (step -0.5000 Ne1=   7228.0000)
            Final RMS occupancy error   :  0.000000 (Ne1=   7228.0000)
               Final occupancy bounds   : [  0.0000,  1.0000]
================================================================================

    7        -1.157727198483E+04     2.0291E-05     1.8362E-05    -1.1342E-02
MG BCs: +ve charge blocks (gridpoints):     30545 (   17160669).
MG BCs: -ve charge blocks (gridpoints):      8274 (    1094904).
MG BCs:     Elided blocks (gridpoints):    173732 (  180922308).
MG BCs: Computational effort saved:  99.9805%.
MG BCs: Charge after coarse-graining:           -9.0009659.
MG DL_MG: Calling solver with defect correction order = 8
MG DL_MG: Solver finished
MG Hartree energy from (\int phi*rho dr):              1437.693646
MG Hartree energy from (\int eps (grad phi)^2 dr):     1437.047568
MG Discrepancy due to finite box and discretization:     -0.646078 (  -0.04494%)
MG Correction to account for finite box:                  0.463097
MG Remaining discrepancy, due to discretization:         -0.182981 (  -0.01273%)
      ideal mu1:      -0.790416954220
             Q0:  -11577.276537655154
             G0:      -0.010583577111
   RMS gradient:       0.000015729063
MG BCs: +ve charge blocks (gridpoints):     30546 (   17160795).
MG BCs: -ve charge blocks (gridpoints):      8274 (    1094842).
MG BCs:     Elided blocks (gridpoints):    173731 (  180922244).
MG BCs: Computational effort saved:  99.9805%.
MG BCs: Charge after coarse-graining:           -9.0009659.
MG DL_MG: Calling solver with defect correction order = 8
MG DL_MG: Solver finished
MG Hartree energy from (\int phi*rho dr):              1437.770531
MG Hartree energy from (\int eps (grad phi)^2 dr):     1437.124491
MG Discrepancy due to finite box and discretization:     -0.646040 (  -0.04493%)
MG Correction to account for finite box:                  0.463091
MG Remaining discrepancy, due to discretization:         -0.182949 (  -0.01272%)
     Trial step:       0.548261217970
             Q1:  -11577.280842967913
 Quadratic coef:       0.001497252118
 Linear coef   :      -0.005802564877
           Qmin:  -11577.282159580604
Quadratic minimum step length (  1.062386637382) accepted
    Initial Ne1:    7228.00032629
      Final Ne1:    7228.00000000

=================== Penalty functional idempotency correction ==================
 RMS occupancy error at iteration   1:  0.000034 (step -0.4987 Ne1=   7228.0000)
            Final RMS occupancy error   :  0.000000 (Ne1=   7228.0000)
               Final occupancy bounds   : [ -0.0000,  1.0000]
================================================================================

    8        -1.157727653766E+04     1.5729E-05     1.4234E-05    -4.5528E-03
MG BCs: +ve charge blocks (gridpoints):     30546 (   17160864).
MG BCs: -ve charge blocks (gridpoints):      8275 (    1094785).
MG BCs:     Elided blocks (gridpoints):    173731 (  180922232).
MG BCs: Computational effort saved:  99.9805%.
MG BCs: Charge after coarse-graining:           -9.0009659.
MG DL_MG: Calling solver with defect correction order = 8
MG DL_MG: Solver finished
MG Hartree energy from (\int phi*rho dr):              1437.840601
MG Hartree energy from (\int eps (grad phi)^2 dr):     1437.194597
MG Discrepancy due to finite box and discretization:     -0.646003 (  -0.04493%)
MG Correction to account for finite box:                  0.463085
MG Remaining discrepancy, due to discretization:         -0.182918 (  -0.01272%)
      ideal mu1:      -0.790453151841
             Q0:  -11577.282139804098
             G0:      -0.016456387124
   RMS gradient:       0.000019678689
MG BCs: +ve charge blocks (gridpoints):     30546 (   17160738).
MG BCs: -ve charge blocks (gridpoints):      8276 (    1094947).
MG BCs:     Elided blocks (gridpoints):    173731 (  180922196).
MG BCs: Computational effort saved:  99.9805%.
MG BCs: Charge after coarse-graining:           -9.0009658.
MG DL_MG: Calling solver with defect correction order = 8
MG DL_MG: Solver finished
MG Hartree energy from (\int phi*rho dr):              1437.476538
MG Hartree energy from (\int eps (grad phi)^2 dr):     1436.830624
MG Discrepancy due to finite box and discretization:     -0.645914 (  -0.04493%)
MG Correction to account for finite box:                  0.463056
MG Remaining discrepancy, due to discretization:         -0.182859 (  -0.01272%)
     Trial step:       0.763194203179
             Q1:  -11577.290046215407
 Quadratic coef:       0.004653007949
 Linear coef   :      -0.012559419258
           Qmin:  -11577.290614913845
Quadratic minimum step length (  1.030008553444) accepted
    Initial Ne1:    7228.00102855
      Final Ne1:    7228.00000000

=================== Penalty functional idempotency correction ==================
 RMS occupancy error at iteration   1:  0.000212 (step -0.4919 Ne1=   7228.0000)
 RMS occupancy error at iteration   2:  0.000001 (step -0.5000 Ne1=   7228.0000)
            Final RMS occupancy error   :  0.000000 (Ne1=   7228.0000)
               Final occupancy bounds   : [  0.0000,  1.0000]
================================================================================

    9        -1.157728213980E+04     1.9679E-05     1.7808E-05    -5.6021E-03
MG BCs: +ve charge blocks (gridpoints):     30546 (   17160701).
MG BCs: -ve charge blocks (gridpoints):      8276 (    1095002).
MG BCs:     Elided blocks (gridpoints):    173731 (  180922178).
MG BCs: Computational effort saved:  99.9805%.
MG BCs: Charge after coarse-graining:           -9.0009658.
MG DL_MG: Calling solver with defect correction order = 8
MG DL_MG: Solver finished
MG Hartree energy from (\int phi*rho dr):              1437.345243
MG Hartree energy from (\int eps (grad phi)^2 dr):     1436.699362
MG Discrepancy due to finite box and discretization:     -0.645881 (  -0.04494%)
MG Correction to account for finite box:                  0.463044
MG Remaining discrepancy, due to discretization:         -0.182837 (  -0.01272%)
      ideal mu1:      -0.789665978423
   10        -1.157729049206E+04     2.2538E-05     2.0395E-05    -8.3523E-03
Finished density kernel iterations (  10)

Writing density kernel to file "complex_25941.vacuum_dkn" ... done


>>> Density kernel optimised for the current NGWF basis:
     ~~~~~~~~~~~~~~~~~~~~~~~~~~~~~~~~~~~~~~~~~~~~~~~~~~~~~~~~~~~
     Total energy                =  -1.15772904920583E+04  Eh
     Estimated bandgap           =  -2.5460E-01  Eh
     RMS occupancy error         =   1.0421E-10
     [H,K] commutator            =   2.0395E-05
     Occupancy bounds            = [  0.000:  1.000]
     ~~~~~~~~~~~~~~~~~~~~~~~~~~~~~~~~~~~~~~~~~~~~~~~~~~~~~~~~~~~




################################################################################
########################### NGWF CG iteration  001 #############################
################################################################################
****** Reciprocal space K.E. preconditioning with k_zero =  3.5000 a0^-1 *******

>>> Checking for convergence of NGWFs:   NOT CONVERGED
  ========================================================================
         NGWF RMS gradient =  1.6004E-03 >  2.0000E-06  | above tolerance
  ========================================================================

>>> Improving NGWFs using line search:
============ Calculation of NGWF S^-1 using Hotelling algorithm ================ 
         Iteration  |  Frobenius norm and Maximum abs value    (of I-S*S_n^-1)   
               1       0.19824955E+00     0.51771877E-02
               2       0.90934335E-03     0.41444625E-04
               3       0.33172052E-07     0.27430507E-08
               4       0.13181042E-12     0.71054274E-14
================================================================================
MG BCs: +ve charge blocks (gridpoints):     30123 (   17106042).
MG BCs: -ve charge blocks (gridpoints):      8299 (    1094892).
MG BCs:     Elided blocks (gridpoints):    174154 (  180976947).
MG BCs: Computational effort saved:  99.9807%.
MG BCs: Charge after coarse-graining:           -9.0009687.
MG DL_MG: Calling solver with defect correction order = 8
MG DL_MG: Solver finished
MG Hartree energy from (\int phi*rho dr):              1405.331410
MG Hartree energy from (\int eps (grad phi)^2 dr):     1404.686286
MG Discrepancy due to finite box and discretization:     -0.645123 (  -0.04591%)
MG Correction to account for finite box:                  0.463003
MG Remaining discrepancy, due to discretization:         -0.182120 (  -0.01296%)
============ Calculation of NGWF S^-1 using Hotelling algorithm ================ 
         Iteration  |  Frobenius norm and Maximum abs value    (of I-S*S_n^-1)   
               1       0.18430570E+01     0.40595955E-01
               2       0.70321823E-01     0.23493666E-02
               3       0.13951177E-03     0.91506271E-05
               4       0.10458346E-08     0.16086166E-09
               5       0.11211716E-12     0.48849813E-14
================================================================================
------------------------------- NGWF line search -------------------------------
RMS gradient                =       0.00160038621511
Trial step length           =               0.122474
Gradient along search dir.  =       -278.57488404719
Functional at step 0        =  -11577.29049205826595
Functional at step 1        =  -11608.78601249586791
Functional predicted        =  -11688.24647765424379
Selected quadratic step     =               0.796597
--------------------------- NGWF line search finished --------------------------
                                               
Writing NGWFs to file "complex_25941.vacuum_tightbox_ngwfs"....  done

>>> Optimising kernel for current NGWFs:
   Initial electron number for spin 1:    7262.44787042
     Final electron number for spin 1:    7228.00000000

=================== Penalty functional idempotency correction ==================
 RMS occupancy error at iteration   1:  0.004258 (step -0.4860 Ne1=   7228.0000)
 RMS occupancy error at iteration   2:  0.000070 (step -0.5003 Ne1=   7228.0000)
            Final RMS occupancy error   :  0.000000 (Ne1=   7228.0000)
               Final occupancy bounds   : [  0.0000,  1.0000]
================================================================================

................................................................................
<<<<<<<<<<<<<< LNV (Original version) density kernel optimisation >>>>>>>>>>>>>>
~~~~~~~~~~~~~~~~~~~~~~~~~~~~~~~~~~~~~~~~~~~~~~~~~~~~~~~~~~~~~~~~~~~~~~~~~~~~~~~~
   iter  |      energy (Eh)       | rms gradient |  commutator  |   dE (Eh)
MG BCs: +ve charge blocks (gridpoints):     24630 (   16826386).
MG BCs: -ve charge blocks (gridpoints):      8423 (    1078716).
MG BCs:     Elided blocks (gridpoints):    179658 (  181272779).
MG BCs: Computational effort saved:  99.9834%.
MG BCs: Charge after coarse-graining:           -9.0006659.
MG DL_MG: Calling solver with defect correction order = 8
MG DL_MG: Solver finished
MG Hartree energy from (\int phi*rho dr):              1251.212262
MG Hartree energy from (\int eps (grad phi)^2 dr):     1250.566540
MG Discrepancy due to finite box and discretization:     -0.645722 (  -0.05161%)
MG Correction to account for finite box:                  0.462820
MG Remaining discrepancy, due to discretization:         -0.182902 (  -0.01462%)
      ideal mu1:      -0.727653864371
             Q0:  -11687.455495111761
             G0:      -9.787228237598
   RMS gradient:       0.000478283842
MG BCs: +ve charge blocks (gridpoints):     24687 (   16844785).
MG BCs: -ve charge blocks (gridpoints):      8403 (    1074317).
MG BCs:     Elided blocks (gridpoints):    179601 (  181258779).
MG BCs: Computational effort saved:  99.9834%.
MG BCs: Charge after coarse-graining:           -9.0006607.
MG DL_MG: Calling solver with defect correction order = 8
MG DL_MG: Solver finished
MG Hartree energy from (\int phi*rho dr):              1271.570795
MG Hartree energy from (\int eps (grad phi)^2 dr):     1270.918441
MG Discrepancy due to finite box and discretization:     -0.652354 (  -0.05130%)
MG Correction to account for finite box:                  0.462125
MG Remaining discrepancy, due to discretization:         -0.190230 (  -0.01496%)
     Trial step:       0.886620864414
             Q1:  -11684.493408893119
 Quadratic coef:      11.639646978874
 Linear coef   :      -8.677560760232
           Qmin:  -11689.072813508190
Quadratic minimum step length (  0.330495694423) accepted
    Initial Ne1:    7227.99958298
      Final Ne1:    7228.00000000

=================== Penalty functional idempotency correction ==================
 RMS occupancy error at iteration   1:  0.000355 (step -0.4986 Ne1=   7228.0000)
 RMS occupancy error at iteration   2:  0.000000 (step -0.5000 Ne1=   7228.0000)
            Final RMS occupancy error   :  0.000000 (Ne1=   7228.0000)
               Final occupancy bounds   : [  0.0000,  1.0000]
================================================================================

    1        -1.168745549511E+04     4.7828E-04     4.3282E-04
MG BCs: +ve charge blocks (gridpoints):     24649 (   16833522).
MG BCs: -ve charge blocks (gridpoints):      8418 (    1077061).
MG BCs:     Elided blocks (gridpoints):    179639 (  181267298).
MG BCs: Computational effort saved:  99.9834%.
MG BCs: Charge after coarse-graining:           -9.0006638.
MG DL_MG: Calling solver with defect correction order = 8
MG DL_MG: Solver finished
MG Hartree energy from (\int phi*rho dr):              1257.458377
MG Hartree energy from (\int eps (grad phi)^2 dr):     1256.810332
MG Discrepancy due to finite box and discretization:     -0.648045 (  -0.05154%)
MG Correction to account for finite box:                  0.462522
MG Remaining discrepancy, due to discretization:         -0.185523 (  -0.01475%)
      ideal mu1:      -0.734822447666
             Q0:  -11689.035626308993
             G0:      -0.986722849922
   RMS gradient:       0.000153111526
MG BCs: +ve charge blocks (gridpoints):     24654 (   16833307).
MG BCs: -ve charge blocks (gridpoints):      8422 (    1077851).
MG BCs:     Elided blocks (gridpoints):    179634 (  181266723).
MG BCs: Computational effort saved:  99.9834%.
MG BCs: Charge after coarse-graining:           -9.0006637.
MG DL_MG: Calling solver with defect correction order = 8
MG DL_MG: Solver finished
MG Hartree energy from (\int phi*rho dr):              1258.690567
MG Hartree energy from (\int eps (grad phi)^2 dr):     1258.042153
MG Discrepancy due to finite box and discretization:     -0.648414 (  -0.05151%)
MG Correction to account for finite box:                  0.462491
MG Remaining discrepancy, due to discretization:         -0.185923 (  -0.01477%)
     Trial step:       0.541317262125
             Q1:  -11689.228389094700
 Quadratic coef:       0.341367325887
 Linear coef   :      -0.534130111595
           Qmin:  -11689.244561782951
Quadratic minimum step length (  0.423493737831) accepted
    Initial Ne1:    7227.99994523
      Final Ne1:    7228.00000000

=================== Penalty functional idempotency correction ==================
 RMS occupancy error at iteration   1:  0.000142 (step -0.4994 Ne1=   7228.0000)
            Final RMS occupancy error   :  0.000000 (Ne1=   7228.0000)
               Final occupancy bounds   : [ -0.0000,  1.0000]
================================================================================

    2        -1.168903562631E+04     1.5311E-04     1.3856E-04    -1.5801E+00
MG BCs: +ve charge blocks (gridpoints):     24655 (   16833360).
MG BCs: -ve charge blocks (gridpoints):      8420 (    1077652).
MG BCs:     Elided blocks (gridpoints):    179633 (  181266869).
MG BCs: Computational effort saved:  99.9834%.
MG BCs: Charge after coarse-graining:           -9.0006637.
MG DL_MG: Calling solver with defect correction order = 8
MG DL_MG: Solver finished
MG Hartree energy from (\int phi*rho dr):              1258.421736
MG Hartree energy from (\int eps (grad phi)^2 dr):     1257.773405
MG Discrepancy due to finite box and discretization:     -0.648331 (  -0.05152%)
MG Correction to account for finite box:                  0.462498
MG Remaining discrepancy, due to discretization:         -0.185833 (  -0.01477%)
      ideal mu1:      -0.735824694379
             Q0:  -11689.245044820709
             G0:      -0.145607212713
   RMS gradient:       0.000058270924
MG BCs: +ve charge blocks (gridpoints):     24653 (   16832555).
MG BCs: -ve charge blocks (gridpoints):      8420 (    1078132).
MG BCs:     Elided blocks (gridpoints):    179635 (  181267194).
MG BCs: Computational effort saved:  99.9834%.
MG BCs: Charge after coarse-graining:           -9.0006638.
MG DL_MG: Calling solver with defect correction order = 8
MG DL_MG: Solver finished
MG Hartree energy from (\int phi*rho dr):              1257.924856
MG Hartree energy from (\int eps (grad phi)^2 dr):     1257.276569
MG Discrepancy due to finite box and discretization:     -0.648287 (  -0.05154%)
MG Correction to account for finite box:                  0.462481
MG Remaining discrepancy, due to discretization:         -0.185806 (  -0.01477%)
     Trial step:       0.478794810634
             Q1:  -11689.289389314596
 Quadratic coef:       0.025371483951
 Linear coef   :      -0.069715977838
           Qmin:  -11689.292936358856
Quadratic minimum step length (  0.657818211805) accepted
    Initial Ne1:    7228.00059679
      Final Ne1:    7228.00000000

=================== Penalty functional idempotency correction ==================
 RMS occupancy error at iteration   1:  0.000061 (step -0.4998 Ne1=   7228.0000)
            Final RMS occupancy error   :  0.000000 (Ne1=   7228.0000)
               Final occupancy bounds   : [ -0.0000,  1.0000]
================================================================================

    3        -1.168924504482E+04     5.8271E-05     5.2732E-05    -2.0942E-01
MG BCs: +ve charge blocks (gridpoints):     24653 (   16832345).
MG BCs: -ve charge blocks (gridpoints):      8419 (    1078252).
MG BCs:     Elided blocks (gridpoints):    179635 (  181267284).
MG BCs: Computational effort saved:  99.9834%.
MG BCs: Charge after coarse-graining:           -9.0006638.
MG DL_MG: Calling solver with defect correction order = 8
MG DL_MG: Solver finished
MG Hartree energy from (\int phi*rho dr):              1257.739166
MG Hartree energy from (\int eps (grad phi)^2 dr):     1257.090895
MG Discrepancy due to finite box and discretization:     -0.648271 (  -0.05154%)
MG Correction to account for finite box:                  0.462475
MG Remaining discrepancy, due to discretization:         -0.185796 (  -0.01477%)
      ideal mu1:      -0.734984676774
             Q0:  -11689.293021748192
             G0:      -0.035742859345
   RMS gradient:       0.000028862263
MG BCs: +ve charge blocks (gridpoints):     24653 (   16832193).
MG BCs: -ve charge blocks (gridpoints):      8419 (    1078314).
MG BCs:     Elided blocks (gridpoints):    179635 (  181267374).
MG BCs: Computational effort saved:  99.9834%.
MG BCs: Charge after coarse-graining:           -9.0006638.
MG DL_MG: Calling solver with defect correction order = 8
MG DL_MG: Solver finished
MG Hartree energy from (\int phi*rho dr):              1257.752955
MG Hartree energy from (\int eps (grad phi)^2 dr):     1257.104783
MG Discrepancy due to finite box and discretization:     -0.648172 (  -0.05153%)
MG Correction to account for finite box:                  0.462481
MG Remaining discrepancy, due to discretization:         -0.185691 (  -0.01476%)
     Trial step:       0.561212924078
             Q1:  -11689.301862337510
 Quadratic coef:       0.011218765290
 Linear coef   :      -0.020059354608
           Qmin:  -11689.301988370116
Quadratic minimum step length (  0.501729413326) accepted
    Initial Ne1:    7228.00021867
      Final Ne1:    7228.00000000

=================== Penalty functional idempotency correction ==================
 RMS occupancy error at iteration   1:  0.000018 (step -0.4999 Ne1=   7228.0000)
            Final RMS occupancy error   :  0.000000 (Ne1=   7228.0000)
               Final occupancy bounds   : [ -0.0000,  1.0000]
================================================================================

    4        -1.168929302175E+04     2.8862E-05     2.6119E-05    -4.7977E-02
MG BCs: +ve charge blocks (gridpoints):     24652 (   16832225).
MG BCs: -ve charge blocks (gridpoints):      8419 (    1078305).
MG BCs:     Elided blocks (gridpoints):    179636 (  181267351).
MG BCs: Computational effort saved:  99.9834%.
MG BCs: Charge after coarse-graining:           -9.0006638.
MG DL_MG: Calling solver with defect correction order = 8
MG DL_MG: Solver finished
MG Hartree energy from (\int phi*rho dr):              1257.751311
MG Hartree energy from (\int eps (grad phi)^2 dr):     1257.103129
MG Discrepancy due to finite box and discretization:     -0.648182 (  -0.05154%)
MG Correction to account for finite box:                  0.462480
MG Remaining discrepancy, due to discretization:         -0.185702 (  -0.01476%)
      ideal mu1:      -0.735000766531
             Q0:  -11689.301993312081
             G0:      -0.011879070606
   RMS gradient:       0.000016659343
MG BCs: +ve charge blocks (gridpoints):     24652 (   16832755).
MG BCs: -ve charge blocks (gridpoints):      8419 (    1078093).
MG BCs:     Elided blocks (gridpoints):    179636 (  181267033).
MG BCs: Computational effort saved:  99.9834%.
MG BCs: Charge after coarse-graining:           -9.0006637.
MG DL_MG: Calling solver with defect correction order = 8
MG DL_MG: Solver finished
MG Hartree energy from (\int phi*rho dr):              1258.153039
MG Hartree energy from (\int eps (grad phi)^2 dr):     1257.504895
MG Discrepancy due to finite box and discretization:     -0.648144 (  -0.05152%)
MG Correction to account for finite box:                  0.462476
MG Remaining discrepancy, due to discretization:         -0.185667 (  -0.01476%)
     Trial step:       0.530638324237
             Q1:  -11689.305333081284
 Quadratic coef:       0.002963720917
 Linear coef   :      -0.006303490120
           Qmin:  -11689.305345009896
Quadratic minimum step length (  0.564303037856) accepted
    Initial Ne1:    7228.00009569
      Final Ne1:    7228.00000000

=================== Penalty functional idempotency correction ==================
 RMS occupancy error at iteration   1:  0.000010 (step -0.4999 Ne1=   7228.0000)
            Final RMS occupancy error   :  0.000000 (Ne1=   7228.0000)
               Final occupancy bounds   : [ -0.0000,  1.0000]
================================================================================

    5        -1.168930199331E+04     1.6659E-05     1.5076E-05    -8.9716E-03
MG BCs: +ve charge blocks (gridpoints):     24652 (   16832779).
MG BCs: -ve charge blocks (gridpoints):      8419 (    1078086).
MG BCs:     Elided blocks (gridpoints):    179636 (  181267016).
MG BCs: Computational effort saved:  99.9834%.
MG BCs: Charge after coarse-graining:           -9.0006637.
MG DL_MG: Calling solver with defect correction order = 8
MG DL_MG: Solver finished
MG Hartree energy from (\int phi*rho dr):              1258.178552
MG Hartree energy from (\int eps (grad phi)^2 dr):     1257.530411
MG Discrepancy due to finite box and discretization:     -0.648141 (  -0.05151%)
MG Correction to account for finite box:                  0.462476
MG Remaining discrepancy, due to discretization:         -0.185665 (  -0.01476%)
      ideal mu1:      -0.735348032223
             Q0:  -11689.305346059031
             G0:      -0.003846467471
   RMS gradient:       0.000009480082
MG BCs: +ve charge blocks (gridpoints):     24652 (   16832784).
MG BCs: -ve charge blocks (gridpoints):      8419 (    1078101).
MG BCs:     Elided blocks (gridpoints):    179636 (  181266996).
MG BCs: Computational effort saved:  99.9834%.
MG BCs: Charge after coarse-graining:           -9.0006637.
MG DL_MG: Calling solver with defect correction order = 8
MG DL_MG: Solver finished
MG Hartree energy from (\int phi*rho dr):              1258.148089
MG Hartree energy from (\int eps (grad phi)^2 dr):     1257.499958
MG Discrepancy due to finite box and discretization:     -0.648131 (  -0.05151%)
MG Correction to account for finite box:                  0.462470
MG Remaining discrepancy, due to discretization:         -0.185661 (  -0.01476%)
     Trial step:       0.547211858762
             Q1:  -11689.306685889955
 Quadratic coef:       0.000765001691
 Linear coef   :      -0.002104832614
           Qmin:  -11689.306793872935
Quadratic minimum step length (  0.752801844483) accepted
    Initial Ne1:    7228.00005787
      Final Ne1:    7228.00000000

=================== Penalty functional idempotency correction ==================
 RMS occupancy error at iteration   1:  0.000008 (step -0.4998 Ne1=   7228.0000)
            Final RMS occupancy error   :  0.000000 (Ne1=   7228.0000)
               Final occupancy bounds   : [ -0.0000,  1.0000]
================================================================================

    6        -1.168930534606E+04     9.4801E-06     8.5790E-06    -3.3527E-03
MG BCs: +ve charge blocks (gridpoints):     24652 (   16832769).
MG BCs: -ve charge blocks (gridpoints):      8420 (    1078104).
MG BCs:     Elided blocks (gridpoints):    179636 (  181267008).
MG BCs: Computational effort saved:  99.9834%.
MG BCs: Charge after coarse-graining:           -9.0006637.
MG DL_MG: Calling solver with defect correction order = 8
MG DL_MG: Solver finished
MG Hartree energy from (\int phi*rho dr):              1258.136591
MG Hartree energy from (\int eps (grad phi)^2 dr):     1257.488464
MG Discrepancy due to finite box and discretization:     -0.648127 (  -0.05151%)
MG Correction to account for finite box:                  0.462467
MG Remaining discrepancy, due to discretization:         -0.185659 (  -0.01476%)
      ideal mu1:      -0.735277658166
             Q0:  -11689.306793753523
             G0:      -0.002430075535
   RMS gradient:       0.000007536431
MG BCs: +ve charge blocks (gridpoints):     24652 (   16832505).
MG BCs: -ve charge blocks (gridpoints):      8419 (    1078184).
MG BCs:     Elided blocks (gridpoints):    179636 (  181267192).
MG BCs: Computational effort saved:  99.9834%.
MG BCs: Charge after coarse-graining:           -9.0006637.
MG DL_MG: Calling solver with defect correction order = 8
MG DL_MG: Solver finished
MG Hartree energy from (\int phi*rho dr):              1258.019016
MG Hartree energy from (\int eps (grad phi)^2 dr):     1257.370870
MG Discrepancy due to finite box and discretization:     -0.648146 (  -0.05152%)
MG Correction to account for finite box:                  0.462477
MG Remaining discrepancy, due to discretization:         -0.185669 (  -0.01476%)
     Trial step:       0.641827154769
             Q1:  -11689.307318009553
 Quadratic coef:       0.001035432437
 Linear coef   :      -0.001559688466
           Qmin:  -11689.307381099454
Quadratic minimum step length (  0.483397262423) accepted
    Initial Ne1:    7228.00003256
      Final Ne1:    7228.00000000

=================== Penalty functional idempotency correction ==================
 RMS occupancy error at iteration   1:  0.000001 (step -0.5000 Ne1=   7228.0000)
            Final RMS occupancy error   :  0.000000 (Ne1=   7228.0000)
               Final occupancy bounds   : [  0.0000,  1.0000]
================================================================================

    7        -1.168930679375E+04     7.5364E-06     6.8201E-06    -1.4477E-03
MG BCs: +ve charge blocks (gridpoints):     24652 (   16832562).
MG BCs: -ve charge blocks (gridpoints):      8419 (    1078162).
MG BCs:     Elided blocks (gridpoints):    179636 (  181267157).
MG BCs: Computational effort saved:  99.9834%.
MG BCs: Charge after coarse-graining:           -9.0006637.
MG DL_MG: Calling solver with defect correction order = 8
MG DL_MG: Solver finished
MG Hartree energy from (\int phi*rho dr):              1258.047981
MG Hartree energy from (\int eps (grad phi)^2 dr):     1257.399840
MG Discrepancy due to finite box and discretization:     -0.648141 (  -0.05152%)
MG Correction to account for finite box:                  0.462475
MG Remaining discrepancy, due to discretization:         -0.185666 (  -0.01476%)
      ideal mu1:      -0.735193873164
             Q0:  -11689.307381084189
             G0:      -0.001538498974
   RMS gradient:       0.000005996392
MG BCs: +ve charge blocks (gridpoints):     24652 (   16832512).
MG BCs: -ve charge blocks (gridpoints):      8419 (    1078181).
MG BCs:     Elided blocks (gridpoints):    179636 (  181267188).
MG BCs: Computational effort saved:  99.9834%.
MG BCs: Charge after coarse-graining:           -9.0006637.
MG DL_MG: Calling solver with defect correction order = 8
MG DL_MG: Solver finished
MG Hartree energy from (\int phi*rho dr):              1257.997427
MG Hartree energy from (\int eps (grad phi)^2 dr):     1257.349275
MG Discrepancy due to finite box and discretization:     -0.648151 (  -0.05152%)
MG Correction to account for finite box:                  0.462477
MG Remaining discrepancy, due to discretization:         -0.185674 (  -0.01476%)
     Trial step:       0.557007620742
             Q1:  -11689.308059515082
 Quadratic coef:       0.000178524760
 Linear coef   :      -0.000856955653
           Qmin:  -11689.308409475138
Quadratic minimum step length (  1.336875703326) accepted
    Initial Ne1:    7228.00005689
      Final Ne1:    7228.00000000

=================== Penalty functional idempotency correction ==================
 RMS occupancy error at iteration   1:  0.000015 (step -0.4990 Ne1=   7228.0000)
            Final RMS occupancy error   :  0.000000 (Ne1=   7228.0000)
               Final occupancy bounds   : [ -0.0000,  1.0000]
================================================================================

    8        -1.168930738108E+04     5.9964E-06     5.4265E-06    -5.8733E-04
MG BCs: +ve charge blocks (gridpoints):     24652 (   16832420).
MG BCs: -ve charge blocks (gridpoints):      8419 (    1078213).
MG BCs:     Elided blocks (gridpoints):    179636 (  181267248).
MG BCs: Computational effort saved:  99.9834%.
MG BCs: Charge after coarse-graining:           -9.0006638.
[...]
MG BCs: Computational effort saved:  99.9813%.
MG BCs: Charge after coarse-graining:           -9.0009394.
MG DL_MG: Calling solver with defect correction order = 8
MG DL_MG: Solver finished
MG Hartree energy from (\int phi*rho dr):              1215.589404
MG Hartree energy from (\int eps (grad phi)^2 dr):     1215.398671
MG Discrepancy due to finite box and discretization:     -0.190733 (  -0.01569%)
MG Correction to account for finite box:                  0.006341
MG Remaining discrepancy, due to discretization:         -0.184392 (  -0.01517%)
             Q2:  -11723.547490017372
  Cubic LS coeff:       0.987997727375
Predicted energy:  -11723.547490017572
Cubic minimum step length accepted
    Initial Ne1:    7228.00000000
      Final Ne1:    7228.00000000

=================== Penalty functional idempotency correction ==================
 RMS occupancy error at iteration   1:  0.000000 (step -0.5000 Ne1=   7228.0000)
            Final RMS occupancy error   :  0.000000 (Ne1=   7228.0000)
               Final occupancy bounds   : [ -0.0000,  1.0000]
================================================================================

    7        -1.172354749001E+04     1.0709E-08     9.6908E-09    -3.7253E-09

Reusing previously generated solute cavity.
MG BCs: +ve charge blocks (gridpoints):     28791 (   19029360).
MG BCs: -ve charge blocks (gridpoints):      8405 (    1047019).
MG BCs:     Elided blocks (gridpoints):    175497 (  179101502).
MG BCs: Computational effort saved:  99.9813%.
MG BCs: Charge after coarse-graining:           -9.0009394.
MG DL_MG: Calling solver with defect correction order = 8
MG DL_MG: Solver finished
MG Hartree energy from (\int phi*rho dr):              1215.589397
MG Hartree energy from (\int eps (grad phi)^2 dr):     1215.398664
MG Discrepancy due to finite box and discretization:     -0.190733 (  -0.01569%)
MG Correction to account for finite box:                  0.006341
MG Remaining discrepancy, due to discretization:         -0.184392 (  -0.01517%)
      ideal mu1:      -0.481840978220
             Q0:  -11723.547490017256
             G0:      -0.000000005329
   RMS gradient:       0.000000013917

Reusing previously generated solute cavity.
MG BCs: +ve charge blocks (gridpoints):     28791 (   19029360).
MG BCs: -ve charge blocks (gridpoints):      8405 (    1047019).
MG BCs:     Elided blocks (gridpoints):    175497 (  179101502).
MG BCs: Computational effort saved:  99.9813%.
MG BCs: Charge after coarse-graining:           -9.0009394.
MG DL_MG: Calling solver with defect correction order = 8
MG DL_MG: Solver finished
MG Hartree energy from (\int phi*rho dr):              1215.589378
MG Hartree energy from (\int eps (grad phi)^2 dr):     1215.398645
MG Discrepancy due to finite box and discretization:     -0.190733 (  -0.01569%)
MG Correction to account for finite box:                  0.006341
MG Remaining discrepancy, due to discretization:         -0.184392 (  -0.01517%)
     Trial step:       0.748860881557
             Q1:  -11723.547490019118
 Quadratic coef:       0.000000002128
 Linear coef   :      -0.000000003991
           Qmin:  -11723.547490019126
Quadratic minimum step length (  0.702116164565) accepted
    Initial Ne1:    7228.00000000
      Final Ne1:    7228.00000000

=================== Penalty functional idempotency correction ==================
 RMS occupancy error at iteration   1:  0.000000 (step -0.5000 Ne1=   7228.0000)
            Final RMS occupancy error   :  0.000000 (Ne1=   7228.0000)
               Final occupancy bounds   : [  0.0000,  1.0000]
================================================================================

    8        -1.172354749002E+04     1.3917E-08     1.2594E-08    -4.1910E-09

Reusing previously generated solute cavity.
MG BCs: +ve charge blocks (gridpoints):     28791 (   19029360).
MG BCs: -ve charge blocks (gridpoints):      8405 (    1047019).
MG BCs:     Elided blocks (gridpoints):    175497 (  179101502).
MG BCs: Computational effort saved:  99.9813%.
MG BCs: Charge after coarse-graining:           -9.0009394.
MG DL_MG: Calling solver with defect correction order = 8
MG DL_MG: Solver finished
MG Hartree energy from (\int phi*rho dr):              1215.589379
MG Hartree energy from (\int eps (grad phi)^2 dr):     1215.398646
MG Discrepancy due to finite box and discretization:     -0.190733 (  -0.01569%)
MG Correction to account for finite box:                  0.006341
MG Remaining discrepancy, due to discretization:         -0.184392 (  -0.01517%)
      ideal mu1:      -0.481840947693
             Q0:  -11723.547490019235
             G0:      -0.000000006377
   RMS gradient:       0.000000011618

Reusing previously generated solute cavity.
MG BCs: +ve charge blocks (gridpoints):     28791 (   19029361).
MG BCs: -ve charge blocks (gridpoints):      8405 (    1047019).
MG BCs:     Elided blocks (gridpoints):    175497 (  179101501).
MG BCs: Computational effort saved:  99.9813%.
MG BCs: Charge after coarse-graining:           -9.0009394.
MG DL_MG: Calling solver with defect correction order = 8
MG DL_MG: Solver finished
MG Hartree energy from (\int phi*rho dr):              1215.589312
MG Hartree energy from (\int eps (grad phi)^2 dr):     1215.398579
MG Discrepancy due to finite box and discretization:     -0.190733 (  -0.01569%)
MG Correction to account for finite box:                  0.006341
MG Remaining discrepancy, due to discretization:         -0.184392 (  -0.01517%)
     Trial step:       0.725111943048
             Q1:  -11723.547490018653
 Quadratic coef:       0.000000005206
 Linear coef   :      -0.000000004624
           Qmin:  -11723.547490020263
Quadratic minimum step length (  0.322034504882) accepted
    Initial Ne1:    7228.00000000
      Final Ne1:    7228.00000000

=================== Penalty functional idempotency correction ==================
 RMS occupancy error at iteration   1:  0.000000 (step -0.5000 Ne1=   7228.0000)
            Final RMS occupancy error   :  0.000000 (Ne1=   7228.0000)
               Final occupancy bounds   : [ -0.0000,  1.0000]
================================================================================

    9        -1.172354749002E+04     1.1618E-08     1.0514E-08    -1.9791E-09

Reusing previously generated solute cavity.
MG BCs: +ve charge blocks (gridpoints):     28791 (   19029361).
MG BCs: -ve charge blocks (gridpoints):      8405 (    1047019).
MG BCs:     Elided blocks (gridpoints):    175497 (  179101501).
MG BCs: Computational effort saved:  99.9813%.
MG BCs: Charge after coarse-graining:           -9.0009394.
MG DL_MG: Calling solver with defect correction order = 8
MG DL_MG: Solver finished
MG Hartree energy from (\int phi*rho dr):              1215.589349
MG Hartree energy from (\int eps (grad phi)^2 dr):     1215.398616
MG Discrepancy due to finite box and discretization:     -0.190733 (  -0.01569%)
MG Correction to account for finite box:                  0.006341
MG Remaining discrepancy, due to discretization:         -0.184392 (  -0.01517%)
      ideal mu1:      -0.481840920657
   10        -1.172354749002E+04     6.7448E-09     6.1037E-09    -5.8208E-10
Finished density kernel iterations (  10)


>>> Density kernel optimised for the current NGWF basis:
     ~~~~~~~~~~~~~~~~~~~~~~~~~~~~~~~~~~~~~~~~~~~~~~~~~~~~~~~~~~~
     Total energy                =  -1.17235474900198E+04  Eh
     Estimated bandgap           =   8.8673E-02  Eh
     RMS occupancy error         =   6.3912E-16
     [H,K] commutator            =   6.1037E-09
     Occupancy bounds            = [ -0.000:  1.000]
     ~~~~~~~~~~~~~~~~~~~~~~~~~~~~~~~~~~~~~~~~~~~~~~~~~~~~~~~~~~~




################################################################################
########################### NGWF CG iteration  004 #############################
################################################################################
****** Reciprocal space K.E. preconditioning with k_zero =  3.5000 a0^-1 *******

>>> Checking for convergence of NGWFs: 
           ........................................................
           |         *** NGWF optimisation converged ***          |
           | RMS NGWF gradient =    0.00000195663979              |
           | Criteria satisfied:                                  |
           | -> RMS NGWF gradient lower than set threshold.       |
           ========================================================

Reusing previously generated solute cavity.
MG BCs: +ve charge blocks (gridpoints):     28791 (   19029361).
MG BCs: -ve charge blocks (gridpoints):      8405 (    1047019).
MG BCs:     Elided blocks (gridpoints):    175497 (  179101501).
MG BCs: Computational effort saved:  99.9813%.
MG BCs: Charge after coarse-graining:           -9.0009394.
MG DL_MG: Calling solver with defect correction order = 8
MG DL_MG: Solver finished
MG Hartree energy from (\int phi*rho dr):              1215.589349
MG Hartree energy from (\int eps (grad phi)^2 dr):     1215.398616
MG Discrepancy due to finite box and discretization:     -0.190733 (  -0.01569%)
MG Correction to account for finite box:                  0.006341
MG Remaining discrepancy, due to discretization:         -0.184392 (  -0.01517%)

================================================================================
           ---------------- ENERGY COMPONENTS (Eh) ----------------
           | Kinetic                    :     8563.33372901399889 |
           | Pseudo. (local,OBC,corr'd) :    -5066.84722550825973 |
           | Pseudopotential (non-local):     1408.86619764288207 |
           | Hartree (molecular)        :     1215.58934910371408 |
           | Exchange-correlation       :    -3373.05257932507357 |
           | Ion-ion (open BC)          :   830675.43483502231538 |
           | Dispersion Correction      :       -3.27973020410334 |
           | Smeared ion non-self corr. :  -830627.23160896229092 |
           | Smeared ion self corr.     :   -14517.01090595763526 |
           | Solvent cavitation energy  :        2.31414801991531 |
           | Solute-solvent dis-rep en. :       -1.66369886521761 |
           | Total                      :   -11723.54749001974415 |
           --------------------------------------------------------
           ------ LOCAL ENERGY COMPONENTS FROM MATRIX TRACES ------
           | Pseudopotential (local)    :    -5066.84722550826882 |
           | Hartree                    :    -2003.36360608272616 |
           --------------------------------------------------------
           Integrated density           :     7227.99999999804459
           Integrated density tr(KS)    :     7228.00000000000000
================================================================================


                        <<<<< CALCULATION SUMMARY >>>>>                         
|ITER|    RMS GRADIENT   |     TOTAL ENERGY    |   step   |     Epredicted              
   0     0.00004026309876 -11723.48390571586788   0.622520 -11723.53878771889140        
   1     0.00000991549040 -11723.54693191859405   0.086692 -11723.54739544020958        
   2     0.00000437620795 -11723.54747111478355   0.015865 -11723.54748763847056        
   3     0.00000195663979 -11723.54749001981691  <-- CG                                 

=================== Finished the calculation in solvent ========================
= Adjusting the following parameters: 
= read_denskern: F
= read_tightbox_ngwfs: F
= maxit_pen: 0 (restored to user-specified value)
= restart read filename prefix: ""
= restart write filename prefix: ""
================================================================================

================================================================================
IS: Calculation in solvent completed (NGWFs converged).      

Individual components of total energy in solvent:     hartree           kcal/mol
- Usual non-electrostatic DFT terms:    -12939.78728827822852    -8119838.939595
- Electrostatic fixed charge energy:      1215.58934910371408      762793.816584
- Apolar cavitation energy:                  2.31414801991531        1452.149775
- Apolar dispersion-repulsion energy:       -1.66369886521761       -1043.986777
 -------------------------------------------------------------------------------
- Total energy in solvent:              -11723.54749001981691    -7356636.960013

Components of total energy in solvent:                hartree           kcal/mol
- Usual non-electrostatic DFT terms:    -12939.78728827822852    -8119838.939595
- Electrostatic energy:                   1215.58934910371408      762793.816584
- Apolar energy terms:                       0.65044915469770         408.162998
 -------------------------------------------------------------------------------
- Total energy in solvent:              -11723.54749001981691    -7356636.960013

Calculation of free energy of solvation:              hartree           kcal/mol
- Total energy in solvent:         (+)  -11723.54749001981691    -7356636.960013
- Total energy in vacuum:          (-)  -11719.66723667923361    -7354202.064333
 -------------------------------------------------------------------------------
- Total free energy of solvation:           -3.88025334058329       -2434.895680

Components of polar term in f.e. of solvation:        hartree           kcal/mol
- Electrostatic:                            -4.67861011727882       -2935.872110
- Change in nonelectrostatic DFT terms:      0.14790762199846          92.813432
 -------------------------------------------------------------------------------
- Polar term in f.e. of solvation:          -4.53070249528037       -2843.058678

Components of free energy of solvation:               hartree           kcal/mol
- Polar term in f.e. of solvation: (+)      -4.53070249528037       -2843.058678
- Apolar (cavitation, dis., rep.): (+)       0.65044915469770         408.162998
 -------------------------------------------------------------------------------
- Total free energy of solvation:           -3.88025334058267       -2434.895680
================================================================================


------------------------------ TIMING INFORMATION ------------------------------
AVERAGE TIME:   27186.355s on     40 node(s)                                    
TOTAL TIME:     27186.356s on     40 node(s)                                    
================= AVERAGE TIMINGS FROM ALL NODES (CUMULATIVE) ==================
|| TAG                                    #calls    cpu time   %total  Gflops ||
|| work_imbalance                       :     1        0.00s   0.000%  ------ ||
|| parallel_prepare_fd_halos_request    :  1953        0.02s   0.000%  ------ ||
|| sparse_set_to_garbage                :   182        0.04s   0.000%  ------ ||
|| parallel_prepare_fd_halos_satisfy    :  1953        0.06s   0.000%  ------ ||
|| ngwfs_initialise_from_radial         :     1        0.17s   0.001%  ------ ||
|| basis_extract_function_from_box      :  5396        0.21s   0.001%  ------ ||
|| parallel_prepare_fd_halos_alloc      :  1953        0.24s   0.001%  ------ ||
|| restart_ngwfs_tightbox_input         :     1        0.98s   0.004%  ------ ||
|| pseudopotentials_nonlocal_mat        :    31        1.23s   0.005%  ------ ||
|| parallel_prepare_fd_halos_comms_imbal:  1953        2.99s   0.011%  ------ ||
|| density_init_guess_real              :     1        3.68s   0.014%  ------ ||
|| restart_kernel_read                  :     1        3.87s   0.014%  ------ ||
|| openbc_locps_radial                  :     1        4.66s   0.017%  ------ ||
|| parallel_prepare_fd_halos_clear      :  1953       14.67s   0.054%  ------ ||
|| sparse_init                          :     2       23.08s   0.085%  ------ ||
|| projectors_func_ovlp_box             :    31       23.69s   0.087%  ------ ||
|| parallel_prepare_fd_halos_comms_wait :  1953       25.28s   0.093%  ------ ||
|| projectors_init_fftbox_recip         :   207       26.71s   0.098%  ------ ||
|| function_ops_brappd_ketppd           :    31       28.10s   0.103%  ------ ||
|| restart_kernel_write                 :    13       33.54s   0.123%  ------ ||
|| parallel_prepare_fd_halos            :  1953       43.27s   0.159%  ------ ||
|| palser_mano_kernel_optimise          :     1       44.38s   0.163%  ------ ||
|| fourier_apply_box_pair               :  7774       53.94s   0.198% 556.347 ||
|| basis_copy_function_to_box           : 87485       55.54s   0.204%  ------ ||
|| pseudo_make_structure_factor         :     2       60.84s   0.224%  ------ ||
|| ngwf_gradient_coeffs                 :    16       64.40s   0.237%  ------ ||
|| sparse_embed_hotelling_invert_embed  :    31       99.89s   0.367%  ------ ||
|| finite_difference_derivative         :  1953      116.66s   0.429%  ------ ||
|| restart_ngwfs_tightbox_output        :    11      125.62s   0.462%  ------ ||
|| integrals_kinetic                    :    31      172.85s   0.636%  ------ ||
|| openbc_locps_on_grid                 :     2      191.77s   0.705%  ------ ||
|| projectors_gradient_batch            :   176      210.77s   0.775%  ------ ||
|| fourier_apply_cell_forward           :  1301      236.92s   0.871%  77.892 ||
|| fourier_apply_cell_backward          :  1303      257.23s   0.946%  71.853 ||
|| sparse_trace                         :  5130      260.68s   0.959%  ------ ||
|| basis_dot_function_with_box          : 13.40M     264.92s   0.974%  ------ ||
|| kernel_purify                        :   496      351.12s   1.292%  ------ ||
|| hamiltonian_energy_components        :     4      430.26s   1.583%  ------ ||
|| basis_add_function_to_box            : 27.93M     544.40s   2.002%  ------ ||
|| xc_energy_potential                  :   325      571.38s   2.102%  ------ ||
|| lnv_gradient_norm                    :   160      585.11s   2.152%  ------ ||
|| kernel_fix                           :   160      616.14s   2.266%  ------ ||
|| ngwf_gradient_build_batch            :   176      763.91s   2.810%  ------ ||
|| cell_grid_deposit_box_real           : 55154      886.56s   3.261%  ------ ||
|| integrals_locpot_mat_els_batch       :  1859      944.14s   3.473%  ------ ||
|| cell_grid_extract_box_real           : 51140     1006.10s   3.701%  ------ ||
|| ngwf_gradient_batch                  :   176     1068.07s   3.929%  ------ ||
|| ngwf_gradient_lnv                    :    16     1233.21s   4.536%  ------ ||
|| density_batch_row_sums               :  3564     1309.56s   4.817%  ------ ||
|| density_fftbox_deposit_to_cell       : 53136     1533.04s   5.639%  ------ ||
|| sparse_product                       :  6559     2169.01s   7.978%  ------ ||
|| multigrid_prepare_bound_cond         :   325     2493.71s   9.173%  ------ ||
|| potential_apply_to_ngwf_batch        :  1859     3282.32s  12.073%  ------ ||
|| density_fftbox_interpolate_multiply  : 53136     3675.62s  13.520%  ------ ||
|| fourier_apply_box                    : 183.3k    3684.30s  13.552% 930.750 ||
|| integrals_locpot_dbl_grid            :   169     4246.62s  15.620%  ------ ||
|| density_batch_interp_deposit         :  3564     5876.06s  21.614%  ------ ||
|| dl_mg_solver_calls                   :   325     6853.52s  25.209%  ------ ||
|| density_on_dbl_grid                  :   324     7629.58s  28.064%  ------ ||
|| multigrid_calculate_hartree          :   325     9508.71s  34.976%  ------ ||
|| hamiltonian_lhxc_calculate           :   320    17736.60s  65.241%  ------ ||
|| lnv_denskernel_optimise_cg           :    16    23278.60s  85.626%  ------ ||
|| ngwf_cg_optimise                     :     2    26366.19s  96.983%  ------ ||
|| total_time                           :     1    27186.35s 100.000%  ------ ||
================================================================================
Overhead of generating timer report: 
- 0 ms averaging over threads,
- 5 ms ensuring consistency across MPI ranks,
- 2 ms printing in order.

Job completed: 26-06-2020 16:04 (+0100)

