 +---------------------------------------------------------------+
 |                                                               |
 |        ####### #     # ####### ####### ####### ######         |
 |        #     # ##    # #          #    #       #     #        |
 |        #     # # #   # #          #    #       #     #        |
 |        #     # #  #  # #####      #    #####   ######         |
 |        #     # #   # # #          #    #       #              |
 |        #     # #    ## #          #    #       #              |
 |        ####### #     # #######    #    ####### #              |
 |                                                               |
 |        Linear-Scaling Ab Initio Total Energy Program          |
 |                                                               |
 |          Release for academic collaborators of ODG            |
 |                                             Version 5.3.2.6.  |
 |                                                               |
 +---------------------------------------------------------------+
 |                                                               |
 |  Authors:                                                     |
 |  Jacek Dziedzic, Peter D. Haynes, Nicholas D. M. Hine,        |
 |  Arash. A. Mostofi, Mike C. Payne and Chris-Kriton Skylaris   |
 |                                                               |
 |  Contributors:                                                |
 |  J. Aarons, L. Andrinopoulos, P. W. Avraam, R. A. Bell,       |
 |  A. Bhandari, G. A. Bramley, R. J. Charlton, S. J. Clark,     |
 |  R. J. Clements, G. C. Constantinescu, F. Corsetti,           |
 |  N. Corsini, O. Dieguez, S. M. M. Dubois, K. K. B. Duff,      |
 |  J. M. Escartin, A. Greco, H. Helal, Q. O. Hill, L. P. Lee,   |
 |  J.-H. Li, E. B. Linscott, G. Moynihan, D. D. O`Regan,        |
 |  O. K. Okan, M. J. S. Phipps, C. J. Pickard,                  |
 |  J. C. A. Prentice, M. I. J. Probert, L. E. Ratcliff,         |
 |  M. Robinson, A. Ruiz Serrano, J. S. Spencer, E. W. Tait,     |
 |  G. Teobaldi, D. Turban, V. Vitale, K. A. Wilkinson,          |
 |  C. Weber, J. C. Womack, N. Yeung and T. J. Zuehlsdorff       |
 |                                                               |
 |                                   Copyright (c) 2004-2019     |
 |                                                               |
 |  Please cite:                                                 |
 |  "Introducing ONETEP: Linear-scaling density functional       |
 |   simulations on parallel computers".                         |
 |   C.-K. Skylaris, P. D. Haynes, A. A. Mostofi, M. C. Payne.   |
 |   J. Chem. Phys. 122 084119 (2005).                           |
 |                                                               |
 |          in all publications arising from your use of ONETEP. |
 |                                                               |
 +---------------------------------------------------------------+
 |                                                               |
 |   ONETEP is based on developments described in the following  |
 |   publications:                                               |
 |                                                               |
 |  "Nonorthogonal generalized Wannier function pseudopotential  |
 |   plane-wave method".                                         |
 |   C.-K. Skylaris, A. A. Mostofi, P. D. Haynes, O. Dieguez,    |
 |   M. C. Payne.                                                |
 |   Phys. Rev. B 66 035119 (2002).                              |
 |                                                               |
 |  "Preconditioned iterative minimization for linear-scaling    |
 |   electronic structure calculations".                         |
 |   A. A. Mostofi, P. D. Haynes, C.-K. Skylaris, M. C. Payne.   |
 |   J. Chem. Phys. 119(17), pp.8842-8848 (2003).                |
 |                                                               |
 |  "Total-energy calculations on a real space grid with         |
 |   localized functions and a plane-wave basis".                |
 |   A. A. Mostofi, C.-K. Skylaris, P. D. Haynes, M. C. Payne.   |
 |   Comput. Phys. Commun. 147, pp.788-802 (2002).               |
 |                                                               |
 |  "Accurate kinetic energy evaluation in electronic structure  |
 |   calculations with localized functions on real space grids"  |
 |   C.-K. Skylaris, A. A. Mostofi, P. D. Haynes, C. J. Pickard, |
 |   M. C. Payne.                                                |
 |   Comput. Phys. Commun. 140, pp.315-322 (2001).               |
 |                                                               |
 |  "Accurate ionic forces and geometry optimization in linear-  |
 |   scaling density-functional theory with local orbitals"      |
 |   N. D. M. Hine, M. Robinson, P. D. Haynes, C.-K. Skylaris,   |
 |   M. C. Payne, and A. A. Mostofi.                             |
 |   Phys. Rev. B 83 195102 (2011).                              |
 |                                                               |
 +---------------------------------------------------------------+

Job started: 25-06-2020 20:16 (+0100)
 
Reading parameters from file "complex_19861.dat" ...... done

If your calculation crashes here, before "Checking processes and threads..."
is displayed, then your stack size is insufficient.
If so, use "ulimit -s unlimited" at runtime.
You can disable this check with "check_stack_size F".

Checking processes and threads...
   Determining the default number of threads...
      No default threads set at compilation time: defaulting to 1.
      OpenMP library call suggests 4 threads.
      Hybrid MPI-OpenMP compilation detected.
      Number of MPI processes > 1.
      OMP_NUM_THREADS environment variable present and
      its value matches the one obtained from the OpenMP library call.
      Using this value as default.
      Default threads: 4
      Default applies to threads_max and threads_num_fftboxes.
      Settings in the input file override this default.
   ... done

   Running with 60 MPI processes.
   There are 6 MPI processes running on the same node as the root process.
   Each MPI process is using: 
               1 threads for simulation cell FFTs.
               1 threads for parallel FFT box operations.
               4 threads for loops over batched FFT box operations.
               4 threads in other parallel regions.
... done

Basic input checks...... done

Reading geometry and species blocks from file "complex_19861.dat" ...
  <species_atomic_set> block not found: NGWF initialisation set to SOLVE
IS: Dielectric excluded regions:
    - NONE.
    
  Number of PPD points along a3 set to 1.  This is 
  the default value, it may have been provided also in the input file.
... done
 Writing xyz coordinates to file "complex_19861.xyz" ... done


--------------------------------------------------------------------------------
---------------------------------- INPUT FILE ----------------------------------
--------------------------------------------------------------------------------

cutoff_energy       : 800 eV                                                    
xc_functional PBE                                                               
task SINGLEPOINT                                                                
write_xyz true                                                                  
output_detail VERBOSE                                                           
ngwf_threshold_orig : 0.000002                                                  
kernel_cutoff       : 1000                                                      
k_zero              : 3.5                                                       
elec_cg_max 0                                                                   
occ_mix 1.0                                                                     
dispersion 1                                                                    
maxit_ngwf_cg 40                                                                
minit_lnv 10                                                                    
maxit_lnv 10                                                                    
write_denskern F                                                                
write_tightbox_ngwfs F                                                          
charge 9                                                                        
is_implicit_solvent T                                                           
is_auto_solvation T                                                             
is_include_apolar T                                                             
is_smeared_ion_rep T                                                            
is_solvent_surf_tension 4.7624E-5 Ha/bohr**2                                    
is_apolar_scaling_factor 0.281075                                               
is_solvation_beta 1.3                                                           
is_density_threshold 0.00035                                                    
is_bulk_permittivity 78.54                                                      
is_dielectric_model fix_initial                                                 
is_smeared_ion_width 0.8                                                        
mg_defco_fd_order 8                                                             
is_bc_coarseness 10                                                             
is_bc_surface_coarseness 1                                                      
fine_grid_scale 2.0                                                             
%block species                                                                  
N   N   7 4 8.0                                                                 
H   H   1 1 8.0                                                                 
C   C   6 4 8.0                                                                 
S   S  16 9 8.0                                                                 
O   O   8 4 8.0                                                                 
%endblock species                                                               
%block species_pot                                                              
N   N_00.recpot                                                                 
H   H_04.recpot                                                                 
C   C_01.recpot                                                                 
S   S_00.recpot                                                                 
O   O_02.recpot                                                                 
%endblock species_pot                                                           
%block lattice_cart                                                             
140.777   0.000   0.000                                                         
0.000 144.511   0.000                                                           
0.000   0.000   162.462                                                         
%endblock lattice_cart                                                          
%block positions_abs                                                            
     Hash =   000000502147324588982527
%endblock positions_abs                                                         

--------------------------------------------------------------------------------
-------------------------------- END INPUT FILE --------------------------------
--------------------------------------------------------------------------------


 
 ESDF WARNING(1): "kernelcutoff" (esdf_physical) has no units. Assume "bohr".
 ESDF WARNING(2): "kzero" (esdf_physical) has no units. Assume "1/bohr".
 ESDF WARNING(3
 ): "issmearedionwidth" (esdf_physical) has no units. Assume "bohr".
<<<<<<<<<<<<<<<<<<<<<<<<<<<<<<<<< Full system >>>>>>>>>>>>>>>>>>>>>>>>>>>>>>>>>>
<<<<<<<<<<<<<<<<<<<<<<<<< Pseudopotential information >>>>>>>>>>>>>>>>>>>>>>>>>>
File: N_00.recpot [ 2001 points up to Gmax=  52.9 (1/bohr)]
  Atomic number:  7;  ionic charge:  5.000000
    Shell 1: l = 0; rc = 1.48 bohr
File: H_04.recpot [ 2001 points up to Gmax=  52.9 (1/bohr)]
  Atomic number:  1;  ionic charge:  1.000000
    Local potential
File: C_01.recpot [ 2001 points up to Gmax=  52.9 (1/bohr)]
  Atomic number:  6;  ionic charge:  4.000000
    Shell 1: l = 0; rc = 1.48 bohr
File: S_00.recpot [ 2001 points up to Gmax=  52.9 (1/bohr)]
  Atomic number: 16;  ionic charge:  6.000000
    Shell 1: l = 0; rc = 1.90 bohr
    Shell 2: l = 2; rc = 1.84 bohr
File: O_02.recpot [ 2001 points up to Gmax=  52.9 (1/bohr)]
  Atomic number:  8;  ionic charge:  6.000000
    Shell 1: l = 0; rc = 1.31 bohr
<<<<<<<<<<<<<<<<<<<<<<<<<<<<<<<<<<<<<<<<>>>>>>>>>>>>>>>>>>>>>>>>>>>>>>>>>>>>>>>>

-------------------------- Atom counting information ---------------------------
Symbol    Natoms    Nngwfs    Nprojs
  N        236       944       236
  H       1319      1319         0
  C        817      3268       817
  S          6        54        36
  O        239       956       239
.......   ......    ......    ......
Totals:   2617      6541      1328
--------------------------------------------------------------------------------

=============================== PSINC grid sizes ===============================
                      Simulation cell:  280 x 286 x 320
                              FFT-box:   99 x  99 x  99
                                  PPD:    5 x  11 x   1
Grid space d1=  0.502775000000a0 (KE cutoff=  30.05084Eh = 817.72503eV)
Grid space d2=  0.505283216783a0 (KE cutoff=  29.75324Eh = 809.62684eV)
Grid space d3=  0.507693750000a0 (KE cutoff=  29.47137Eh = 801.95686eV)
================================================================================

********************* Fourier parallelisation information **********************
       Coarse grid (whole simulation cell) dimensions:    280   286   320
          Real-space ('12') slabs/node (min max mean):      5     6     5
         Recip-space ('23') slabs/node (min max mean):      2     3     2
********************************************************************************

********************* Fourier parallelisation information **********************
       Double grid (whole simulation cell) dimensions:    560   572   640
          Real-space ('12') slabs/node (min max mean):     10    11    10
         Recip-space ('23') slabs/node (min max mean):      4     5     4
********************************************************************************
ONETEP fine grid is 560 x 572 x 640 gridpoints, 140.7770 x 144.5110 x 162.4620 bohr.
FD multigrid is     553 x 569 x 633 gridpoints, 139.0173 x 143.7531 x 160.6851 bohr.


Calculating local pseudopotential in open BC on a radial grid ...
Discrepancy between calculated realspace psloc and -Z/x on [5a0,259.028a0]:
max |rel. diff| # avg |rel. diff| #  avg rel. diff #  f # pseudopotential file
 0.000261578119    0.000004844123   0.000000072210   55  'N_00.recpot'
 0.000419583258    0.000017514079  -0.000000069370   55  'H_04.recpot'
 0.000363553651    0.000016734795   0.000000141192   55  'C_01.recpot'
 0.000449990737    0.000019382085   0.000000449342   55  'S_00.recpot'
 0.000706973137    0.000028359832   0.000000146371   55  'O_02.recpot'
... done

Atom SCF Calculation for N  : Z (AE atom) =   7 : Z (PS atom) =   5
Config String:
Orbitals (num,occ):  2     2.00 3.00
Orbitals   (num,l):  2        0    1
Real-space Grid (nr,dr,rmax): 1203    0.0066555740    8.0000000000
Spherical Bessel Basis (nsws,lmax,cutoff):   47    1  176.3951722778
Confining potential (l,width,scale):  0    3.0000000000  100.0000000000
Confining potential (l,width,scale):  1    3.0000000000  100.0000000000
  1         -4.7312375307   -3.4155304497    7.0523828109   -1.9351020946
  2         -9.7309464766   -2.0532547791    8.2966052865   -2.2494486027
  3         -9.6627394379   -2.1124926340    8.2327997121   -2.2369778124
  4         -9.6814993499   -2.1215521045    8.2229805960   -2.2365178421
  5         -9.6843326483   -2.1250939529    8.2191374534   -2.2362718126
  6         -9.6859628709   -2.1267894855    8.2172963573   -2.2362066344
  7         -9.6867347035   -2.1276425665    8.2163697352   -2.2361903369
  8         -9.6870802100   -2.1280764625    8.2158983890   -2.2361891460
  9         -9.6872290423   -2.1282977424    8.2156580222   -2.2361920435
 10         -9.6872901988   -2.1284107021    8.2155353368   -2.2361953393
 11         -9.6873135296   -2.1284684031    8.2154726809   -2.2361979819
 12         -9.6873212476   -2.1284978948    8.2154406648   -2.2361998431
 13         -9.6873229586   -2.1285129774    8.2154242957   -2.2362010676
 14         -9.6873226456   -2.1285206957    8.2154159216   -2.2362018403
 15         -9.6873218534   -2.1285246479    8.2154116349   -2.2362023142
 16         -9.6873212599   -2.1285262679    8.2154098784   -2.2362025420
 17         -9.6873207834   -2.1285272564    8.2154088068   -2.2362026955
 18         -9.6873204210   -2.1285278596    8.2154081529   -2.2362027982
 19         -9.6873201550   -2.1285282280    8.2154077538   -2.2362028667
 20         -9.6873199645   -2.1285284529    8.2154075102   -2.2362029121
 21         -9.6873198305   -2.1285285903    8.2154073614   -2.2362029421
 22         -9.6873197377   -2.1285286742    8.2154072705   -2.2362029618
Atom SCF converged after  22 iterations to a total energy of     -9.68731974

Atom SCF Calculation for H  : Z (AE atom) =   1 : Z (PS atom) =   1
Config String:
Orbitals (num,occ):  1     1.00
Orbitals   (num,l):  1        0
Real-space Grid (nr,dr,rmax): 1203    0.0066555740    8.0000000000
Spherical Bessel Basis (nsws,lmax,cutoff):   47    0  176.3951722778
Confining potential (l,width,scale):  0    3.0000000000  100.0000000000
  1         -0.3194257691   -0.2393854593    0.2820953124   -0.2424203209
  2         -0.3951823392   -0.2377116493    0.2886404059   -0.2475147891
  3         -0.4317044583   -0.2352244387    0.2921333887   -0.2514046172
  4         -0.4470703708   -0.2341892222    0.2934391879   -0.2531009782
  5         -0.4532132900   -0.2338556667    0.2938388426   -0.2537313520
  6         -0.4556579251   -0.2337612552    0.2939448584   -0.2539550462
  7         -0.4566418315   -0.2337377355    0.2939680120   -0.2540342273
  8         -0.4570437922   -0.2337331116    0.2939708287   -0.2540627372
  9         -0.4572102946   -0.2337328328    0.2939698291   -0.2540732650
 10         -0.4572800424   -0.2337332404    0.2939687193   -0.2540772588
 11         -0.4573095100   -0.2337335791    0.2939680317   -0.2540788122
 12         -0.4573220379   -0.2337337762    0.2939676699   -0.2540794294
 13         -0.4573273880   -0.2337338775    0.2939674931   -0.2540796787
 14         -0.4573296803   -0.2337339266    0.2939674099   -0.2540797808
 15         -0.4573306647   -0.2337339495    0.2939673718   -0.2540798230
 16         -0.4573310882   -0.2337339601    0.2939673545   -0.2540798406
 17         -0.4573312706   -0.2337339649    0.2939673467   -0.2540798479
 18         -0.4573313493   -0.2337339670    0.2939673433   -0.2540798510
Atom SCF converged after  18 iterations to a total energy of     -0.45733135

Atom SCF Calculation for C  : Z (AE atom) =   6 : Z (PS atom) =   4
Config String:
Orbitals (num,occ):  2     2.00 2.00
Orbitals   (num,l):  2        0    1
Real-space Grid (nr,dr,rmax): 1203    0.0066555740    8.0000000000
Spherical Bessel Basis (nsws,lmax,cutoff):   47    1  176.3951722778
Confining potential (l,width,scale):  0    3.0000000000  100.0000000000
Confining potential (l,width,scale):  1    3.0000000000  100.0000000000
  1         -5.2976922011   -1.3069684169    4.5135249990   -1.4493313817
  2         -5.3721716256   -1.3429755895    4.4750154450   -1.4361613026
  3         -5.3809959565   -1.3617365618    4.4541655428   -1.4305930207
  4         -5.3918938866   -1.3667928461    4.4484735100   -1.4294652294
  5         -5.3956096428   -1.3688539142    4.4461376126   -1.4290734646
  6         -5.3968271862   -1.3696852393    4.4451910874   -1.4289366866
  7         -5.3972028401   -1.3700178062    4.4448112275   -1.4288900460
  8         -5.3973067903   -1.3701500158    4.4446598370   -1.4288749220
  9         -5.3973286940   -1.3702023868    4.4445997329   -1.4288704293
 10         -5.3973289850   -1.3702230869    4.4445759233   -1.4288693188
 11         -5.3973254264   -1.3702312560    4.4445665049   -1.4288691775
 12         -5.3973224003   -1.3702344755    4.4445627836   -1.4288692549
 13         -5.3973208708   -1.3702354890    4.4445616088   -1.4288693270
 14         -5.3973198783   -1.3702360102    4.4445610034   -1.4288693814
 15         -5.3973192535   -1.3702362780    4.4445606917   -1.4288694190
 16         -5.3973188684   -1.3702364155    4.4445605313   -1.4288694437
 17         -5.3973186349   -1.3702364860    4.4445604489   -1.4288694595
 18         -5.3973184951   -1.3702365221    4.4445604065   -1.4288694693
 19         -5.3973184122   -1.3702365405    4.4445603848   -1.4288694753
Atom SCF converged after  19 iterations to a total energy of     -5.39731841

Atom SCF Calculation for S  : Z (AE atom) =  16 : Z (PS atom) =   6
Config String:
Orbitals (num,occ):  3     2.00 4.00 0.00
Orbitals   (num,l):  3        0    1    2
Real-space Grid (nr,dr,rmax): 1203    0.0066555740    8.0000000000
Spherical Bessel Basis (nsws,lmax,cutoff):   47    2  176.3951722778
Confining potential (l,width,scale):  0    3.0000000000  100.0000000000
Confining potential (l,width,scale):  1    3.0000000000  100.0000000000
Confining potential (l,width,scale):  2    3.0000000000  100.0000000000
  1        -12.4735062396   -1.0328741412   10.1554312477   -2.4512393157
  2         -9.9458301913   -2.4607392455    8.3041325857   -2.0306994528
  3        -10.1450417646   -2.2931184565    8.4831893826   -2.0812538287
  4        -10.1528335592   -2.2733105793    8.5050388867   -2.0896035179
  5        -10.1571940363   -2.2633716629    8.5160794258   -2.0939370707
  6        -10.1594380571   -2.2584938667    8.5215163935   -2.0961289008
  7        -10.1605856507   -2.2561081821    8.5241804044   -2.0972291378
  8        -10.1611799191   -2.2549395235    8.5254868240   -2.0977806248
  9        -10.1614918752   -2.2543658586    8.5261285885   -2.0980571586
 10        -10.1616572884   -2.2540839121    8.5264441898   -2.0981959233
 11        -10.1617455602   -2.2539453058    8.5265994231   -2.0982656006
 12        -10.1617928447   -2.2538772062    8.5266757320   -2.0983006047
 13        -10.1618182292   -2.2538437891    8.5267131983   -2.0983181961
 14        -10.1618318741   -2.2538274201    8.5267315620   -2.0983270391
 15        -10.1618392144   -2.2538194197    8.5267405433   -2.0983314852
 16        -10.1618431651   -2.2538155200    8.5267449245   -2.0983337210
 17        -10.1618452923   -2.2538136252    8.5267470551   -2.0983348455
 18        -10.1618464380   -2.2538127080    8.5267480875   -2.0983354110
 19        -10.1618470552   -2.2538122659    8.5267485856   -2.0983356955
 20        -10.1618473878   -2.2538120540    8.5267488248   -2.0983358386
 21        -10.1618475670   -2.2538119530    8.5267489389   -2.0983359106
 22        -10.1618476637   -2.2538119053    8.5267489929   -2.0983359468
Atom SCF converged after  22 iterations to a total energy of    -10.16184766

Atom SCF Calculation for O  : Z (AE atom) =   8 : Z (PS atom) =   6
Config String:
Orbitals (num,occ):  2     2.00 4.00
Orbitals   (num,l):  2        0    1
Real-space Grid (nr,dr,rmax): 1203    0.0066555740    8.0000000000
Spherical Bessel Basis (nsws,lmax,cutoff):   47    1  176.3951722778
Confining potential (l,width,scale):  0    3.0000000000  100.0000000000
Confining potential (l,width,scale):  1    3.0000000000  100.0000000000
  1         -1.8735052164   -7.5539365035   10.1554312477   -2.4512393157
  2        -16.0318313751   -3.1285771268   13.6395848164   -3.2358799643
  3        -15.9524020423   -3.0762819706   13.6967272503   -3.2536856837
  4        -15.8521515939   -3.0781493909   13.6951909330   -3.2561700440
  5        -15.8357139793   -3.0748501933   13.6988803334   -3.2580493133
  6        -15.8246052853   -3.0740779781   13.6997881576   -3.2588327446
  7        -15.8189019501   -3.0737449687   13.7001869911   -3.2592378801
  8        -15.8159785510   -3.0736026016   13.7003615168   -3.2594475790
  9        -15.8144776168   -3.0735437994   13.7004360379   -3.2595560735
 10        -15.8137058024   -3.0735207882   13.7004667348   -3.2596122456
 11        -15.8133083127   -3.0735125946   13.7004786868   -3.2596413656
 12        -15.8131032938   -3.0735102195   13.7004828997   -3.2596564858
 13        -15.8129973902   -3.0735099286   13.7004840891   -3.2596643505
 14        -15.8129426040   -3.0735102506   13.7004842061   -3.2596684489
 15        -15.8129142203   -3.0735106556   13.7004840157   -3.2596705887
 16        -15.8128994940   -3.0735109855   13.7004837906   -3.2596717080
 17        -15.8128918425   -3.0735112169   13.7004836103   -3.2596722946
 18        -15.8128878614   -3.0735113674   13.7004834848   -3.2596726026
 19        -15.8128857871   -3.0735114608   13.7004834035   -3.2596727646
 20        -15.8128847048   -3.0735115170   13.7004833533   -3.2596728500
 21        -15.8128841394   -3.0735115501   13.7004833231   -3.2596728951
 22        -15.8128838436   -3.0735115693   13.7004833054   -3.2596729190
 23        -15.8128836887   -3.0735115802   13.7004832951   -3.2596729316
 24        -15.8128836074   -3.0735115864   13.7004832893   -3.2596729383
Atom SCF converged after  24 iterations to a total energy of    -15.81288361

========================== Calculation in vacuum ==============================
= Adjusting the following parameters: 
= is_implicit_solvent: F
= is_include_apolar: F
= write_denskern: T
= write_tightbox_ngwfs: T
= restart read filename prefix: ""
= restart write filename prefix: "vacuum_"
===============================================================================

Determining parallel strategy ...
... using space-filling curve
... NGWF load balancing: max    110;  min    109;  average    109
... Projector load balancing: max     26;  min     21;  average     22
... done
Calculating direct Ion-Ion energy ...
Ion-Ion Energy        :    828761.23141004436184
======================= Empirical dispersion information =======================
Model : Elstner
Dispersion Correction Energy: -0.32824429E+01 Hartree
================================================================================
Basis initialisation ...... NGWF spheres initialised
... Projector spheres initialised
... NGWF tight boxes initialised
... Tight-boxes gathered
... NGWF basis size (local,global):    1043999  62346055
... Nonlocal pseudopotential projector initialisation
... done

========================== Sparse matrix information ===========================
                        Overlap matrix filling:   6.74%
                        Density kernel filling: 100.00%
              NGWF-Proj overlap matrix filling:   1.77%
                    Hamiltonian matrix filling:   7.61%
                  NGWF diagonal matrix filling:   0.05%
                             KS matrix filling: 100.00% 
                           KSKS matrix filling: 100.00% 
================================================================================

Sparse matrix initialisation ... done

Generating smeared ion density ... done
Smeared ion self correction:     -14517.010906
Smeared ion non-self correction: -828712.873849
NGWF initialisation ...... done
============ Calculation of NGWF S^-1 using Hotelling algorithm ================ 
         Iteration  |  Frobenius norm and Maximum abs value    (of I-S*S_n^-1)   
               1       0.78657625E+02     0.98208101E+00
               2       0.76773595E+02     0.96472780E+00
               3       0.73733047E+02     0.93156657E+00
               4       0.69429048E+02     0.87057376E+00
               5       0.64087204E+02     0.76521225E+00
               6       0.58102546E+02     0.70211668E+00
               7       0.52105975E+02     0.66706733E+00
               8       0.46559544E+02     0.64088947E+00
               9       0.40446670E+02     0.59916758E+00
              10       0.32101845E+02     0.52713163E+00
              11       0.21467764E+02     0.42504364E+00
              12       0.10871912E+02     0.28358002E+00
              13       0.35222885E+01     0.12794073E+00
              14       0.53750272E+00     0.28907229E-01
              15       0.23704564E-01     0.18989988E-02
              16       0.10622009E-03     0.11049464E-04
              17       0.34302002E-08     0.39395021E-09
              18       0.91133273E-13     0.55511151E-14
================================================================================
Calculating local pseudopotential in open BC on the fine real space grid ...
... done

MG BCs: +ve charge blocks (gridpoints):     20479 (   16040593).
MG BCs: -ve charge blocks (gridpoints):      7985 (    1079496).
MG BCs:     Elided blocks (gridpoints):    183809 (  182057792).
MG BCs: Computational effort saved:  99.9857%.
MG BCs: Charge after coarse-graining:           -9.0002272.
MG DL_MG: Calling solver with defect correction order = 8
MG DL_MG: Solver finished
MG Hartree energy from (\int phi*rho dr):              1471.377832
MG Hartree energy from (\int eps (grad phi)^2 dr):     1470.764327
MG Discrepancy due to finite box and discretization:     -0.613505 (  -0.04170%)
MG Correction to account for finite box:                  0.459102
MG Remaining discrepancy, due to discretization:         -0.154403 (  -0.01049%)
Up spin density kernel initialisation ... 
======= Optimisation of K by Palser-Manolopoulos canonical purification ======== 
         Iteration  |  Band structure energy |    c_n   
               1       -2582.27381093784288    0.5272009
               2       -2759.04512037200266    0.5172961
               3       -2940.57511034179151    0.5153816
               4       -3092.69212431126880    0.5284971
               5       -3186.79629999428835    0.5639264
               6       -3226.38906460338330    0.6090562
               7       -3239.83888859771741    0.6225886
               8       -3245.62388044837053    0.6241330
               9       -3248.41057910640120    0.6431934
              10       -3249.56487352570230    0.6720706
              11       -3250.02368734460106    0.6887071
              12       -3250.23285176319041    0.6705287
              13       -3250.35270490122139    0.6079321
              14       -3250.43277893435015    0.5065867
              15       -3250.47724360679240    0.3711987
              16       -3250.48014927073291    0.3512003
              17       -3250.48116008686338    0.3280591
              18       -3250.48158907684228    0.3399906
              19       -3250.48180993671804    0.3776433
              20       -3250.48198507132338    0.4228279
              21       -3250.48210914085030    0.4670687
              22       -3250.48217217445335    0.4938163
              23       -3250.48219413947163    0.4997809
              24       -3250.48221043682406    0.4999997
              25       -3250.48223186740870    0.5000000
              26       -3250.48225714723412    0.5000000
              27       -3250.48227958804227    0.5000000
              28       -3250.48229069470835    0.5000000
              29       -3250.48229249733731    0.5000000
              30       -3250.48229253561385    0.5000000
Termination criterion satisfied: band energy change below threshold.
Final occupancy bounds: [    0.00000000002643:    0.99999999999900]
Closest occupancy to 0.5:     0.99999999999870
================================================================================
... done

Writing density kernel to file "complex_19861.vacuum_dkn" ... done

>>> Optimising kernel for current NGWFs:
   Initial electron number for spin 1:    7228.00000000
     Final electron number for spin 1:    7228.00000000

=================== Penalty functional idempotency correction ==================
 RMS occupancy error at iteration   1:  0.000000 (step -0.5000 Ne1=   7228.0000)
            Final RMS occupancy error   :  0.000000 (Ne1=   7228.0000)
               Final occupancy bounds   : [  0.0000,  1.0000]
================================================================================

................................................................................
<<<<<<<<<<<<<< LNV (Original version) density kernel optimisation >>>>>>>>>>>>>>
~~~~~~~~~~~~~~~~~~~~~~~~~~~~~~~~~~~~~~~~~~~~~~~~~~~~~~~~~~~~~~~~~~~~~~~~~~~~~~~~
   iter  |      energy (Eh)       | rms gradient |  commutator  |   dE (Eh)
MG BCs: +ve charge blocks (gridpoints):     30852 (   17199406).
MG BCs: -ve charge blocks (gridpoints):      8298 (    1112739).
MG BCs:     Elided blocks (gridpoints):    173427 (  180865736).
MG BCs: Computational effort saved:  99.9803%.
MG BCs: Charge after coarse-graining:           -9.0009547.
MG DL_MG: Calling solver with defect correction order = 8
MG DL_MG: Solver finished
MG Hartree energy from (\int phi*rho dr):              1426.418160
MG Hartree energy from (\int eps (grad phi)^2 dr):     1425.756151
MG Discrepancy due to finite box and discretization:     -0.662009 (  -0.04641%)
MG Correction to account for finite box:                  0.463967
MG Remaining discrepancy, due to discretization:         -0.198041 (  -0.01388%)
      ideal mu1:      -0.704998757287
             Q0:  -11550.430816608481
             G0:    -144.331055890316
   RMS gradient:       0.001836689509
MG BCs: +ve charge blocks (gridpoints):     30811 (   17280749).
MG BCs: -ve charge blocks (gridpoints):      8209 (    1092050).
MG BCs:     Elided blocks (gridpoints):    173466 (  180805082).
MG BCs: Computational effort saved:  99.9804%.
MG BCs: Charge after coarse-graining:           -9.0009751.
MG DL_MG: Calling solver with defect correction order = 8
MG DL_MG: Solver finished
MG Hartree energy from (\int phi*rho dr):              1451.968173
MG Hartree energy from (\int eps (grad phi)^2 dr):     1451.321323
MG Discrepancy due to finite box and discretization:     -0.646850 (  -0.04455%)
MG Correction to account for finite box:                  0.464947
MG Remaining discrepancy, due to discretization:         -0.181904 (  -0.01253%)
     Trial step:       0.500000000000
             Q1:  -11561.836321034702
 Quadratic coef:      60.760023518938
 Linear coef   :     -72.165527945158
           Qmin:  -11571.858817792434
Quadratic minimum step length (  0.296928489184) accepted
    Initial Ne1:    7228.00000000
      Final Ne1:    7228.00000000

=================== Penalty functional idempotency correction ==================
 RMS occupancy error at iteration   1:  0.003374 (step -0.4885 Ne1=   7228.0000)
 RMS occupancy error at iteration   2:  0.000027 (step -0.5001 Ne1=   7228.0000)
            Final RMS occupancy error   :  0.000000 (Ne1=   7228.0000)
               Final occupancy bounds   : [  0.0000,  1.0000]
================================================================================

    1        -1.155043081661E+04     1.8367E-03     1.6621E-03
MG BCs: +ve charge blocks (gridpoints):     30834 (   17249793).
MG BCs: -ve charge blocks (gridpoints):      8248 (    1100477).
MG BCs:     Elided blocks (gridpoints):    173445 (  180827611).
MG BCs: Computational effort saved:  99.9804%.
MG BCs: Charge after coarse-graining:           -9.0009665.
MG DL_MG: Calling solver with defect correction order = 8
MG DL_MG: Solver finished
MG Hartree energy from (\int phi*rho dr):              1433.675761
MG Hartree energy from (\int eps (grad phi)^2 dr):     1433.023762
MG Discrepancy due to finite box and discretization:     -0.651999 (  -0.04548%)
MG Correction to account for finite box:                  0.464388
MG Remaining discrepancy, due to discretization:         -0.187611 (  -0.01309%)
      ideal mu1:      -0.746007270154
             Q0:  -11572.253311509616
             G0:     -12.050967902697
   RMS gradient:       0.000527187325
MG BCs: +ve charge blocks (gridpoints):     30827 (   17266390).
MG BCs: -ve charge blocks (gridpoints):      8225 (    1095239).
MG BCs:     Elided blocks (gridpoints):    173449 (  180816252).
MG BCs: Computational effort saved:  99.9804%.
MG BCs: Charge after coarse-graining:           -9.0009701.
MG DL_MG: Calling solver with defect correction order = 8
MG DL_MG: Solver finished
MG Hartree energy from (\int phi*rho dr):              1438.872355
MG Hartree energy from (\int eps (grad phi)^2 dr):     1438.223729
MG Discrepancy due to finite box and discretization:     -0.648626 (  -0.04508%)
MG Correction to account for finite box:                  0.464230
MG Remaining discrepancy, due to discretization:         -0.184395 (  -0.01282%)
     Trial step:       0.385310581988
             Q1:  -11575.069648153963
 Quadratic coef:       1.827028811764
 Linear coef   :      -4.643365456112
           Qmin:  -11575.203571874996
Quadratic minimum step length (  0.489630441173) accepted
    Initial Ne1:    7227.99988831
      Final Ne1:    7228.00000000

=================== Penalty functional idempotency correction ==================
 RMS occupancy error at iteration   1:  0.001781 (step -0.4930 Ne1=   7228.0000)
 RMS occupancy error at iteration   2:  0.000012 (step -0.5002 Ne1=   7228.0000)
            Final RMS occupancy error   :  0.000000 (Ne1=   7228.0000)
               Final occupancy bounds   : [  0.0000,  1.0000]
================================================================================

    2        -1.157225331151E+04     5.2719E-04     4.7708E-04    -2.1822E+01
MG BCs: +ve charge blocks (gridpoints):     30829 (   17270774).
MG BCs: -ve charge blocks (gridpoints):      8213 (    1093937).
MG BCs:     Elided blocks (gridpoints):    173447 (  180813170).
MG BCs: Computational effort saved:  99.9804%.
MG BCs: Charge after coarse-graining:           -9.0009711.
MG DL_MG: Calling solver with defect correction order = 8
MG DL_MG: Solver finished
MG Hartree energy from (\int phi*rho dr):              1440.327435
MG Hartree energy from (\int eps (grad phi)^2 dr):     1439.679646
MG Discrepancy due to finite box and discretization:     -0.647789 (  -0.04498%)
MG Correction to account for finite box:                  0.464203
MG Remaining discrepancy, due to discretization:         -0.183586 (  -0.01275%)
      ideal mu1:      -0.768593910801
             Q0:  -11575.239975516568
             G0:      -1.941322125634
   RMS gradient:       0.000211647702
MG BCs: +ve charge blocks (gridpoints):     30835 (   17270258).
MG BCs: -ve charge blocks (gridpoints):      8223 (    1094967).
MG BCs:     Elided blocks (gridpoints):    173441 (  180812656).
MG BCs: Computational effort saved:  99.9804%.
MG BCs: Charge after coarse-graining:           -9.0009707.
MG DL_MG: Calling solver with defect correction order = 8
MG DL_MG: Solver finished
MG Hartree energy from (\int phi*rho dr):              1438.044919
MG Hartree energy from (\int eps (grad phi)^2 dr):     1437.397491
MG Discrepancy due to finite box and discretization:     -0.647428 (  -0.04502%)
MG Correction to account for finite box:                  0.464066
MG Remaining discrepancy, due to discretization:         -0.183361 (  -0.01275%)
     Trial step:       0.434349847758
             Q1:  -11575.731953420094
 Quadratic coef:       0.351235066193
 Linear coef   :      -0.843212969719
           Qmin:  -11575.746052628976
Quadratic minimum step length (  0.521373661512) accepted
    Initial Ne1:    7227.99990796
      Final Ne1:    7228.00000000

=================== Penalty functional idempotency correction ==================
 RMS occupancy error at iteration   1:  0.000629 (step -0.4972 Ne1=   7228.0000)
 RMS occupancy error at iteration   2:  0.000002 (step -0.5000 Ne1=   7228.0000)
            Final RMS occupancy error   :  0.000000 (Ne1=   7228.0000)
               Final occupancy bounds   : [  0.0000,  1.0000]
================================================================================

    3        -1.157523997552E+04     2.1165E-04     1.9153E-04    -2.9867E+00
MG BCs: +ve charge blocks (gridpoints):     30836 (   17270104).
MG BCs: -ve charge blocks (gridpoints):      8226 (    1095187).
MG BCs:     Elided blocks (gridpoints):    173440 (  180812590).
MG BCs: Computational effort saved:  99.9804%.
MG BCs: Charge after coarse-graining:           -9.0009707.
MG DL_MG: Calling solver with defect correction order = 8
MG DL_MG: Solver finished
MG Hartree energy from (\int phi*rho dr):              1437.596855
MG Hartree energy from (\int eps (grad phi)^2 dr):     1436.949489
MG Discrepancy due to finite box and discretization:     -0.647365 (  -0.04503%)
MG Correction to account for finite box:                  0.464039
MG Remaining discrepancy, due to discretization:         -0.183326 (  -0.01275%)
      ideal mu1:      -0.769568213287
             Q0:  -11575.750814705272
             G0:      -0.497256239053
   RMS gradient:       0.000107248673
MG BCs: +ve charge blocks (gridpoints):     30837 (   17271304).
MG BCs: -ve charge blocks (gridpoints):      8225 (    1094866).
MG BCs:     Elided blocks (gridpoints):    173439 (  180811711).
MG BCs: Computational effort saved:  99.9804%.
MG BCs: Charge after coarse-graining:           -9.0009708.
MG DL_MG: Calling solver with defect correction order = 8
MG DL_MG: Solver finished
MG Hartree energy from (\int phi*rho dr):              1438.804815
MG Hartree energy from (\int eps (grad phi)^2 dr):     1438.157452
MG Discrepancy due to finite box and discretization:     -0.647363 (  -0.04499%)
MG Correction to account for finite box:                  0.463927
MG Remaining discrepancy, due to discretization:         -0.183436 (  -0.01275%)
     Trial step:       0.475876633701
             Q1:  -11575.870503541548
 Quadratic coef:       0.116943788853
 Linear coef   :      -0.236632625128
           Qmin:  -11575.870519650323
Quadratic minimum step length (  0.481461812441) accepted
    Initial Ne1:    7227.99997809
      Final Ne1:    7228.00000000

=================== Penalty functional idempotency correction ==================
 RMS occupancy error at iteration   1:  0.000249 (step -0.4979 Ne1=   7228.0000)
 RMS occupancy error at iteration   2:  0.000001 (step -0.5000 Ne1=   7228.0000)
            Final RMS occupancy error   :  0.000000 (Ne1=   7228.0000)
               Final occupancy bounds   : [  0.0000,  1.0000]
================================================================================

    4        -1.157575081471E+04     1.0725E-04     9.7055E-05    -5.1084E-01
MG BCs: +ve charge blocks (gridpoints):     30837 (   17271326).
MG BCs: -ve charge blocks (gridpoints):      8225 (    1094849).
MG BCs:     Elided blocks (gridpoints):    173439 (  180811706).
MG BCs: Computational effort saved:  99.9804%.
MG BCs: Charge after coarse-graining:           -9.0009708.
MG DL_MG: Calling solver with defect correction order = 8
MG DL_MG: Solver finished
MG Hartree energy from (\int phi*rho dr):              1438.819366
MG Hartree energy from (\int eps (grad phi)^2 dr):     1438.172004
MG Discrepancy due to finite box and discretization:     -0.647363 (  -0.04499%)
MG Correction to account for finite box:                  0.463925
MG Remaining discrepancy, due to discretization:         -0.183437 (  -0.01275%)
      ideal mu1:      -0.770014558505
             Q0:  -11575.871115970076
             G0:      -0.164893182062
   RMS gradient:       0.000061927399
MG BCs: +ve charge blocks (gridpoints):     30838 (   17271589).
MG BCs: -ve charge blocks (gridpoints):      8225 (    1094740).
MG BCs:     Elided blocks (gridpoints):    173438 (  180811552).
MG BCs: Computational effort saved:  99.9804%.
MG BCs: Charge after coarse-graining:           -9.0009706.
MG DL_MG: Calling solver with defect correction order = 8
MG DL_MG: Solver finished
MG Hartree energy from (\int phi*rho dr):              1439.268990
MG Hartree energy from (\int eps (grad phi)^2 dr):     1438.621533
MG Discrepancy due to finite box and discretization:     -0.647457 (  -0.04499%)
MG Correction to account for finite box:                  0.463873
MG Remaining discrepancy, due to discretization:         -0.183584 (  -0.01276%)
     Trial step:       0.478661076922
             Q1:  -11575.920891416026
 Quadratic coef:       0.029152502153
 Linear coef   :      -0.078927948103
           Qmin:  -11575.924538665657
Quadratic minimum step length (  0.647967307229) accepted
    Initial Ne1:    7227.99999019
      Final Ne1:    7228.00000000

=================== Penalty functional idempotency correction ==================
 RMS occupancy error at iteration   1:  0.000264 (step -0.4890 Ne1=   7228.0000)
 RMS occupancy error at iteration   2:  0.000004 (step -0.5000 Ne1=   7228.0000)
            Final RMS occupancy error   :  0.000000 (Ne1=   7228.0000)
               Final occupancy bounds   : [  0.0000,  1.0000]
================================================================================

    5        -1.157587111597E+04     6.1927E-05     5.6041E-05    -1.2030E-01
MG BCs: +ve charge blocks (gridpoints):     30838 (   17271659).
MG BCs: -ve charge blocks (gridpoints):      8221 (    1094676).
MG BCs:     Elided blocks (gridpoints):    173438 (  180811546).
MG BCs: Computational effort saved:  99.9804%.
MG BCs: Charge after coarse-graining:           -9.0009706.
MG DL_MG: Calling solver with defect correction order = 8
MG DL_MG: Solver finished
MG Hartree energy from (\int phi*rho dr):              1439.427032
MG Hartree energy from (\int eps (grad phi)^2 dr):     1438.779543
MG Discrepancy due to finite box and discretization:     -0.647489 (  -0.04498%)
MG Correction to account for finite box:                  0.463853
MG Remaining discrepancy, due to discretization:         -0.183635 (  -0.01276%)
      ideal mu1:      -0.770129959962
             Q0:  -11575.924505734816
             G0:      -0.124131104298
   RMS gradient:       0.000053906474
MG BCs: +ve charge blocks (gridpoints):     30835 (   17271051).
MG BCs: -ve charge blocks (gridpoints):      8221 (    1095004).
MG BCs:     Elided blocks (gridpoints):    173441 (  180811826).
MG BCs: Computational effort saved:  99.9804%.
MG BCs: Charge after coarse-graining:           -9.0009705.
MG DL_MG: Calling solver with defect correction order = 8
MG DL_MG: Solver finished
MG Hartree energy from (\int phi*rho dr):              1438.368968
MG Hartree energy from (\int eps (grad phi)^2 dr):     1437.721573
MG Discrepancy due to finite box and discretization:     -0.647394 (  -0.04501%)
MG Correction to account for finite box:                  0.463767
MG Remaining discrepancy, due to discretization:         -0.183628 (  -0.01277%)
     Trial step:       0.556917165374
             Q1:  -11575.980113202590
 Quadratic coef:       0.013523274967
 Linear coef   :      -0.069130742740
           Qmin:  -11576.012854518736
Quadratic minimum step length (  1.423475355659) accepted
    Initial Ne1:    7227.99998190
      Final Ne1:    7228.00000000

=================== Penalty functional idempotency correction ==================
 RMS occupancy error at iteration   1:  0.002499 (step -0.3761 Ne1=   7228.0000)
 RMS occupancy error at iteration   2:  0.000166 (step -0.4956 Ne1=   7228.0000)
 RMS occupancy error at iteration   3:  0.000002 (step -0.5000 Ne1=   7228.0000)
            Final RMS occupancy error   :  0.000000 (Ne1=   7228.0000)
               Final occupancy bounds   : [  0.0000,  1.0000]
================================================================================

    6        -1.157592450573E+04     5.3906E-05     4.8783E-05    -5.3390E-02
MG BCs: +ve charge blocks (gridpoints):     30834 (   17269982).
MG BCs: -ve charge blocks (gridpoints):      8224 (    1095626).
MG BCs:     Elided blocks (gridpoints):    173442 (  180812273).
MG BCs: Computational effort saved:  99.9804%.
MG BCs: Charge after coarse-graining:           -9.0009703.
MG DL_MG: Calling solver with defect correction order = 8
MG DL_MG: Solver finished
MG Hartree energy from (\int phi*rho dr):              1436.708186
MG Hartree energy from (\int eps (grad phi)^2 dr):     1436.060969
MG Discrepancy due to finite box and discretization:     -0.647217 (  -0.04505%)
MG Correction to account for finite box:                  0.463605
MG Remaining discrepancy, due to discretization:         -0.183611 (  -0.01278%)
      ideal mu1:      -0.769946119905
             Q0:  -11575.993320001755
             G0:      -0.319478568339
   RMS gradient:       0.000086412529
MG BCs: +ve charge blocks (gridpoints):     30839 (   17273093).
MG BCs: -ve charge blocks (gridpoints):      8226 (    1094058).
MG BCs:     Elided blocks (gridpoints):    173437 (  180810730).
MG BCs: Computational effort saved:  99.9804%.
MG BCs: Charge after coarse-graining:           -9.0009712.
MG DL_MG: Calling solver with defect correction order = 8
MG DL_MG: Solver finished
MG Hartree energy from (\int phi*rho dr):              1440.852639
MG Hartree energy from (\int eps (grad phi)^2 dr):     1440.205729
MG Discrepancy due to finite box and discretization:     -0.646910 (  -0.04490%)
MG Correction to account for finite box:                  0.463426
MG Remaining discrepancy, due to discretization:         -0.183484 (  -0.01273%)
     Trial step:       0.890369507594
             Q1:  -11576.052342378418
 Quadratic coef:       0.225431598916
 Linear coef   :      -0.284453975579
           Qmin:  -11576.083052391326
Quadratic minimum step length (  0.561742780045) accepted
    Initial Ne1:    7227.99999977
      Final Ne1:    7228.00000000

=================== Penalty functional idempotency correction ==================
 RMS occupancy error at iteration   1:  0.000133 (step -0.4917 Ne1=   7228.0000)
 RMS occupancy error at iteration   2:  0.000001 (step -0.5000 Ne1=   7228.0000)
            Final RMS occupancy error   :  0.000000 (Ne1=   7228.0000)
               Final occupancy bounds   : [  0.0000,  1.0000]
================================================================================

    7        -1.157599332000E+04     8.6413E-05     7.8199E-05    -6.8814E-02
MG BCs: +ve charge blocks (gridpoints):     30836 (   17272069).
MG BCs: -ve charge blocks (gridpoints):      8226 (    1094569).
MG BCs:     Elided blocks (gridpoints):    173440 (  180811243).
MG BCs: Computational effort saved:  99.9804%.
MG BCs: Charge after coarse-graining:           -9.0009708.
MG DL_MG: Calling solver with defect correction order = 8
MG DL_MG: Solver finished
MG Hartree energy from (\int phi*rho dr):              1439.313731
MG Hartree energy from (\int eps (grad phi)^2 dr):     1438.666709
MG Discrepancy due to finite box and discretization:     -0.647021 (  -0.04495%)
MG Correction to account for finite box:                  0.463493
MG Remaining discrepancy, due to discretization:         -0.183529 (  -0.01275%)
      ideal mu1:      -0.771133965635
             Q0:  -11576.083294582902
             G0:      -0.211614178861
   RMS gradient:       0.000070250191
MG BCs: +ve charge blocks (gridpoints):     30841 (   17272374).
MG BCs: -ve charge blocks (gridpoints):      8224 (    1094414).
MG BCs:     Elided blocks (gridpoints):    173435 (  180811093).
MG BCs: Computational effort saved:  99.9804%.
MG BCs: Charge after coarse-graining:           -9.0009709.
MG DL_MG: Calling solver with defect correction order = 8
MG DL_MG: Solver finished
MG Hartree energy from (\int phi*rho dr):              1439.433876
MG Hartree energy from (\int eps (grad phi)^2 dr):     1438.787150
MG Discrepancy due to finite box and discretization:     -0.646726 (  -0.04493%)
MG Correction to account for finite box:                  0.463351
MG Remaining discrepancy, due to discretization:         -0.183374 (  -0.01274%)
     Trial step:       0.707218949451
             Q1:  -11576.179563148879
 Quadratic coef:       0.053388991288
 Linear coef   :      -0.149657557263
           Qmin:  -11576.188172872909
Quadratic minimum step length (  0.991221765689) accepted
    Initial Ne1:    7227.99999967
      Final Ne1:    7228.00000000

=================== Penalty functional idempotency correction ==================
 RMS occupancy error at iteration   1:  0.001559 (step -0.4149 Ne1=   7228.0000)
 RMS occupancy error at iteration   2:  0.000058 (step -0.4977 Ne1=   7228.0000)
 RMS occupancy error at iteration   3:  0.000000 (step -0.5000 Ne1=   7228.0000)
            Final RMS occupancy error   :  0.000000 (Ne1=   7228.0000)
               Final occupancy bounds   : [  0.0000,  1.0000]
================================================================================

    8        -1.157608329458E+04     7.0250E-05     6.3573E-05    -8.9975E-02
MG BCs: +ve charge blocks (gridpoints):     30842 (   17272345).
MG BCs: -ve charge blocks (gridpoints):      8220 (    1094420).
MG BCs:     Elided blocks (gridpoints):    173434 (  180811116).
MG BCs: Computational effort saved:  99.9804%.
MG BCs: Charge after coarse-graining:           -9.0009710.
MG DL_MG: Calling solver with defect correction order = 8
MG DL_MG: Solver finished
MG Hartree energy from (\int phi*rho dr):              1439.485883
MG Hartree energy from (\int eps (grad phi)^2 dr):     1438.839270
MG Discrepancy due to finite box and discretization:     -0.646613 (  -0.04492%)
MG Correction to account for finite box:                  0.463299
MG Remaining discrepancy, due to discretization:         -0.183314 (  -0.01273%)
      ideal mu1:      -0.770994056251
             Q0:  -11576.182885700837
             G0:      -0.293025172500
   RMS gradient:       0.000085249506
MG BCs: +ve charge blocks (gridpoints):     30837 (   17271267).
MG BCs: -ve charge blocks (gridpoints):      8221 (    1095195).
MG BCs:     Elided blocks (gridpoints):    173439 (  180811419).
MG BCs: Computational effort saved:  99.9804%.
MG BCs: Charge after coarse-graining:           -9.0009707.
MG DL_MG: Calling solver with defect correction order = 8
MG DL_MG: Solver finished
MG Hartree energy from (\int phi*rho dr):              1437.632834
MG Hartree energy from (\int eps (grad phi)^2 dr):     1436.986507
MG Discrepancy due to finite box and discretization:     -0.646327 (  -0.04496%)
MG Correction to account for finite box:                  0.463200
MG Remaining discrepancy, due to discretization:         -0.183127 (  -0.01274%)
     Trial step:       0.837263886600
             Q1:  -11576.247462507919
 Quadratic coef:       0.180762587715
 Linear coef   :      -0.245339394799
           Qmin:  -11576.266132211358
Quadratic minimum step length (  0.568186752086) accepted
    Initial Ne1:    7227.99999972
      Final Ne1:    7228.00000000

=================== Penalty functional idempotency correction ==================
 RMS occupancy error at iteration   1:  0.003750 (step -0.3378 Ne1=   7228.0000)
 RMS occupancy error at iteration   2:  0.000242 (step -0.4896 Ne1=   7228.0000)
 RMS occupancy error at iteration   3:  0.000005 (step -0.5003 Ne1=   7228.0000)
            Final RMS occupancy error   :  0.000000 (Ne1=   7228.0000)
               Final occupancy bounds   : [  0.0000,  1.0000]
================================================================================

    9        -1.157618288570E+04     8.5250E-05     7.7147E-05    -9.9591E-02
MG BCs: +ve charge blocks (gridpoints):     30840 (   17271624).
MG BCs: -ve charge blocks (gridpoints):      8222 (    1094953).
MG BCs:     Elided blocks (gridpoints):    173436 (  180811304).
MG BCs: Computational effort saved:  99.9804%.
MG BCs: Charge after coarse-graining:           -9.0009708.
MG DL_MG: Calling solver with defect correction order = 8
MG DL_MG: Solver finished
MG Hartree energy from (\int phi*rho dr):              1438.226470
MG Hartree energy from (\int eps (grad phi)^2 dr):     1437.580121
MG Discrepancy due to finite box and discretization:     -0.646349 (  -0.04494%)
MG Correction to account for finite box:                  0.463171
MG Remaining discrepancy, due to discretization:         -0.183178 (  -0.01274%)
      ideal mu1:      -0.769883858756
   10        -1.157627151319E+04     7.1482E-05     6.4688E-05    -8.8627E-02
Finished density kernel iterations (  10)

Writing density kernel to file "complex_19861.vacuum_dkn" ... done


>>> Density kernel optimised for the current NGWF basis:
     ~~~~~~~~~~~~~~~~~~~~~~~~~~~~~~~~~~~~~~~~~~~~~~~~~~~~~~~~~~~
     Total energy                =  -1.15762715131934E+04  Eh
     Estimated bandgap           =  -3.8483E-01  Eh
     RMS occupancy error         =   1.0782E-09
     [H,K] commutator            =   6.4688E-05
     Occupancy bounds            = [  0.000:  1.000]
     ~~~~~~~~~~~~~~~~~~~~~~~~~~~~~~~~~~~~~~~~~~~~~~~~~~~~~~~~~~~




################################################################################
########################### NGWF CG iteration  001 #############################
################################################################################
****** Reciprocal space K.E. preconditioning with k_zero =  3.5000 a0^-1 *******

>>> Checking for convergence of NGWFs:   NOT CONVERGED
  ========================================================================
         NGWF RMS gradient =  1.6021E-03 >  2.0000E-06  | above tolerance
  ========================================================================

>>> Improving NGWFs using line search:
============ Calculation of NGWF S^-1 using Hotelling algorithm ================ 
         Iteration  |  Frobenius norm and Maximum abs value    (of I-S*S_n^-1)   
               1       0.19980498E+00     0.54823751E-02
               2       0.93383385E-03     0.47371771E-04
               3       0.35801429E-07     0.35147669E-08
               4       0.12697587E-12     0.51070259E-14
================================================================================
MG BCs: +ve charge blocks (gridpoints):     30383 (   17221195).
MG BCs: -ve charge blocks (gridpoints):      8253 (    1094862).
MG BCs:     Elided blocks (gridpoints):    173897 (  180861824).
MG BCs: Computational effort saved:  99.9806%.
MG BCs: Charge after coarse-graining:           -9.0009723.
MG DL_MG: Calling solver with defect correction order = 8
MG DL_MG: Solver finished
MG Hartree energy from (\int phi*rho dr):              1406.175557
MG Hartree energy from (\int eps (grad phi)^2 dr):     1405.529988
MG Discrepancy due to finite box and discretization:     -0.645569 (  -0.04591%)
MG Correction to account for finite box:                  0.463160
MG Remaining discrepancy, due to discretization:         -0.182409 (  -0.01297%)
============ Calculation of NGWF S^-1 using Hotelling algorithm ================ 
         Iteration  |  Frobenius norm and Maximum abs value    (of I-S*S_n^-1)   
               1       0.18508954E+01     0.44806070E-01
               2       0.71464830E-01     0.28254786E-02
               3       0.14894471E-03     0.12645005E-04
               4       0.13473325E-08     0.26134195E-09
               5       0.10927227E-12     0.39968029E-14
================================================================================
------------------------------- NGWF line search -------------------------------
RMS gradient                =       0.00160205168272
Trial step length           =               0.122474
Gradient along search dir.  =       -279.15499259335
Functional at step 0        =  -11576.27151319338009
Functional at step 1        =  -11607.83171496645082
Functional predicted        =  -11687.42026542281201
Selected quadratic step     =               0.796323
--------------------------- NGWF line search finished --------------------------
                                               
Writing NGWFs to file "complex_19861.vacuum_tightbox_ngwfs"....  done

>>> Optimising kernel for current NGWFs:
   Initial electron number for spin 1:    7262.73926215
     Final electron number for spin 1:    7228.00000000

=================== Penalty functional idempotency correction ==================
 RMS occupancy error at iteration   1:  0.004296 (step -0.4859 Ne1=   7228.0000)
 RMS occupancy error at iteration   2:  0.000070 (step -0.5002 Ne1=   7228.0000)
            Final RMS occupancy error   :  0.000000 (Ne1=   7228.0000)
               Final occupancy bounds   : [  0.0000,  1.0000]
================================================================================

................................................................................
<<<<<<<<<<<<<< LNV (Original version) density kernel optimisation >>>>>>>>>>>>>>
~~~~~~~~~~~~~~~~~~~~~~~~~~~~~~~~~~~~~~~~~~~~~~~~~~~~~~~~~~~~~~~~~~~~~~~~~~~~~~~~
   iter  |      energy (Eh)       | rms gradient |  commutator  |   dE (Eh)
MG BCs: +ve charge blocks (gridpoints):     24778 (   16940236).
MG BCs: -ve charge blocks (gridpoints):      8404 (    1079050).
MG BCs:     Elided blocks (gridpoints):    179510 (  181158595).
MG BCs: Computational effort saved:  99.9833%.
MG BCs: Charge after coarse-graining:           -9.0006670.
MG DL_MG: Calling solver with defect correction order = 8
MG DL_MG: Solver finished
MG Hartree energy from (\int phi*rho dr):              1251.937987
MG Hartree energy from (\int eps (grad phi)^2 dr):     1251.291959
MG Discrepancy due to finite box and discretization:     -0.646029 (  -0.05160%)
MG Correction to account for finite box:                  0.463161
MG Remaining discrepancy, due to discretization:         -0.182868 (  -0.01461%)
      ideal mu1:      -0.710153765121
             Q0:  -11686.627285286319
             G0:      -9.733843559226
   RMS gradient:       0.000476977653
MG BCs: +ve charge blocks (gridpoints):     24821 (   16953907).
MG BCs: -ve charge blocks (gridpoints):      8401 (    1075904).
MG BCs:     Elided blocks (gridpoints):    179467 (  181148070).
MG BCs: Computational effort saved:  99.9833%.
MG BCs: Charge after coarse-graining:           -9.0006631.
MG DL_MG: Calling solver with defect correction order = 8
MG DL_MG: Solver finished
MG Hartree energy from (\int phi*rho dr):              1266.602261
MG Hartree energy from (\int eps (grad phi)^2 dr):     1265.951392
MG Discrepancy due to finite box and discretization:     -0.650869 (  -0.05139%)
MG Correction to account for finite box:                  0.462273
MG Remaining discrepancy, due to discretization:         -0.188596 (  -0.01489%)
     Trial step:       0.689726212613
             Q1:  -11686.343717106385
 Quadratic coef:       6.997255232207
 Linear coef   :      -6.713687052274
           Qmin:  -11688.237687949222
Quadratic minimum step length (  0.330887311493) accepted
    Initial Ne1:    7227.99960002
      Final Ne1:    7228.00000000

=================== Penalty functional idempotency correction ==================
 RMS occupancy error at iteration   1:  0.000352 (step -0.4986 Ne1=   7228.0000)
 RMS occupancy error at iteration   2:  0.000000 (step -0.5000 Ne1=   7228.0000)
            Final RMS occupancy error   :  0.000000 (Ne1=   7228.0000)
               Final occupancy bounds   : [  0.0000,  1.0000]
================================================================================

    1        -1.168662728529E+04     4.7698E-04     4.3164E-04
MG BCs: +ve charge blocks (gridpoints):     24794 (   16946808).
MG BCs: -ve charge blocks (gridpoints):      8404 (    1077668).
MG BCs:     Elided blocks (gridpoints):    179494 (  181153405).
MG BCs: Computational effort saved:  99.9833%.
MG BCs: Charge after coarse-graining:           -9.0006650.
MG DL_MG: Calling solver with defect correction order = 8
MG DL_MG: Solver finished
MG Hartree energy from (\int phi*rho dr):              1258.105453
MG Hartree energy from (\int eps (grad phi)^2 dr):     1257.457201
MG Discrepancy due to finite box and discretization:     -0.648252 (  -0.05153%)
MG Correction to account for finite box:                  0.462703
MG Remaining discrepancy, due to discretization:         -0.185549 (  -0.01475%)
      ideal mu1:      -0.716881260712
             Q0:  -11688.215081664152
             G0:      -1.064492067293
   RMS gradient:       0.000158290516
MG BCs: +ve charge blocks (gridpoints):     24799 (   16946292).
MG BCs: -ve charge blocks (gridpoints):      8404 (    1078546).
MG BCs:     Elided blocks (gridpoints):    179489 (  181153043).
MG BCs: Computational effort saved:  99.9833%.
MG BCs: Charge after coarse-graining:           -9.0006650.
MG DL_MG: Calling solver with defect correction order = 8
MG DL_MG: Solver finished
MG Hartree energy from (\int phi*rho dr):              1259.047895
MG Hartree energy from (\int eps (grad phi)^2 dr):     1258.399266
MG Discrepancy due to finite box and discretization:     -0.648629 (  -0.05152%)
MG Correction to account for finite box:                  0.462652
MG Remaining discrepancy, due to discretization:         -0.185977 (  -0.01477%)
     Trial step:       0.477725498752
             Q1:  -11688.447463736054
 Quadratic coef:       0.276152931863
 Linear coef   :      -0.508535003765
           Qmin:  -11688.449198180957
Quadratic minimum step length (  0.439865216472) accepted
    Initial Ne1:    7227.99994143
      Final Ne1:    7228.00000000

=================== Penalty functional idempotency correction ==================
 RMS occupancy error at iteration   1:  0.000172 (step -0.4985 Ne1=   7228.0000)
 RMS occupancy error at iteration   2:  0.000001 (step -0.5000 Ne1=   7228.0000)
            Final RMS occupancy error   :  0.000000 (Ne1=   7228.0000)
               Final occupancy bounds   : [  0.0000,  1.0000]
================================================================================

    2        -1.168821508166E+04     1.5829E-04     1.4325E-04    -1.5878E+00
MG BCs: +ve charge blocks (gridpoints):     24799 (   16946298).
MG BCs: -ve charge blocks (gridpoints):      8403 (    1078488).
MG BCs:     Elided blocks (gridpoints):    179489 (  181153095).
MG BCs: Computational effort saved:  99.9833%.
MG BCs: Charge after coarse-graining:           -9.0006650.
MG DL_MG: Calling solver with defect correction order = 8
MG DL_MG: Solver finished
MG Hartree energy from (\int phi*rho dr):              1258.973230
MG Hartree energy from (\int eps (grad phi)^2 dr):     1258.324632
MG Discrepancy due to finite box and discretization:     -0.648598 (  -0.05152%)
MG Correction to account for finite box:                  0.462656
MG Remaining discrepancy, due to discretization:         -0.185942 (  -0.01477%)
      ideal mu1:      -0.717528566937
             Q0:  -11688.449709534878
             G0:      -0.185038404278
   RMS gradient:       0.000065694052
MG BCs: +ve charge blocks (gridpoints):     24798 (   16945430).
MG BCs: -ve charge blocks (gridpoints):      8409 (    1078962).
MG BCs:     Elided blocks (gridpoints):    179490 (  181153489).
MG BCs: Computational effort saved:  99.9833%.
MG BCs: Charge after coarse-graining:           -9.0006650.
MG DL_MG: Calling solver with defect correction order = 8
MG DL_MG: Solver finished
MG Hartree energy from (\int phi*rho dr):              1258.371616
MG Hartree energy from (\int eps (grad phi)^2 dr):     1257.723075
MG Discrepancy due to finite box and discretization:     -0.648541 (  -0.05154%)
MG Correction to account for finite box:                  0.462621
MG Remaining discrepancy, due to discretization:         -0.185920 (  -0.01477%)
     Trial step:       0.458404657397
             Q1:  -11688.507948192651
 Quadratic coef:       0.026583808545
 Linear coef   :      -0.084822466318
           Qmin:  -11688.517371498927
Quadratic minimum step length (  0.731328875358) accepted
    Initial Ne1:    7227.99998320
      Final Ne1:    7228.00000000

=================== Penalty functional idempotency correction ==================
 RMS occupancy error at iteration   1:  0.000211 (step -0.4882 Ne1=   7228.0000)
 RMS occupancy error at iteration   2:  0.000002 (step -0.5000 Ne1=   7228.0000)
            Final RMS occupancy error   :  0.000000 (Ne1=   7228.0000)
               Final occupancy bounds   : [  0.0000,  1.0000]
================================================================================

    3        -1.168844970953E+04     6.5694E-05     5.9450E-05    -2.3463E-01
MG BCs: +ve charge blocks (gridpoints):     24797 (   16944938).
MG BCs: -ve charge blocks (gridpoints):      8411 (    1079216).
MG BCs:     Elided blocks (gridpoints):    179491 (  181153727).
MG BCs: Computational effort saved:  99.9833%.
MG BCs: Charge after coarse-graining:           -9.0006651.
MG DL_MG: Calling solver with defect correction order = 8
MG DL_MG: Solver finished
MG Hartree energy from (\int phi*rho dr):              1258.013704
MG Hartree energy from (\int eps (grad phi)^2 dr):     1257.365194
MG Discrepancy due to finite box and discretization:     -0.648509 (  -0.05155%)
MG Correction to account for finite box:                  0.462601
MG Remaining discrepancy, due to discretization:         -0.185908 (  -0.01478%)
      ideal mu1:      -0.716258223911
             Q0:  -11688.517372245784
             G0:      -0.074629426774
   RMS gradient:       0.000041755345
MG BCs: +ve charge blocks (gridpoints):     24797 (   16945008).
MG BCs: -ve charge blocks (gridpoints):      8410 (    1079182).
MG BCs:     Elided blocks (gridpoints):    179491 (  181153691).
MG BCs: Computational effort saved:  99.9833%.
MG BCs: Charge after coarse-graining:           -9.0006650.
MG DL_MG: Calling solver with defect correction order = 8
MG DL_MG: Solver finished
MG Hartree energy from (\int phi*rho dr):              1258.055717
MG Hartree energy from (\int eps (grad phi)^2 dr):     1257.407330
MG Discrepancy due to finite box and discretization:     -0.648387 (  -0.05154%)
MG Correction to account for finite box:                  0.462616
MG Remaining discrepancy, due to discretization:         -0.185771 (  -0.01477%)
     Trial step:       0.579003076462
             Q1:  -11688.543627351173
 Quadratic coef:       0.016955562307
 Linear coef   :      -0.043210667697
           Qmin:  -11688.544902471102
Quadratic minimum step length (  0.737784718654) accepted
    Initial Ne1:    7227.99999244
      Final Ne1:    7228.00000000

=================== Penalty functional idempotency correction ==================
 RMS occupancy error at iteration   1:  0.000315 (step -0.4796 Ne1=   7228.0000)
 RMS occupancy error at iteration   2:  0.000004 (step -0.5000 Ne1=   7228.0000)
            Final RMS occupancy error   :  0.000000 (Ne1=   7228.0000)
               Final occupancy bounds   : [  0.0000,  1.0000]
================================================================================

    4        -1.168851737225E+04     4.1755E-05     3.7787E-05    -6.7663E-02
MG BCs: +ve charge blocks (gridpoints):     24798 (   16944991).
MG BCs: -ve charge blocks (gridpoints):      8410 (    1079180).
MG BCs:     Elided blocks (gridpoints):    179490 (  181153710).
MG BCs: Computational effort saved:  99.9833%.
MG BCs: Charge after coarse-graining:           -9.0006650.
MG DL_MG: Calling solver with defect correction order = 8
MG DL_MG: Solver finished
MG Hartree energy from (\int phi*rho dr):              1258.068493
MG Hartree energy from (\int eps (grad phi)^2 dr):     1257.420140
MG Discrepancy due to finite box and discretization:     -0.648354 (  -0.05154%)
MG Correction to account for finite box:                  0.462620
MG Remaining discrepancy, due to discretization:         -0.185733 (  -0.01476%)
      ideal mu1:      -0.716563123569
             Q0:  -11688.544909552438
             G0:      -0.064357336233
   RMS gradient:       0.000038728037
MG BCs: +ve charge blocks (gridpoints):     24797 (   16946535).
MG BCs: -ve charge blocks (gridpoints):      8404 (    1078562).
MG BCs:     Elided blocks (gridpoints):    179491 (  181152784).
MG BCs: Computational effort saved:  99.9833%.
MG BCs: Charge after coarse-graining:           -9.0006648.
MG DL_MG: Calling solver with defect correction order = 8
MG DL_MG: Solver finished
MG Hartree energy from (\int phi*rho dr):              1258.968273
MG Hartree energy from (\int eps (grad phi)^2 dr):     1258.320050
MG Discrepancy due to finite box and discretization:     -0.648223 (  -0.05149%)
MG Correction to account for finite box:                  0.462566
MG Remaining discrepancy, due to discretization:         -0.185657 (  -0.01475%)
     Trial step:       0.653589796331
             Q1:  -11688.569298455375
 Quadratic coef:       0.017674395343
 Linear coef   :      -0.042063298281
           Qmin:  -11688.569936166190
Quadratic minimum step length (  0.777739266948) accepted
    Initial Ne1:    7227.99999123
      Final Ne1:    7228.00000000

=================== Penalty functional idempotency correction ==================
 RMS occupancy error at iteration   1:  0.000765 (step -0.4544 Ne1=   7228.0000)
 RMS occupancy error at iteration   2:  0.000017 (step -0.4995 Ne1=   7228.0000)
            Final RMS occupancy error   :  0.000000 (Ne1=   7228.0000)
               Final occupancy bounds   : [  0.0000,  1.0000]
================================================================================

    5        -1.168854490955E+04     3.8728E-05     3.5047E-05    -2.7537E-02
MG BCs: +ve charge blocks (gridpoints):     24796 (   16946822).
MG BCs: -ve charge blocks (gridpoints):      8403 (    1078457).
MG BCs:     Elided blocks (gridpoints):    179492 (  181152602).
MG BCs: Computational effort saved:  99.9833%.
MG BCs: Charge after coarse-graining:           -9.0006647.
MG DL_MG: Calling solver with defect correction order = 8
MG DL_MG: Solver finished
MG Hartree energy from (\int phi*rho dr):              1259.140252
MG Hartree energy from (\int eps (grad phi)^2 dr):     1258.492052
MG Discrepancy due to finite box and discretization:     -0.648200 (  -0.05148%)
MG Correction to account for finite box:                  0.462556
MG Remaining discrepancy, due to discretization:         -0.185643 (  -0.01474%)
      ideal mu1:      -0.717996377888
             Q0:  -11688.570129198604
             G0:      -0.050919325129
   RMS gradient:       0.000034122492
MG BCs: +ve charge blocks (gridpoints):     24799 (   16946714).
MG BCs: -ve charge blocks (gridpoints):      8403 (    1078575).
MG BCs:     Elided blocks (gridpoints):    179489 (  181152592).
MG BCs: Computational effort saved:  99.9833%.
MG BCs: Charge after coarse-graining:           -9.0006648.
MG DL_MG: Calling solver with defect correction order = 8
MG DL_MG: Solver finished
MG Hartree energy from (\int phi*rho dr):              1258.895020
MG Hartree energy from (\int eps (grad phi)^2 dr):     1258.246928
MG Discrepancy due to finite box and discretization:     -0.648092 (  -0.05148%)
MG Correction to account for finite box:                  0.462433
MG Remaining discrepancy, due to discretization:         -0.185658 (  -0.01475%)
     Trial step:       0.712967354851
             Q1:  -11688.594371135463
 Quadratic coef:       0.012061879690
 Linear coef   :      -0.036303816548
           Qmin:  -11688.597445983587
Quadratic minimum step length (  1.072943716921) accepted
    Initial Ne1:    7228.00017984
      Final Ne1:    7228.00000000

=================== Penalty functional idempotency correction ==================
 RMS occupancy error at iteration   1:  0.001841 (step -0.4042 Ne1=   7228.0000)
 RMS occupancy error at iteration   2:  0.000076 (step -0.4975 Ne1=   7228.0000)
 RMS occupancy error at iteration   3:  0.000001 (step -0.5000 Ne1=   7228.0000)
            Final RMS occupancy error   :  0.000000 (Ne1=   7228.0000)
               Final occupancy bounds   : [  0.0000,  1.0000]
================================================================================

    6        -1.168857012920E+04     3.4122E-05     3.0879E-05    -2.5220E-02
MG BCs: +ve charge blocks (gridpoints):     24799 (   16946658).
MG BCs: -ve charge blocks (gridpoints):      8401 (    1078647).
MG BCs:     Elided blocks (gridpoints):    179489 (  181152576).
MG BCs: Computational effort saved:  99.9833%.
MG BCs: Charge after coarse-graining:           -9.0006648.
MG DL_MG: Calling solver with defect correction order = 8
MG DL_MG: Solver finished
MG Hartree energy from (\int phi*rho dr):              1258.772986
MG Hartree energy from (\int eps (grad phi)^2 dr):     1258.124934
MG Discrepancy due to finite box and discretization:     -0.648052 (  -0.05148%)
MG Correction to account for finite box:                  0.462386
MG Remaining discrepancy, due to discretization:         -0.185666 (  -0.01475%)
      ideal mu1:      -0.718466195972
             Q0:  -11688.597934888210
             G0:      -0.061197984601
   RMS gradient:       0.000037820251
MG BCs: +ve charge blocks (gridpoints):     24797 (   16945258).
MG BCs: -ve charge blocks (gridpoints):      8406 (    1079014).
MG BCs:     Elided blocks (gridpoints):    179491 (  181153609).
MG BCs: Computational effort saved:  99.9833%.
MG BCs: Charge after coarse-graining:           -9.0006650.
MG DL_MG: Calling solver with defect correction order = 8
MG DL_MG: Solver finished
MG Hartree energy from (\int phi*rho dr):              1258.142125
MG Hartree energy from (\int eps (grad phi)^2 dr):     1257.494115
MG Discrepancy due to finite box and discretization:     -0.648011 (  -0.05151%)
MG Correction to account for finite box:                  0.462306
MG Remaining discrepancy, due to discretization:         -0.185704 (  -0.01476%)
     Trial step:       0.874627831570
             Q1:  -11688.615267550922
 Quadratic coef:       0.036192797856
 Linear coef   :      -0.053525460568
           Qmin:  -11688.617724563910
Quadratic minimum step length (  0.646742726233) accepted
    Initial Ne1:    7227.99999999
      Final Ne1:    7228.00000000

=================== Penalty functional idempotency correction ==================
 RMS occupancy error at iteration   1:  0.000057 (step -0.4953 Ne1=   7228.0000)
            Final RMS occupancy error   :  0.000000 (Ne1=   7228.0000)
               Final occupancy bounds   : [ -0.0000,  1.0000]
================================================================================

    7        -1.168859793489E+04     3.7820E-05     3.4226E-05    -2.7806E-02
MG BCs: +ve charge blocks (gridpoints):     24797 (   16945640).
MG BCs: -ve charge blocks (gridpoints):      8406 (    1078917).
MG BCs:     Elided blocks (gridpoints):    179491 (  181153324).
MG BCs: Computational effort saved:  99.9833%.
MG BCs: Charge after coarse-graining:           -9.0006649.
MG DL_MG: Calling solver with defect correction order = 8
MG DL_MG: Solver finished
MG Hartree energy from (\int phi*rho dr):              1258.304742
MG Hartree energy from (\int eps (grad phi)^2 dr):     1257.656717
MG Discrepancy due to finite box and discretization:     -0.648024 (  -0.05150%)
MG Correction to account for finite box:                  0.462330
MG Remaining discrepancy, due to discretization:         -0.185694 (  -0.01476%)
      ideal mu1:      -0.718059250289
             Q0:  -11688.617741123657
             G0:      -0.063389946980
   RMS gradient:       0.000038483710
MG BCs: +ve charge blocks (gridpoints):     24797 (   16945275).
MG BCs: -ve charge blocks (gridpoints):      8408 (    1078993).
MG BCs:     Elided blocks (gridpoints):    179491 (  181153613).
MG BCs: Computational effort saved:  99.9833%.
MG BCs: Charge after coarse-graining:           -9.0006650.
MG DL_MG: Calling solver with defect correction order = 8
MG DL_MG: Solver finished
MG Hartree energy from (\int phi*rho dr):              1258.043892
[...]
MG Discrepancy due to finite box and discretization:     -0.191380 (  -0.01574%)
MG Correction to account for finite box:                  0.006230
MG Remaining discrepancy, due to discretization:         -0.185150 (  -0.01523%)
     Trial step:       0.695759056437
             Q1:  -11723.591904248227
 Quadratic coef:       0.000000001190
 Linear coef   :      -0.000000005497
           Qmin:  -11723.591904250270
Quadratic minimum step length (  1.607462449675) accepted
    Initial Ne1:    7228.00000000
      Final Ne1:    7228.00000000

=================== Penalty functional idempotency correction ==================
 RMS occupancy error at iteration   1:  0.000000 (step -0.5000 Ne1=   7228.0000)
            Final RMS occupancy error   :  0.000000 (Ne1=   7228.0000)
               Final occupancy bounds   : [ -0.0000,  1.0000]
================================================================================

    7        -1.172359190424E+04     1.3589E-08     1.2297E-08    -4.8894E-09

Reusing previously generated solute cavity.
MG BCs: +ve charge blocks (gridpoints):     29044 (   19160444).
MG BCs: -ve charge blocks (gridpoints):      8381 (    1047287).
MG BCs:     Elided blocks (gridpoints):    175244 (  178970150).
MG BCs: Computational effort saved:  99.9812%.
MG BCs: Charge after coarse-graining:           -9.0009511.
MG DL_MG: Calling solver with defect correction order = 8
MG DL_MG: Solver finished
MG Hartree energy from (\int phi*rho dr):              1215.866842
MG Hartree energy from (\int eps (grad phi)^2 dr):     1215.675461
MG Discrepancy due to finite box and discretization:     -0.191380 (  -0.01574%)
MG Correction to account for finite box:                  0.006230
MG Remaining discrepancy, due to discretization:         -0.185150 (  -0.01523%)
      ideal mu1:      -0.481127920716
             Q0:  -11723.591904242639
WARNING in lnv_denskernel_optimise_cg: 
  conjugate gradient coefficient ( 0.874E+01) too large - resetting
             G0:      -0.000000069031
   RMS gradient:       0.000000040168

Reusing previously generated solute cavity.
MG BCs: +ve charge blocks (gridpoints):     29044 (   19160444).
MG BCs: -ve charge blocks (gridpoints):      8381 (    1047286).
MG BCs:     Elided blocks (gridpoints):    175244 (  178970151).
MG BCs: Computational effort saved:  99.9812%.
MG BCs: Charge after coarse-graining:           -9.0009511.
MG DL_MG: Calling solver with defect correction order = 8
MG DL_MG: Solver finished
MG Hartree energy from (\int phi*rho dr):              1215.866354
MG Hartree energy from (\int eps (grad phi)^2 dr):     1215.674974
MG Discrepancy due to finite box and discretization:     -0.191380 (  -0.01574%)
MG Correction to account for finite box:                  0.006230
MG Remaining discrepancy, due to discretization:         -0.185150 (  -0.01523%)
     Trial step:       1.057547425530
             Q1:  -11723.591904183151
 Quadratic coef:       0.000000132492
 Linear coef   :      -0.000000073004
           Qmin:  -11723.591904252697
Quadratic minimum step length (  0.291357503254) accepted
    Initial Ne1:    7228.00000000
      Final Ne1:    7228.00000000

=================== Penalty functional idempotency correction ==================
 RMS occupancy error at iteration   1:  0.000000 (step -0.5000 Ne1=   7228.0000)
            Final RMS occupancy error   :  0.000000 (Ne1=   7228.0000)
               Final occupancy bounds   : [  0.0000,  1.0000]
================================================================================

    8        -1.172359190424E+04     4.0168E-08     3.6350E-08     1.2806E-09

Reusing previously generated solute cavity.
MG BCs: +ve charge blocks (gridpoints):     29044 (   19160444).
MG BCs: -ve charge blocks (gridpoints):      8381 (    1047286).
MG BCs:     Elided blocks (gridpoints):    175244 (  178970151).
MG BCs: Computational effort saved:  99.9812%.
MG BCs: Charge after coarse-graining:           -9.0009511.
MG DL_MG: Calling solver with defect correction order = 8
MG DL_MG: Solver finished
MG Hartree energy from (\int phi*rho dr):              1215.866707
MG Hartree energy from (\int eps (grad phi)^2 dr):     1215.675327
MG Discrepancy due to finite box and discretization:     -0.191380 (  -0.01574%)
MG Correction to account for finite box:                  0.006230
MG Remaining discrepancy, due to discretization:         -0.185150 (  -0.01523%)
      ideal mu1:      -0.481127737500
             Q0:  -11723.591904249741
             G0:      -0.000000003174
   RMS gradient:       0.000000008167

Reusing previously generated solute cavity.
MG BCs: +ve charge blocks (gridpoints):     29044 (   19160444).
MG BCs: -ve charge blocks (gridpoints):      8381 (    1047286).
MG BCs:     Elided blocks (gridpoints):    175244 (  178970151).
MG BCs: Computational effort saved:  99.9812%.
MG BCs: Charge after coarse-graining:           -9.0009511.
MG DL_MG: Calling solver with defect correction order = 8
MG DL_MG: Solver finished
MG Hartree energy from (\int phi*rho dr):              1215.866635
MG Hartree energy from (\int eps (grad phi)^2 dr):     1215.675255
MG Discrepancy due to finite box and discretization:     -0.191380 (  -0.01574%)
MG Correction to account for finite box:                  0.006230
MG Remaining discrepancy, due to discretization:         -0.185150 (  -0.01523%)
     Trial step:       0.555089522036
             Q1:  -11723.591904249974
 Quadratic coef:       0.000000001530
 Linear coef   :      -0.000000001762
           Qmin:  -11723.591904250248
Quadratic minimum step length (  0.319625793494) accepted
    Initial Ne1:    7228.00000000
      Final Ne1:    7228.00000000

=================== Penalty functional idempotency correction ==================
 RMS occupancy error at iteration   1:  0.000000 (step -0.5000 Ne1=   7228.0000)
            Final RMS occupancy error   :  0.000000 (Ne1=   7228.0000)
               Final occupancy bounds   : [  0.0000,  1.0000]
================================================================================

    9        -1.172359190425E+04     8.1670E-09     7.3908E-09    -7.1013E-09

Reusing previously generated solute cavity.
MG BCs: +ve charge blocks (gridpoints):     29044 (   19160444).
MG BCs: -ve charge blocks (gridpoints):      8381 (    1047286).
MG BCs:     Elided blocks (gridpoints):    175244 (  178970151).
MG BCs: Computational effort saved:  99.9812%.
MG BCs: Charge after coarse-graining:           -9.0009511.
MG DL_MG: Calling solver with defect correction order = 8
MG DL_MG: Solver finished
MG Hartree energy from (\int phi*rho dr):              1215.866666
MG Hartree energy from (\int eps (grad phi)^2 dr):     1215.675285
MG Discrepancy due to finite box and discretization:     -0.191380 (  -0.01574%)
MG Correction to account for finite box:                  0.006230
MG Remaining discrepancy, due to discretization:         -0.185150 (  -0.01523%)
      ideal mu1:      -0.481127711535
   10        -1.172359190425E+04     5.1631E-09     4.6724E-09    -3.4925E-10
Finished density kernel iterations (  10)


>>> Density kernel optimised for the current NGWF basis:
     ~~~~~~~~~~~~~~~~~~~~~~~~~~~~~~~~~~~~~~~~~~~~~~~~~~~~~~~~~~~
     Total energy                =  -1.17235919042501E+04  Eh
     Estimated bandgap           =   8.0894E-02  Eh
     RMS occupancy error         =   3.8788E-16
     [H,K] commutator            =   4.6724E-09
     Occupancy bounds            = [  0.000:  1.000]
     ~~~~~~~~~~~~~~~~~~~~~~~~~~~~~~~~~~~~~~~~~~~~~~~~~~~~~~~~~~~




################################################################################
########################### NGWF CG iteration  004 #############################
################################################################################
****** Reciprocal space K.E. preconditioning with k_zero =  3.5000 a0^-1 *******

>>> Checking for convergence of NGWFs: 
           ........................................................
           |         *** NGWF optimisation converged ***          |
           | RMS NGWF gradient =    0.00000193367454              |
           | Criteria satisfied:                                  |
           | -> RMS NGWF gradient lower than set threshold.       |
           ========================================================

Reusing previously generated solute cavity.
MG BCs: +ve charge blocks (gridpoints):     29044 (   19160444).
MG BCs: -ve charge blocks (gridpoints):      8381 (    1047286).
MG BCs:     Elided blocks (gridpoints):    175244 (  178970151).
MG BCs: Computational effort saved:  99.9812%.
MG BCs: Charge after coarse-graining:           -9.0009511.
MG DL_MG: Calling solver with defect correction order = 8
MG DL_MG: Solver finished
MG Hartree energy from (\int phi*rho dr):              1215.866666
MG Hartree energy from (\int eps (grad phi)^2 dr):     1215.675285
MG Discrepancy due to finite box and discretization:     -0.191380 (  -0.01574%)
MG Correction to account for finite box:                  0.006230
MG Remaining discrepancy, due to discretization:         -0.185150 (  -0.01523%)

================================================================================
           ---------------- ENERGY COMPONENTS (Eh) ----------------
           | Kinetic                    :     8564.04222377779661 |
           | Pseudo. (local,OBC,corr'd) :    -5067.37594849679226 |
           | Pseudopotential (non-local):     1408.23242673736286 |
           | Hartree (molecular)        :     1215.86666567076895 |
           | Exchange-correlation       :    -3373.08145602747391 |
           | Ion-ion (open BC)          :   828761.23141004436184 |
           | Dispersion Correction      :       -3.28244291917141 |
           | Smeared ion non-self corr. :  -828712.87384861416649 |
           | Smeared ion self corr.     :   -14517.01090595763344 |
           | Solvent cavitation energy  :        2.34802645143040 |
           | Solute-solvent dis-rep en. :       -1.68805491659460 |
           | Total                      :   -11723.59190425007000 |
           --------------------------------------------------------
           ------ LOCAL ENERGY COMPONENTS FROM MATRIX TRACES ------
           | Pseudopotential (local)    :    -5067.37594849679772 |
           | Hartree                    :    -2000.53827005365793 |
           --------------------------------------------------------
           Integrated density           :     7227.99999999900774
           Integrated density tr(KS)    :     7228.00000000000091
================================================================================


                        <<<<< CALCULATION SUMMARY >>>>>                         
|ITER|    RMS GRADIENT   |     TOTAL ENERGY    |   step   |     Epredicted              
   0     0.00004269451778 -11723.51817002124153   0.643651 -11723.58197538980858        
   1     0.00000915304584 -11723.59150103875436   0.072238 -11723.59183016180214        
   2     0.00000417654768 -11723.59188885637559   0.014218 -11723.59190234400376        
   3     0.00000193367454 -11723.59190425009001  <-- CG                                 

=================== Finished the calculation in solvent ========================
= Adjusting the following parameters: 
= read_denskern: F
= read_tightbox_ngwfs: F
= maxit_pen: 0 (restored to user-specified value)
= restart read filename prefix: ""
= restart write filename prefix: ""
================================================================================

================================================================================
IS: Calculation in solvent completed (NGWFs converged).      

Individual components of total energy in solvent:     hartree           kcal/mol
- Usual non-electrostatic DFT terms:    -12940.11854145569487    -8120046.804098
- Electrostatic fixed charge energy:      1215.86666567076895      762967.835353
- Apolar cavitation energy:                  2.34802645143040        1473.408812
- Apolar dispersion-repulsion energy:       -1.68805491659460       -1059.270430
 -------------------------------------------------------------------------------
- Total energy in solvent:              -11723.59190425009001    -7356664.830363

Components of total energy in solvent:                hartree           kcal/mol
- Usual non-electrostatic DFT terms:    -12940.11854145569487    -8120046.804098
- Electrostatic energy:                   1215.86666567076895      762967.835353
- Apolar energy terms:                       0.65997153483580         414.138382
 -------------------------------------------------------------------------------
- Total energy in solvent:              -11723.59190425009001    -7356664.830363

Calculation of free energy of solvation:              hartree           kcal/mol
- Total energy in solvent:         (+)  -11723.59190425009001    -7356664.830363
- Total energy in vacuum:          (-)  -11719.53729493520223    -7354120.524659
 -------------------------------------------------------------------------------
- Total free energy of solvation:           -4.05460931488778       -2544.305704

Components of polar term in f.e. of solvation:        hartree           kcal/mol
- Electrostatic:                            -4.70295130331351       -2951.146435
- Change in nonelectrostatic DFT terms:     -0.01162954641040          -7.297650
 -------------------------------------------------------------------------------
- Polar term in f.e. of solvation:          -4.71458084972392       -2958.444085

Components of free energy of solvation:               hartree           kcal/mol
- Polar term in f.e. of solvation: (+)      -4.71458084972392       -2958.444085
- Apolar (cavitation, dis., rep.): (+)       0.65997153483580         414.138382
 -------------------------------------------------------------------------------
- Total free energy of solvation:           -4.05460931488812       -2544.305704
================================================================================


------------------------------ TIMING INFORMATION ------------------------------
AVERAGE TIME:   29303.849s on     60 node(s)                                    
TOTAL TIME:     29303.863s on     60 node(s)                                    
================= AVERAGE TIMINGS FROM ALL NODES (CUMULATIVE) ==================
|| TAG                                    #calls    cpu time   %total  Gflops ||
|| sparse_set_to_garbage                :   164        0.03s   0.000%  ------ ||
|| parallel_prepare_fd_halos_request    :  1821        0.03s   0.000%  ------ ||
|| work_imbalance                       :     1        0.07s   0.000%  ------ ||
|| ngwfs_initialise_from_radial         :     1        0.10s   0.000%  ------ ||
|| basis_extract_function_from_box      :  3379        0.15s   0.001%  ------ ||
|| parallel_prepare_fd_halos_satisfy    :  1821        0.61s   0.002%  ------ ||
|| parallel_prepare_fd_halos_alloc      :  1821        1.47s   0.005%  ------ ||
|| pseudopotentials_nonlocal_mat        :    28        1.80s   0.006%  ------ ||
|| restart_kernel_read                  :     1        4.36s   0.015%  ------ ||
|| openbc_locps_radial                  :     1        4.71s   0.016%  ------ ||
|| density_init_guess_real              :     1        4.90s   0.017%  ------ ||
|| restart_ngwfs_tightbox_input         :     1        7.93s   0.027%  ------ ||
|| parallel_prepare_fd_halos_comms_imbal:  1821        9.01s   0.031%  ------ ||
|| parallel_prepare_fd_halos_clear      :  1821       19.27s   0.066%  ------ ||
|| sparse_init                          :     2       22.22s   0.076%  ------ ||
|| projectors_func_ovlp_box             :    28       24.99s   0.085%  ------ ||
|| parallel_prepare_fd_halos_comms_wait :  1821       26.68s   0.091%  ------ ||
|| function_ops_brappd_ketppd           :    28       26.85s   0.092%  ------ ||
|| projectors_init_fftbox_recip         :   133       29.79s   0.102%  ------ ||
|| palser_mano_kernel_optimise          :     1       38.32s   0.131%  ------ ||
|| basis_copy_function_to_box           : 54399       39.25s   0.134%  ------ ||
|| ngwf_gradient_coeffs                 :    15       45.95s   0.157%  ------ ||
|| fourier_apply_box_pair               :  4810       49.97s   0.171% 557.349 ||
|| pseudo_make_structure_factor         :     2       53.34s   0.182%  ------ ||
|| parallel_prepare_fd_halos            :  1821       57.09s   0.195%  ------ ||
|| sparse_embed_hotelling_invert_embed  :    28       72.92s   0.249%  ------ ||
|| restart_kernel_write                 :    12       74.43s   0.254%  ------ ||
|| finite_difference_derivative         :  1821      135.21s   0.461%  ------ ||
|| projectors_gradient_batch            :   105      141.34s   0.482%  ------ ||
|| integrals_kinetic                    :    28      141.57s   0.483%  ------ ||
|| basis_dot_function_with_box          : 8.390M     166.73s   0.569%  ------ ||
|| fourier_apply_cell_backward          :  1215      172.16s   0.587% 100.110 ||
|| sparse_trace                         :  5277      181.52s   0.619%  ------ ||
|| fourier_apply_cell_forward           :  1213      221.01s   0.754%  77.854 ||
|| kernel_purify                        :   463      276.52s   0.944%  ------ ||
|| openbc_locps_on_grid                 :     2      277.33s   0.946%  ------ ||
|| basis_add_function_to_box            : 17.40M     398.81s   1.361%  ------ ||
|| lnv_gradient_norm                    :   150      406.04s   1.386%  ------ ||
|| xc_energy_potential                  :   303      455.14s   1.553%  ------ ||
|| hamiltonian_energy_components        :     4      489.66s   1.671%  ------ ||
|| kernel_fix                           :   150      540.72s   1.845%  ------ ||
|| restart_ngwfs_tightbox_output        :    10      688.12s   2.348%  ------ ||
|| integrals_locpot_mat_els_batch       :  1113      708.91s   2.419%  ------ ||
|| ngwf_gradient_build_batch            :   105      720.31s   2.458%  ------ ||
|| ngwf_gradient_batch                  :   105     1019.07s   3.478%  ------ ||
|| density_batch_row_sums               :  2114     1037.63s   3.541%  ------ ||
|| ngwf_gradient_lnv                    :    15     1164.89s   3.975%  ------ ||
|| cell_grid_deposit_box_real           : 35084     1276.61s   4.356%  ------ ||
|| cell_grid_extract_box_real           : 38532     1453.56s   4.960%  ------ ||
|| sparse_product                       :  6420     1768.66s   6.036%  ------ ||
|| density_fftbox_deposit_to_cell       : 33220     1850.71s   6.316%  ------ ||
|| density_fftbox_interpolate_multiply  : 33220     3449.89s  11.773%  ------ ||
|| potential_apply_to_ngwf_batch        :  1113     3478.74s  11.871%  ------ ||
|| integrals_locpot_dbl_grid            :   159     4206.19s  14.354%  ------ ||
|| multigrid_prepare_bound_cond         :   303     4267.22s  14.562%  ------ ||
|| fourier_apply_box                    : 114.4k    4273.57s  14.584% 751.853 ||
|| density_batch_interp_deposit         :  2114     6189.99s  21.123%  ------ ||
|| dl_mg_solver_calls                   :   303     7279.62s  24.842%  ------ ||
|| density_on_dbl_grid                  :   302     7586.46s  25.889%  ------ ||
|| multigrid_calculate_hartree          :   303    11735.18s  40.047%  ------ ||
|| hamiltonian_lhxc_calculate           :   298    19691.52s  67.198%  ------ ||
|| lnv_denskernel_optimise_cg           :    15    24744.85s  84.442%  ------ ||
|| ngwf_cg_optimise                     :     2    28323.98s  96.656%  ------ ||
|| total_time                           :     1    29303.85s 100.000%  ------ ||
================================================================================
Overhead of generating timer report: 
- 0 ms averaging over threads,
- 15 ms ensuring consistency across MPI ranks,
- 0 ms printing in order.

Job completed: 26-06-2020 04:24 (+0100)

Application 40917147 resources: utime ~6219436s, stime ~201549s, Rss ~3709968, inblocks ~299683067, outblocks ~48642977
