 +---------------------------------------------------------------+
 |                                                               |
 |        ####### #     # ####### ####### ####### ######         |
 |        #     # ##    # #          #    #       #     #        |
 |        #     # # #   # #          #    #       #     #        |
 |        #     # #  #  # #####      #    #####   ######         |
 |        #     # #   # # #          #    #       #              |
 |        #     # #    ## #          #    #       #              |
 |        ####### #     # #######    #    ####### #              |
 |                                                               |
 |        Linear-Scaling Ab Initio Total Energy Program          |
 |                                                               |
 |          Release for academic collaborators of ODG            |
 |                                             Version 5.3.2.6.  |
 |                                                               |
 +---------------------------------------------------------------+
 |                                                               |
 |  Authors:                                                     |
 |  Jacek Dziedzic, Peter D. Haynes, Nicholas D. M. Hine,        |
 |  Arash. A. Mostofi, Mike C. Payne and Chris-Kriton Skylaris   |
 |                                                               |
 |  Contributors:                                                |
 |  J. Aarons, L. Andrinopoulos, P. W. Avraam, R. A. Bell,       |
 |  A. Bhandari, G. A. Bramley, R. J. Charlton, S. J. Clark,     |
 |  R. J. Clements, G. C. Constantinescu, F. Corsetti,           |
 |  N. Corsini, O. Dieguez, S. M. M. Dubois, K. K. B. Duff,      |
 |  J. M. Escartin, A. Greco, H. Helal, Q. O. Hill, L. P. Lee,   |
 |  J.-H. Li, E. B. Linscott, G. Moynihan, D. D. O`Regan,        |
 |  O. K. Okan, M. J. S. Phipps, C. J. Pickard,                  |
 |  J. C. A. Prentice, M. I. J. Probert, L. E. Ratcliff,         |
 |  M. Robinson, A. Ruiz Serrano, J. S. Spencer, E. W. Tait,     |
 |  G. Teobaldi, D. Turban, V. Vitale, K. A. Wilkinson,          |
 |  C. Weber, J. C. Womack, N. Yeung and T. J. Zuehlsdorff       |
 |                                                               |
 |                                   Copyright (c) 2004-2019     |
 |                                                               |
 |  Please cite:                                                 |
 |  "Introducing ONETEP: Linear-scaling density functional       |
 |   simulations on parallel computers".                         |
 |   C.-K. Skylaris, P. D. Haynes, A. A. Mostofi, M. C. Payne.   |
 |   J. Chem. Phys. 122 084119 (2005).                           |
 |                                                               |
 |          in all publications arising from your use of ONETEP. |
 |                                                               |
 +---------------------------------------------------------------+
 |                                                               |
 |   ONETEP is based on developments described in the following  |
 |   publications:                                               |
 |                                                               |
 |  "Nonorthogonal generalized Wannier function pseudopotential  |
 |   plane-wave method".                                         |
 |   C.-K. Skylaris, A. A. Mostofi, P. D. Haynes, O. Dieguez,    |
 |   M. C. Payne.                                                |
 |   Phys. Rev. B 66 035119 (2002).                              |
 |                                                               |
 |  "Preconditioned iterative minimization for linear-scaling    |
 |   electronic structure calculations".                         |
 |   A. A. Mostofi, P. D. Haynes, C.-K. Skylaris, M. C. Payne.   |
 |   J. Chem. Phys. 119(17), pp.8842-8848 (2003).                |
 |                                                               |
 |  "Total-energy calculations on a real space grid with         |
 |   localized functions and a plane-wave basis".                |
 |   A. A. Mostofi, C.-K. Skylaris, P. D. Haynes, M. C. Payne.   |
 |   Comput. Phys. Commun. 147, pp.788-802 (2002).               |
 |                                                               |
 |  "Accurate kinetic energy evaluation in electronic structure  |
 |   calculations with localized functions on real space grids"  |
 |   C.-K. Skylaris, A. A. Mostofi, P. D. Haynes, C. J. Pickard, |
 |   M. C. Payne.                                                |
 |   Comput. Phys. Commun. 140, pp.315-322 (2001).               |
 |                                                               |
 |  "Accurate ionic forces and geometry optimization in linear-  |
 |   scaling density-functional theory with local orbitals"      |
 |   N. D. M. Hine, M. Robinson, P. D. Haynes, C.-K. Skylaris,   |
 |   M. C. Payne, and A. A. Mostofi.                             |
 |   Phys. Rev. B 83 195102 (2011).                              |
 |                                                               |
 +---------------------------------------------------------------+

Job started: 22-06-2020 20:09 (+0100)
 
Reading parameters from file "complex_9981.dat" ...... done

If your calculation crashes here, before "Checking processes and threads..."
is displayed, then your stack size is insufficient.
If so, use "ulimit -s unlimited" at runtime.
You can disable this check with "check_stack_size F".

Checking processes and threads...
   Determining the default number of threads...
      No default threads set at compilation time: defaulting to 1.
      OpenMP library call suggests 4 threads.
      Hybrid MPI-OpenMP compilation detected.
      Number of MPI processes > 1.
      OMP_NUM_THREADS environment variable present and
      its value matches the one obtained from the OpenMP library call.
      Using this value as default.
      Default threads: 4
      Default applies to threads_max and threads_num_fftboxes.
      Settings in the input file override this default.
   ... done

   Running with 60 MPI processes.
   There are 6 MPI processes running on the same node as the root process.
   Each MPI process is using: 
               1 threads for simulation cell FFTs.
               1 threads for parallel FFT box operations.
               4 threads for loops over batched FFT box operations.
               4 threads in other parallel regions.
... done

Basic input checks...... done

Reading geometry and species blocks from file "complex_9981.dat" ...
  <species_atomic_set> block not found: NGWF initialisation set to SOLVE
IS: Dielectric excluded regions:
    - NONE.
    
  Number of PPD points along a3 set to 1.  This is 
  the default value, it may have been provided also in the input file.
... done
 Writing xyz coordinates to file "complex_9981.xyz" ... done


--------------------------------------------------------------------------------
---------------------------------- INPUT FILE ----------------------------------
--------------------------------------------------------------------------------

cutoff_energy       : 800 eV                                                    
xc_functional PBE                                                               
task SINGLEPOINT                                                                
write_xyz true                                                                  
output_detail VERBOSE                                                           
ngwf_threshold_orig : 0.000002                                                  
kernel_cutoff       : 1000                                                      
k_zero              : 3.5                                                       
elec_cg_max 0                                                                   
occ_mix 1.0                                                                     
dispersion 1                                                                    
maxit_ngwf_cg 40                                                                
minit_lnv 10                                                                    
maxit_lnv 10                                                                    
write_denskern F                                                                
write_tightbox_ngwfs F                                                          
charge 9                                                                        
is_implicit_solvent T                                                           
is_auto_solvation T                                                             
is_include_apolar T                                                             
is_smeared_ion_rep T                                                            
is_solvent_surf_tension 4.7624E-5 Ha/bohr**2                                    
is_apolar_scaling_factor 0.281075                                               
is_solvation_beta 1.3                                                           
is_density_threshold 0.00035                                                    
is_bulk_permittivity 78.54                                                      
is_dielectric_model fix_initial                                                 
is_smeared_ion_width 0.8                                                        
mg_defco_fd_order 8                                                             
is_bc_coarseness 10                                                             
is_bc_surface_coarseness 1                                                      
fine_grid_scale 2.0                                                             
%block species                                                                  
N   N   7 4 8.0                                                                 
H   H   1 1 8.0                                                                 
C   C   6 4 8.0                                                                 
S   S  16 9 8.0                                                                 
O   O   8 4 8.0                                                                 
%endblock species                                                               
%block species_pot                                                              
N   N_00.recpot                                                                 
H   H_04.recpot                                                                 
C   C_01.recpot                                                                 
S   S_00.recpot                                                                 
O   O_02.recpot                                                                 
%endblock species_pot                                                           
%block lattice_cart                                                             
140.777   0.000   0.000                                                         
0.000 144.511   0.000                                                           
0.000   0.000   162.462                                                         
%endblock lattice_cart                                                          
%block positions_abs                                                            
     Hash =   000000908228336696770939
%endblock positions_abs                                                         

--------------------------------------------------------------------------------
-------------------------------- END INPUT FILE --------------------------------
--------------------------------------------------------------------------------


 
 ESDF WARNING(1): "kernelcutoff" (esdf_physical) has no units. Assume "bohr".
 ESDF WARNING(2): "kzero" (esdf_physical) has no units. Assume "1/bohr".
 ESDF WARNING(3
 ): "issmearedionwidth" (esdf_physical) has no units. Assume "bohr".
<<<<<<<<<<<<<<<<<<<<<<<<<<<<<<<<< Full system >>>>>>>>>>>>>>>>>>>>>>>>>>>>>>>>>>
<<<<<<<<<<<<<<<<<<<<<<<<< Pseudopotential information >>>>>>>>>>>>>>>>>>>>>>>>>>
File: N_00.recpot [ 2001 points up to Gmax=  52.9 (1/bohr)]
  Atomic number:  7;  ionic charge:  5.000000
    Shell 1: l = 0; rc = 1.48 bohr
File: H_04.recpot [ 2001 points up to Gmax=  52.9 (1/bohr)]
  Atomic number:  1;  ionic charge:  1.000000
    Local potential
File: C_01.recpot [ 2001 points up to Gmax=  52.9 (1/bohr)]
  Atomic number:  6;  ionic charge:  4.000000
    Shell 1: l = 0; rc = 1.48 bohr
File: S_00.recpot [ 2001 points up to Gmax=  52.9 (1/bohr)]
  Atomic number: 16;  ionic charge:  6.000000
    Shell 1: l = 0; rc = 1.90 bohr
    Shell 2: l = 2; rc = 1.84 bohr
File: O_02.recpot [ 2001 points up to Gmax=  52.9 (1/bohr)]
  Atomic number:  8;  ionic charge:  6.000000
    Shell 1: l = 0; rc = 1.31 bohr
<<<<<<<<<<<<<<<<<<<<<<<<<<<<<<<<<<<<<<<<>>>>>>>>>>>>>>>>>>>>>>>>>>>>>>>>>>>>>>>>

-------------------------- Atom counting information ---------------------------
Symbol    Natoms    Nngwfs    Nprojs
  N        236       944       236
  H       1319      1319         0
  C        817      3268       817
  S          6        54        36
  O        239       956       239
.......   ......    ......    ......
Totals:   2617      6541      1328
--------------------------------------------------------------------------------

=============================== PSINC grid sizes ===============================
                      Simulation cell:  280 x 286 x 320
                              FFT-box:   99 x  99 x  99
                                  PPD:    5 x  11 x   1
Grid space d1=  0.502775000000a0 (KE cutoff=  30.05084Eh = 817.72503eV)
Grid space d2=  0.505283216783a0 (KE cutoff=  29.75324Eh = 809.62684eV)
Grid space d3=  0.507693750000a0 (KE cutoff=  29.47137Eh = 801.95686eV)
================================================================================

********************* Fourier parallelisation information **********************
       Coarse grid (whole simulation cell) dimensions:    280   286   320
          Real-space ('12') slabs/node (min max mean):      5     6     5
         Recip-space ('23') slabs/node (min max mean):      2     3     2
********************************************************************************

********************* Fourier parallelisation information **********************
       Double grid (whole simulation cell) dimensions:    560   572   640
          Real-space ('12') slabs/node (min max mean):     10    11    10
         Recip-space ('23') slabs/node (min max mean):      4     5     4
********************************************************************************
ONETEP fine grid is 560 x 572 x 640 gridpoints, 140.7770 x 144.5110 x 162.4620 bohr.
FD multigrid is     553 x 569 x 633 gridpoints, 139.0173 x 143.7531 x 160.6851 bohr.


Calculating local pseudopotential in open BC on a radial grid ...
Discrepancy between calculated realspace psloc and -Z/x on [5a0,259.028a0]:
max |rel. diff| # avg |rel. diff| #  avg rel. diff #  f # pseudopotential file
 0.000261578119    0.000004844123   0.000000072210   55  'N_00.recpot'
 0.000419583258    0.000017514079  -0.000000069370   55  'H_04.recpot'
 0.000363553651    0.000016734795   0.000000141192   55  'C_01.recpot'
 0.000449990737    0.000019382085   0.000000449342   55  'S_00.recpot'
 0.000706973137    0.000028359832   0.000000146371   55  'O_02.recpot'
... done

Atom SCF Calculation for N  : Z (AE atom) =   7 : Z (PS atom) =   5
Config String:
Orbitals (num,occ):  2     2.00 3.00
Orbitals   (num,l):  2        0    1
Real-space Grid (nr,dr,rmax): 1203    0.0066555740    8.0000000000
Spherical Bessel Basis (nsws,lmax,cutoff):   47    1  176.3951722778
Confining potential (l,width,scale):  0    3.0000000000  100.0000000000
Confining potential (l,width,scale):  1    3.0000000000  100.0000000000
  1         -4.7312375307   -3.4155304497    7.0523828109   -1.9351020946
  2         -9.7309464766   -2.0532547791    8.2966052865   -2.2494486027
  3         -9.6627394379   -2.1124926340    8.2327997121   -2.2369778124
  4         -9.6814993499   -2.1215521045    8.2229805960   -2.2365178421
  5         -9.6843326483   -2.1250939529    8.2191374534   -2.2362718126
  6         -9.6859628709   -2.1267894855    8.2172963573   -2.2362066344
  7         -9.6867347035   -2.1276425665    8.2163697352   -2.2361903369
  8         -9.6870802100   -2.1280764625    8.2158983890   -2.2361891460
  9         -9.6872290423   -2.1282977424    8.2156580222   -2.2361920435
 10         -9.6872901988   -2.1284107021    8.2155353368   -2.2361953393
 11         -9.6873135296   -2.1284684031    8.2154726809   -2.2361979819
 12         -9.6873212476   -2.1284978948    8.2154406648   -2.2361998431
 13         -9.6873229586   -2.1285129774    8.2154242957   -2.2362010676
 14         -9.6873226456   -2.1285206957    8.2154159216   -2.2362018403
 15         -9.6873218534   -2.1285246479    8.2154116349   -2.2362023142
 16         -9.6873212599   -2.1285262679    8.2154098784   -2.2362025420
 17         -9.6873207834   -2.1285272564    8.2154088068   -2.2362026955
 18         -9.6873204210   -2.1285278596    8.2154081529   -2.2362027982
 19         -9.6873201550   -2.1285282280    8.2154077538   -2.2362028667
 20         -9.6873199645   -2.1285284529    8.2154075102   -2.2362029121
 21         -9.6873198305   -2.1285285903    8.2154073614   -2.2362029421
 22         -9.6873197377   -2.1285286742    8.2154072705   -2.2362029618
Atom SCF converged after  22 iterations to a total energy of     -9.68731974

Atom SCF Calculation for H  : Z (AE atom) =   1 : Z (PS atom) =   1
Config String:
Orbitals (num,occ):  1     1.00
Orbitals   (num,l):  1        0
Real-space Grid (nr,dr,rmax): 1203    0.0066555740    8.0000000000
Spherical Bessel Basis (nsws,lmax,cutoff):   47    0  176.3951722778
Confining potential (l,width,scale):  0    3.0000000000  100.0000000000
  1         -0.3194257691   -0.2393854593    0.2820953124   -0.2424203209
  2         -0.3951823392   -0.2377116493    0.2886404059   -0.2475147891
  3         -0.4317044583   -0.2352244387    0.2921333887   -0.2514046172
  4         -0.4470703708   -0.2341892222    0.2934391879   -0.2531009782
  5         -0.4532132900   -0.2338556667    0.2938388426   -0.2537313520
  6         -0.4556579251   -0.2337612552    0.2939448584   -0.2539550462
  7         -0.4566418315   -0.2337377355    0.2939680120   -0.2540342273
  8         -0.4570437922   -0.2337331116    0.2939708287   -0.2540627372
  9         -0.4572102946   -0.2337328328    0.2939698291   -0.2540732650
 10         -0.4572800424   -0.2337332404    0.2939687193   -0.2540772588
 11         -0.4573095100   -0.2337335791    0.2939680317   -0.2540788122
 12         -0.4573220379   -0.2337337762    0.2939676699   -0.2540794294
 13         -0.4573273880   -0.2337338775    0.2939674931   -0.2540796787
 14         -0.4573296803   -0.2337339266    0.2939674099   -0.2540797808
 15         -0.4573306647   -0.2337339495    0.2939673718   -0.2540798230
 16         -0.4573310882   -0.2337339601    0.2939673545   -0.2540798406
 17         -0.4573312706   -0.2337339649    0.2939673467   -0.2540798479
 18         -0.4573313493   -0.2337339670    0.2939673433   -0.2540798510
Atom SCF converged after  18 iterations to a total energy of     -0.45733135

Atom SCF Calculation for C  : Z (AE atom) =   6 : Z (PS atom) =   4
Config String:
Orbitals (num,occ):  2     2.00 2.00
Orbitals   (num,l):  2        0    1
Real-space Grid (nr,dr,rmax): 1203    0.0066555740    8.0000000000
Spherical Bessel Basis (nsws,lmax,cutoff):   47    1  176.3951722778
Confining potential (l,width,scale):  0    3.0000000000  100.0000000000
Confining potential (l,width,scale):  1    3.0000000000  100.0000000000
  1         -5.2976922011   -1.3069684169    4.5135249990   -1.4493313817
  2         -5.3721716256   -1.3429755895    4.4750154450   -1.4361613026
  3         -5.3809959565   -1.3617365618    4.4541655428   -1.4305930207
  4         -5.3918938866   -1.3667928461    4.4484735100   -1.4294652294
  5         -5.3956096428   -1.3688539142    4.4461376126   -1.4290734646
  6         -5.3968271862   -1.3696852393    4.4451910874   -1.4289366866
  7         -5.3972028401   -1.3700178062    4.4448112275   -1.4288900460
  8         -5.3973067903   -1.3701500158    4.4446598370   -1.4288749220
  9         -5.3973286940   -1.3702023868    4.4445997329   -1.4288704293
 10         -5.3973289850   -1.3702230869    4.4445759233   -1.4288693188
 11         -5.3973254264   -1.3702312560    4.4445665049   -1.4288691775
 12         -5.3973224003   -1.3702344755    4.4445627836   -1.4288692549
 13         -5.3973208708   -1.3702354890    4.4445616088   -1.4288693270
 14         -5.3973198783   -1.3702360102    4.4445610034   -1.4288693814
 15         -5.3973192535   -1.3702362780    4.4445606917   -1.4288694190
 16         -5.3973188684   -1.3702364155    4.4445605313   -1.4288694437
 17         -5.3973186349   -1.3702364860    4.4445604489   -1.4288694595
 18         -5.3973184951   -1.3702365221    4.4445604065   -1.4288694693
 19         -5.3973184122   -1.3702365405    4.4445603848   -1.4288694753
Atom SCF converged after  19 iterations to a total energy of     -5.39731841

Atom SCF Calculation for S  : Z (AE atom) =  16 : Z (PS atom) =   6
Config String:
Orbitals (num,occ):  3     2.00 4.00 0.00
Orbitals   (num,l):  3        0    1    2
Real-space Grid (nr,dr,rmax): 1203    0.0066555740    8.0000000000
Spherical Bessel Basis (nsws,lmax,cutoff):   47    2  176.3951722778
Confining potential (l,width,scale):  0    3.0000000000  100.0000000000
Confining potential (l,width,scale):  1    3.0000000000  100.0000000000
Confining potential (l,width,scale):  2    3.0000000000  100.0000000000
  1        -12.4735062396   -1.0328741412   10.1554312477   -2.4512393157
  2         -9.9458301913   -2.4607392455    8.3041325857   -2.0306994528
  3        -10.1450417646   -2.2931184565    8.4831893826   -2.0812538287
  4        -10.1528335592   -2.2733105793    8.5050388867   -2.0896035179
  5        -10.1571940363   -2.2633716629    8.5160794258   -2.0939370707
  6        -10.1594380571   -2.2584938667    8.5215163935   -2.0961289008
  7        -10.1605856507   -2.2561081821    8.5241804044   -2.0972291378
  8        -10.1611799191   -2.2549395235    8.5254868240   -2.0977806248
  9        -10.1614918752   -2.2543658586    8.5261285885   -2.0980571586
 10        -10.1616572884   -2.2540839121    8.5264441898   -2.0981959233
 11        -10.1617455602   -2.2539453058    8.5265994231   -2.0982656006
 12        -10.1617928447   -2.2538772062    8.5266757320   -2.0983006047
 13        -10.1618182292   -2.2538437891    8.5267131983   -2.0983181961
 14        -10.1618318741   -2.2538274201    8.5267315620   -2.0983270391
 15        -10.1618392144   -2.2538194197    8.5267405433   -2.0983314852
 16        -10.1618431651   -2.2538155200    8.5267449245   -2.0983337210
 17        -10.1618452923   -2.2538136252    8.5267470551   -2.0983348455
 18        -10.1618464380   -2.2538127080    8.5267480875   -2.0983354110
 19        -10.1618470552   -2.2538122659    8.5267485856   -2.0983356955
 20        -10.1618473878   -2.2538120540    8.5267488248   -2.0983358386
 21        -10.1618475670   -2.2538119530    8.5267489389   -2.0983359106
 22        -10.1618476637   -2.2538119053    8.5267489929   -2.0983359468
Atom SCF converged after  22 iterations to a total energy of    -10.16184766

Atom SCF Calculation for O  : Z (AE atom) =   8 : Z (PS atom) =   6
Config String:
Orbitals (num,occ):  2     2.00 4.00
Orbitals   (num,l):  2        0    1
Real-space Grid (nr,dr,rmax): 1203    0.0066555740    8.0000000000
Spherical Bessel Basis (nsws,lmax,cutoff):   47    1  176.3951722778
Confining potential (l,width,scale):  0    3.0000000000  100.0000000000
Confining potential (l,width,scale):  1    3.0000000000  100.0000000000
  1         -1.8735052164   -7.5539365035   10.1554312477   -2.4512393157
  2        -16.0318313751   -3.1285771268   13.6395848164   -3.2358799643
  3        -15.9524020423   -3.0762819706   13.6967272503   -3.2536856837
  4        -15.8521515939   -3.0781493909   13.6951909330   -3.2561700440
  5        -15.8357139793   -3.0748501933   13.6988803334   -3.2580493133
  6        -15.8246052853   -3.0740779781   13.6997881576   -3.2588327446
  7        -15.8189019501   -3.0737449687   13.7001869911   -3.2592378801
  8        -15.8159785510   -3.0736026016   13.7003615168   -3.2594475790
  9        -15.8144776168   -3.0735437994   13.7004360379   -3.2595560735
 10        -15.8137058024   -3.0735207882   13.7004667348   -3.2596122456
 11        -15.8133083127   -3.0735125946   13.7004786868   -3.2596413656
 12        -15.8131032938   -3.0735102195   13.7004828997   -3.2596564858
 13        -15.8129973902   -3.0735099286   13.7004840891   -3.2596643505
 14        -15.8129426040   -3.0735102506   13.7004842061   -3.2596684489
 15        -15.8129142203   -3.0735106556   13.7004840157   -3.2596705887
 16        -15.8128994940   -3.0735109855   13.7004837906   -3.2596717080
 17        -15.8128918425   -3.0735112169   13.7004836103   -3.2596722946
 18        -15.8128878614   -3.0735113674   13.7004834848   -3.2596726026
 19        -15.8128857871   -3.0735114608   13.7004834035   -3.2596727646
 20        -15.8128847048   -3.0735115170   13.7004833533   -3.2596728500
 21        -15.8128841394   -3.0735115501   13.7004833231   -3.2596728951
 22        -15.8128838436   -3.0735115693   13.7004833054   -3.2596729190
 23        -15.8128836887   -3.0735115802   13.7004832951   -3.2596729316
 24        -15.8128836074   -3.0735115864   13.7004832893   -3.2596729383
Atom SCF converged after  24 iterations to a total energy of    -15.81288361

========================== Calculation in vacuum ==============================
= Adjusting the following parameters: 
= is_implicit_solvent: F
= is_include_apolar: F
= write_denskern: T
= write_tightbox_ngwfs: T
= restart read filename prefix: ""
= restart write filename prefix: "vacuum_"
===============================================================================

Determining parallel strategy ...
... using space-filling curve
... NGWF load balancing: max    110;  min    109;  average    109
... Projector load balancing: max     26;  min     21;  average     22
... done
Calculating direct Ion-Ion energy ...
Ion-Ion Energy        :    836050.06489364476874
======================= Empirical dispersion information =======================
Model : Elstner
Dispersion Correction Energy: -0.33097775E+01 Hartree
================================================================================
Basis initialisation ...... NGWF spheres initialised
... Projector spheres initialised
... NGWF tight boxes initialised
... Tight-boxes gathered
... NGWF basis size (local,global):    1038383  62310751
... Nonlocal pseudopotential projector initialisation
... done

========================== Sparse matrix information ===========================
                        Overlap matrix filling:   6.76%
                        Density kernel filling: 100.00%
              NGWF-Proj overlap matrix filling:   1.77%
                    Hamiltonian matrix filling:   7.63%
                  NGWF diagonal matrix filling:   0.05%
                             KS matrix filling: 100.00% 
                           KSKS matrix filling: 100.00% 
================================================================================

Sparse matrix initialisation ... done

Generating smeared ion density ... done
Smeared ion self correction:     -14517.010906
Smeared ion non-self correction: -836001.976495
NGWF initialisation ...... done
============ Calculation of NGWF S^-1 using Hotelling algorithm ================ 
         Iteration  |  Frobenius norm and Maximum abs value    (of I-S*S_n^-1)   
               1       0.78717057E+02     0.98271664E+00
               2       0.76875086E+02     0.96586213E+00
               3       0.73886845E+02     0.93336961E+00
               4       0.69629366E+02     0.87282925E+00
               5       0.64316657E+02     0.77042173E+00
               6       0.58339553E+02     0.70953098E+00
               7       0.52320225E+02     0.67468418E+00
               8       0.46756494E+02     0.64652242E+00
               9       0.40696454E+02     0.60584462E+00
              10       0.32449264E+02     0.53551245E+00
              11       0.21876214E+02     0.42187567E+00
              12       0.11224787E+02     0.27959133E+00
              13       0.37144224E+01     0.12730942E+00
              14       0.58594116E+00     0.31542677E-01
              15       0.26972946E-01     0.24085379E-02
              16       0.14343678E-03     0.20288488E-04
              17       0.10290019E-07     0.19356819E-08
              18       0.95208014E-13     0.44408921E-14
================================================================================
Calculating local pseudopotential in open BC on the fine real space grid ...
... done

MG BCs: +ve charge blocks (gridpoints):     20414 (   16044607).
MG BCs: -ve charge blocks (gridpoints):      8075 (    1079797).
MG BCs:     Elided blocks (gridpoints):    183874 (  182053477).
MG BCs: Computational effort saved:  99.9857%.
MG BCs: Charge after coarse-graining:           -9.0002287.
MG DL_MG: Calling solver with defect correction order = 8
MG DL_MG: Solver finished
MG Hartree energy from (\int phi*rho dr):              1471.439657
MG Hartree energy from (\int eps (grad phi)^2 dr):     1470.826836
MG Discrepancy due to finite box and discretization:     -0.612821 (  -0.04165%)
MG Correction to account for finite box:                  0.458472
MG Remaining discrepancy, due to discretization:         -0.154350 (  -0.01049%)
Up spin density kernel initialisation ... 
======= Optimisation of K by Palser-Manolopoulos canonical purification ======== 
         Iteration  |  Band structure energy |    c_n   
               1       -2597.66393814578169    0.5263036
               2       -2774.41563132349893    0.5166781
               3       -2955.04094156668089    0.5154781
               4       -3105.06895605515365    0.5296234
               5       -3196.60288059131562    0.5661599
               6       -3234.61388263455183    0.6111929
               7       -3247.55289683906358    0.6236055
               8       -3253.19503893336059    0.6243050
               9       -3255.92974134752012    0.6414806
              10       -3257.07300466132892    0.6732486
              11       -3257.51822757450145    0.6952500
              12       -3257.71522607195402    0.6836972
              13       -3257.82775934645451    0.6462943
              14       -3257.89896533345654    0.5993731
              15       -3257.93908075440504    0.5663390
              16       -3257.95532860185176    0.5974657
              17       -3257.95920523528093    0.6580008
              18       -3257.96013192812643    0.6666413
              19       -3257.96052188728891    0.6568438
              20       -3257.96074836930529    0.6436709
              21       -3257.96089227794619    0.6242425
              22       -3257.96099314998537    0.5951111
              23       -3257.96106641659208    0.5566312
              24       -3257.96111238203503    0.5200541
              25       -3257.96113041924355    0.5024605
              26       -3257.96113385505078    0.5000364
              27       -3257.96113578686209    0.5000000
              28       -3257.96113855795465    0.5000000
              29       -3257.96114245881881    0.5000000
              30       -3257.96114753686197    0.5000000
              31       -3257.96115310549476    0.5000000
              32       -3257.96115734560908    0.5000000
              33       -3257.96115889736575    0.5000000
              34       -3257.96115904232283    0.5000000
Termination criterion satisfied: band energy change below threshold.
Final occupancy bounds: [    0.00000000293936:    0.99999999981329]
Closest occupancy to 0.5:     0.99999999982629
================================================================================
... done

Writing density kernel to file "complex_9981.vacuum_dkn" ... done

>>> Optimising kernel for current NGWFs:
   Initial electron number for spin 1:    7228.00000000
     Final electron number for spin 1:    7228.00000000

=================== Penalty functional idempotency correction ==================
 RMS occupancy error at iteration   1:  0.000000 (step -0.5000 Ne1=   7228.0000)
            Final RMS occupancy error   :  0.000000 (Ne1=   7228.0000)
               Final occupancy bounds   : [  0.0000,  1.0000]
================================================================================

................................................................................
<<<<<<<<<<<<<< LNV (Original version) density kernel optimisation >>>>>>>>>>>>>>
~~~~~~~~~~~~~~~~~~~~~~~~~~~~~~~~~~~~~~~~~~~~~~~~~~~~~~~~~~~~~~~~~~~~~~~~~~~~~~~~
   iter  |      energy (Eh)       | rms gradient |  commutator  |   dE (Eh)
MG BCs: +ve charge blocks (gridpoints):     30943 (   17195977).
MG BCs: -ve charge blocks (gridpoints):      8377 (    1113017).
MG BCs:     Elided blocks (gridpoints):    173341 (  180868887).
MG BCs: Computational effort saved:  99.9803%.
MG BCs: Charge after coarse-graining:           -9.0009434.
MG DL_MG: Calling solver with defect correction order = 8
MG DL_MG: Solver finished
MG Hartree energy from (\int phi*rho dr):              1425.871063
MG Hartree energy from (\int eps (grad phi)^2 dr):     1425.209781
MG Discrepancy due to finite box and discretization:     -0.661282 (  -0.04638%)
MG Correction to account for finite box:                  0.463620
MG Remaining discrepancy, due to discretization:         -0.197662 (  -0.01386%)
      ideal mu1:      -0.706970542082
             Q0:  -11552.184766631457
             G0:    -142.062595351565
   RMS gradient:       0.001822198661
MG BCs: +ve charge blocks (gridpoints):     30963 (   17279079).
MG BCs: -ve charge blocks (gridpoints):      8300 (    1092597).
MG BCs:     Elided blocks (gridpoints):    173320 (  180806205).
MG BCs: Computational effort saved:  99.9803%.
MG BCs: Charge after coarse-graining:           -9.0009638.
MG DL_MG: Calling solver with defect correction order = 8
MG DL_MG: Solver finished
MG Hartree energy from (\int phi*rho dr):              1451.664147
MG Hartree energy from (\int eps (grad phi)^2 dr):     1451.020223
MG Discrepancy due to finite box and discretization:     -0.643923 (  -0.04436%)
MG Correction to account for finite box:                  0.462291
MG Remaining discrepancy, due to discretization:         -0.181632 (  -0.01251%)
     Trial step:       0.500000000000
             Q1:  -11563.206620061421
 Quadratic coef:      60.009444245819
 Linear coef   :     -71.031297675782
           Qmin:  -11573.204146634534
Quadratic minimum step length (  0.295917161742) accepted
    Initial Ne1:    7227.99999999
      Final Ne1:    7228.00000000

=================== Penalty functional idempotency correction ==================
 RMS occupancy error at iteration   1:  0.003316 (step -0.4888 Ne1=   7228.0000)
 RMS occupancy error at iteration   2:  0.000025 (step -0.5000 Ne1=   7228.0000)
            Final RMS occupancy error   :  0.000000 (Ne1=   7228.0000)
               Final occupancy bounds   : [  0.0000,  1.0000]
================================================================================

    1        -1.155218476663E+04     1.8222E-03     1.6490E-03
MG BCs: +ve charge blocks (gridpoints):     30946 (   17246237).
MG BCs: -ve charge blocks (gridpoints):      8336 (    1101659).
MG BCs:     Elided blocks (gridpoints):    173338 (  180829985).
MG BCs: Computational effort saved:  99.9803%.
MG BCs: Charge after coarse-graining:           -9.0009556.
MG DL_MG: Calling solver with defect correction order = 8
MG DL_MG: Solver finished
MG Hartree energy from (\int phi*rho dr):              1433.288298
MG Hartree energy from (\int eps (grad phi)^2 dr):     1432.638253
MG Discrepancy due to finite box and discretization:     -0.650045 (  -0.04535%)
MG Correction to account for finite box:                  0.462708
MG Remaining discrepancy, due to discretization:         -0.187337 (  -0.01307%)
      ideal mu1:      -0.749331150778
             Q0:  -11573.591717377654
             G0:     -11.601725065261
   RMS gradient:       0.000517289039
MG BCs: +ve charge blocks (gridpoints):     30948 (   17263374).
MG BCs: -ve charge blocks (gridpoints):      8325 (    1096136).
MG BCs:     Elided blocks (gridpoints):    173336 (  180818371).
MG BCs: Computational effort saved:  99.9803%.
MG BCs: Charge after coarse-graining:           -9.0009594.
MG DL_MG: Calling solver with defect correction order = 8
MG DL_MG: Solver finished
MG Hartree energy from (\int phi*rho dr):              1438.699151
MG Hartree energy from (\int eps (grad phi)^2 dr):     1438.052886
MG Discrepancy due to finite box and discretization:     -0.646265 (  -0.04492%)
MG Correction to account for finite box:                  0.462172
MG Remaining discrepancy, due to discretization:         -0.184093 (  -0.01280%)
     Trial step:       0.384653845517
             Q1:  -11576.320728330058
 Quadratic coef:       1.733637208581
 Linear coef   :      -4.462648160985
           Qmin:  -11576.463602641503
Quadratic minimum step length (  0.495079007250) accepted
    Initial Ne1:    7227.99992156
      Final Ne1:    7228.00000000

=================== Penalty functional idempotency correction ==================
 RMS occupancy error at iteration   1:  0.001742 (step -0.4934 Ne1=   7228.0000)
 RMS occupancy error at iteration   2:  0.000009 (step -0.5000 Ne1=   7228.0000)
            Final RMS occupancy error   :  0.000000 (Ne1=   7228.0000)
               Final occupancy bounds   : [  0.0000,  1.0000]
================================================================================

    2        -1.157359171738E+04     5.1729E-04     4.6812E-04    -2.1407E+01
MG BCs: +ve charge blocks (gridpoints):     30948 (   17268145).
MG BCs: -ve charge blocks (gridpoints):      8317 (    1094616).
MG BCs:     Elided blocks (gridpoints):    173336 (  180815120).
MG BCs: Computational effort saved:  99.9803%.
MG BCs: Charge after coarse-graining:           -9.0009606.
MG DL_MG: Calling solver with defect correction order = 8
MG DL_MG: Solver finished
MG Hartree energy from (\int phi*rho dr):              1440.293026
MG Hartree energy from (\int eps (grad phi)^2 dr):     1439.647767
MG Discrepancy due to finite box and discretization:     -0.645259 (  -0.04480%)
MG Correction to account for finite box:                  0.462032
MG Remaining discrepancy, due to discretization:         -0.183226 (  -0.01272%)
      ideal mu1:      -0.772385603482
             Q0:  -11576.497710201191
             G0:      -1.817534380828
   RMS gradient:       0.000204869726
MG BCs: +ve charge blocks (gridpoints):     30950 (   17267482).
MG BCs: -ve charge blocks (gridpoints):      8324 (    1095704).
MG BCs:     Elided blocks (gridpoints):    173334 (  180814695).
MG BCs: Computational effort saved:  99.9803%.
MG BCs: Charge after coarse-graining:           -9.0009602.
MG DL_MG: Calling solver with defect correction order = 8
MG DL_MG: Solver finished
MG Hartree energy from (\int phi*rho dr):              1438.093023
MG Hartree energy from (\int eps (grad phi)^2 dr):     1437.448094
MG Discrepancy due to finite box and discretization:     -0.644929 (  -0.04485%)
MG Correction to account for finite box:                  0.461866
MG Remaining discrepancy, due to discretization:         -0.183063 (  -0.01273%)
     Trial step:       0.436387492916
             Q1:  -11576.957055701874
 Quadratic coef:       0.333803771055
 Linear coef   :      -0.793149271738
           Qmin:  -11576.968859587305
Quadratic minimum step length (  0.518448939490) accepted
    Initial Ne1:    7227.99996825
      Final Ne1:    7228.00000000

=================== Penalty functional idempotency correction ==================
 RMS occupancy error at iteration   1:  0.000579 (step -0.4977 Ne1=   7228.0000)
 RMS occupancy error at iteration   2:  0.000001 (step -0.5000 Ne1=   7228.0000)
            Final RMS occupancy error   :  0.000000 (Ne1=   7228.0000)
               Final occupancy bounds   : [  0.0000,  1.0000]
================================================================================

    3        -1.157649771020E+04     2.0487E-04     1.8540E-04    -2.9060E+00
MG BCs: +ve charge blocks (gridpoints):     30949 (   17267330).
MG BCs: -ve charge blocks (gridpoints):      8324 (    1095936).
MG BCs:     Elided blocks (gridpoints):    173335 (  180814615).
MG BCs: Computational effort saved:  99.9803%.
MG BCs: Charge after coarse-graining:           -9.0009601.
MG DL_MG: Calling solver with defect correction order = 8
MG DL_MG: Solver finished
MG Hartree energy from (\int phi*rho dr):              1437.687211
MG Hartree energy from (\int eps (grad phi)^2 dr):     1437.042335
MG Discrepancy due to finite box and discretization:     -0.644876 (  -0.04486%)
MG Correction to account for finite box:                  0.461835
MG Remaining discrepancy, due to discretization:         -0.183041 (  -0.01273%)
      ideal mu1:      -0.772946490392
             Q0:  -11576.973072251538
             G0:      -0.420050253916
   RMS gradient:       0.000098594403
MG BCs: +ve charge blocks (gridpoints):     30952 (   17268272).
MG BCs: -ve charge blocks (gridpoints):      8322 (    1095727).
MG BCs:     Elided blocks (gridpoints):    173331 (  180813882).
MG BCs: Computational effort saved:  99.9803%.
MG BCs: Charge after coarse-graining:           -9.0009602.
MG DL_MG: Calling solver with defect correction order = 8
MG DL_MG: Solver finished
MG Hartree energy from (\int phi*rho dr):              1438.884537
MG Hartree energy from (\int eps (grad phi)^2 dr):     1438.239619
MG Discrepancy due to finite box and discretization:     -0.644918 (  -0.04482%)
MG Correction to account for finite box:                  0.461764
MG Remaining discrepancy, due to discretization:         -0.183154 (  -0.01273%)
     Trial step:       0.475651797967
             Q1:  -11577.070028921240
 Quadratic coef:       0.102840988809
 Linear coef   :      -0.199797658511
           Qmin:  -11577.070113092959
Quadratic minimum step length (  0.462043960296) accepted
    Initial Ne1:    7227.99999331
      Final Ne1:    7228.00000000

=================== Penalty functional idempotency correction ==================
 RMS occupancy error at iteration   1:  0.000183 (step -0.4992 Ne1=   7228.0000)
            Final RMS occupancy error   :  0.000000 (Ne1=   7228.0000)
               Final occupancy bounds   : [ -0.0000,  1.0000]
================================================================================

    4        -1.157697307225E+04     9.8594E-05     8.9223E-05    -4.7536E-01
MG BCs: +ve charge blocks (gridpoints):     30952 (   17268258).
MG BCs: -ve charge blocks (gridpoints):      8322 (    1095732).
MG BCs:     Elided blocks (gridpoints):    173331 (  180813891).
MG BCs: Computational effort saved:  99.9803%.
MG BCs: Charge after coarse-graining:           -9.0009602.
MG DL_MG: Calling solver with defect correction order = 8
MG DL_MG: Solver finished
MG Hartree energy from (\int phi*rho dr):              1438.850302
MG Hartree energy from (\int eps (grad phi)^2 dr):     1438.205386
MG Discrepancy due to finite box and discretization:     -0.644916 (  -0.04482%)
MG Correction to account for finite box:                  0.461766
MG Remaining discrepancy, due to discretization:         -0.183150 (  -0.01273%)
      ideal mu1:      -0.773200963523
             Q0:  -11577.070519549772
             G0:      -0.103700364767
   RMS gradient:       0.000049133729
MG BCs: +ve charge blocks (gridpoints):     30952 (   17268396).
MG BCs: -ve charge blocks (gridpoints):      8322 (    1095592).
MG BCs:     Elided blocks (gridpoints):    173331 (  180813893).
MG BCs: Computational effort saved:  99.9803%.
MG BCs: Charge after coarse-graining:           -9.0009602.
MG DL_MG: Calling solver with defect correction order = 8
MG DL_MG: Solver finished
MG Hartree energy from (\int phi*rho dr):              1439.213320
MG Hartree energy from (\int eps (grad phi)^2 dr):     1438.568253
MG Discrepancy due to finite box and discretization:     -0.645067 (  -0.04482%)
MG Correction to account for finite box:                  0.461770
MG Remaining discrepancy, due to discretization:         -0.183296 (  -0.01274%)
     Trial step:       0.468798507308
             Q1:  -11577.096196246915
 Quadratic coef:       0.022937879066
 Linear coef   :      -0.048614576210
           Qmin:  -11577.096278001689
Quadratic minimum step length (  0.496786139091) accepted
    Initial Ne1:    7228.00166086
      Final Ne1:    7228.00000000

=================== Penalty functional idempotency correction ==================
 RMS occupancy error at iteration   1:  0.000066 (step -0.4997 Ne1=   7228.0000)
            Final RMS occupancy error   :  0.000000 (Ne1=   7228.0000)
               Final occupancy bounds   : [ -0.0000,  1.0000]
================================================================================

    5        -1.157707051955E+04     4.9134E-05     4.4464E-05    -9.7447E-02
MG BCs: +ve charge blocks (gridpoints):     30952 (   17268402).
MG BCs: -ve charge blocks (gridpoints):      8322 (    1095587).
MG BCs:     Elided blocks (gridpoints):    173331 (  180813892).
MG BCs: Computational effort saved:  99.9803%.
MG BCs: Charge after coarse-graining:           -9.0009602.
MG DL_MG: Calling solver with defect correction order = 8
MG DL_MG: Solver finished
MG Hartree energy from (\int phi*rho dr):              1439.235019
MG Hartree energy from (\int eps (grad phi)^2 dr):     1438.589943
MG Discrepancy due to finite box and discretization:     -0.645076 (  -0.04482%)
MG Correction to account for finite box:                  0.461771
MG Remaining discrepancy, due to discretization:         -0.183305 (  -0.01274%)
      ideal mu1:      -0.773136492739
             Q0:  -11577.096327365492
             G0:      -0.032915082051
   RMS gradient:       0.000027701877
MG BCs: +ve charge blocks (gridpoints):     30951 (   17268076).
MG BCs: -ve charge blocks (gridpoints):      8323 (    1095832).
MG BCs:     Elided blocks (gridpoints):    173332 (  180813973).
MG BCs: Computational effort saved:  99.9803%.
MG BCs: Charge after coarse-graining:           -9.0009600.
MG DL_MG: Calling solver with defect correction order = 8
MG DL_MG: Solver finished
MG Hartree energy from (\int phi*rho dr):              1438.598521
MG Hartree energy from (\int eps (grad phi)^2 dr):     1437.953463
MG Discrepancy due to finite box and discretization:     -0.645057 (  -0.04484%)
MG Correction to account for finite box:                  0.461766
MG Remaining discrepancy, due to discretization:         -0.183292 (  -0.01274%)
     Trial step:       0.482589474043
             Q1:  -11577.106911628856
 Quadratic coef:       0.005300208772
 Linear coef   :      -0.015884472135
           Qmin:  -11577.108228616267
Quadratic minimum step length (  0.723148783710) accepted
    Initial Ne1:    7228.00111748
      Final Ne1:    7228.00000000

=================== Penalty functional idempotency correction ==================
 RMS occupancy error at iteration   1:  0.000045 (step -0.4997 Ne1=   7228.0000)
            Final RMS occupancy error   :  0.000000 (Ne1=   7228.0000)
               Final occupancy bounds   : [ -0.0000,  1.0000]
================================================================================

    6        -1.157709632737E+04     2.7702E-05     2.5069E-05    -2.5808E-02
MG BCs: +ve charge blocks (gridpoints):     30951 (   17267902).
MG BCs: -ve charge blocks (gridpoints):      8325 (    1095926).
MG BCs:     Elided blocks (gridpoints):    173332 (  180814053).
MG BCs: Computational effort saved:  99.9803%.
MG BCs: Charge after coarse-graining:           -9.0009600.
MG DL_MG: Calling solver with defect correction order = 8
MG DL_MG: Solver finished
MG Hartree energy from (\int phi*rho dr):              1438.280258
MG Hartree energy from (\int eps (grad phi)^2 dr):     1437.635210
MG Discrepancy due to finite box and discretization:     -0.645048 (  -0.04485%)
MG Correction to account for finite box:                  0.461763
MG Remaining discrepancy, due to discretization:         -0.183285 (  -0.01274%)
      ideal mu1:      -0.772961954186
             Q0:  -11577.108238319168
             G0:      -0.018546836533
   RMS gradient:       0.000020820482
MG BCs: +ve charge blocks (gridpoints):     30952 (   17268385).
MG BCs: -ve charge blocks (gridpoints):      8324 (    1095629).
MG BCs:     Elided blocks (gridpoints):    173331 (  180813867).
MG BCs: Computational effort saved:  99.9803%.
MG BCs: Charge after coarse-graining:           -9.0009602.
MG DL_MG: Calling solver with defect correction order = 8
MG DL_MG: Solver finished
MG Hartree energy from (\int phi*rho dr):              1438.989821
MG Hartree energy from (\int eps (grad phi)^2 dr):     1438.344804
MG Discrepancy due to finite box and discretization:     -0.645017 (  -0.04482%)
MG Correction to account for finite box:                  0.461750
MG Remaining discrepancy, due to discretization:         -0.183267 (  -0.01274%)
     Trial step:       0.590748670067
             Q1:  -11577.113235013676
 Quadratic coef:       0.005959824508
 Linear coef   :      -0.010956519016
           Qmin:  -11577.113273925032
Quadratic minimum step length (  0.543015069354) accepted
    Initial Ne1:    7228.00024878
      Final Ne1:    7228.00000000

=================== Penalty functional idempotency correction ==================
 RMS occupancy error at iteration   1:  0.000003 (step -0.5000 Ne1=   7228.0000)
            Final RMS occupancy error   :  0.000000 (Ne1=   7228.0000)
               Final occupancy bounds   : [  0.0000,  1.0000]
================================================================================

    7        -1.157710823832E+04     2.0820E-05     1.8842E-05    -1.1911E-02
MG BCs: +ve charge blocks (gridpoints):     30951 (   17268339).
MG BCs: -ve charge blocks (gridpoints):      8324 (    1095648).
MG BCs:     Elided blocks (gridpoints):    173332 (  180813894).
MG BCs: Computational effort saved:  99.9803%.
MG BCs: Charge after coarse-graining:           -9.0009602.
MG DL_MG: Calling solver with defect correction order = 8
MG DL_MG: Solver finished
MG Hartree energy from (\int phi*rho dr):              1438.932410
MG Hartree energy from (\int eps (grad phi)^2 dr):     1438.287390
MG Discrepancy due to finite box and discretization:     -0.645020 (  -0.04483%)
MG Correction to account for finite box:                  0.461751
MG Remaining discrepancy, due to discretization:         -0.183268 (  -0.01274%)
      ideal mu1:      -0.773243978721
             Q0:  -11577.113274065196
             G0:      -0.011730657244
   RMS gradient:       0.000016558921
MG BCs: +ve charge blocks (gridpoints):     30952 (   17268408).
MG BCs: -ve charge blocks (gridpoints):      8324 (    1095640).
MG BCs:     Elided blocks (gridpoints):    173331 (  180813833).
MG BCs: Computational effort saved:  99.9803%.
MG BCs: Charge after coarse-graining:           -9.0009602.
MG DL_MG: Calling solver with defect correction order = 8
MG DL_MG: Solver finished
MG Hartree energy from (\int phi*rho dr):              1438.970705
MG Hartree energy from (\int eps (grad phi)^2 dr):     1438.325736
MG Discrepancy due to finite box and discretization:     -0.644969 (  -0.04482%)
MG Correction to account for finite box:                  0.461736
MG Remaining discrepancy, due to discretization:         -0.183232 (  -0.01273%)
     Trial step:       0.566379228121
             Q1:  -11577.118269940838
 Quadratic coef:       0.001648124953
 Linear coef   :      -0.006644000595
           Qmin:  -11577.119969968899
Quadratic minimum step length (  1.141607595179) accepted
    Initial Ne1:    7228.00032829
      Final Ne1:    7228.00000000

=================== Penalty functional idempotency correction ==================
 RMS occupancy error at iteration   1:  0.000042 (step -0.4988 Ne1=   7228.0000)
            Final RMS occupancy error   :  0.000000 (Ne1=   7228.0000)
               Final occupancy bounds   : [ -0.0000,  1.0000]
================================================================================

    8        -1.157711327407E+04     1.6559E-05     1.4985E-05    -5.0357E-03
MG BCs: +ve charge blocks (gridpoints):     30951 (   17268466).
MG BCs: -ve charge blocks (gridpoints):      8324 (    1095602).
MG BCs:     Elided blocks (gridpoints):    173332 (  180813813).
MG BCs: Computational effort saved:  99.9803%.
MG BCs: Charge after coarse-graining:           -9.0009602.
MG DL_MG: Calling solver with defect correction order = 8
MG DL_MG: Solver finished
MG Hartree energy from (\int phi*rho dr):              1439.006652
MG Hartree energy from (\int eps (grad phi)^2 dr):     1438.361738
MG Discrepancy due to finite box and discretization:     -0.644915 (  -0.04482%)
MG Correction to account for finite box:                  0.461719
MG Remaining discrepancy, due to discretization:         -0.183195 (  -0.01273%)
      ideal mu1:      -0.773260019833
             Q0:  -11577.119937630836
             G0:      -0.020557526131
   RMS gradient:       0.000022020800
MG BCs: +ve charge blocks (gridpoints):     30951 (   17268355).
MG BCs: -ve charge blocks (gridpoints):      8324 (    1095776).
MG BCs:     Elided blocks (gridpoints):    173332 (  180813750).
MG BCs: Computational effort saved:  99.9803%.
MG BCs: Charge after coarse-graining:           -9.0009602.
MG DL_MG: Calling solver with defect correction order = 8
MG DL_MG: Solver finished
MG Hartree energy from (\int phi*rho dr):              1438.590969
MG Hartree energy from (\int eps (grad phi)^2 dr):     1437.946169
MG Discrepancy due to finite box and discretization:     -0.644799 (  -0.04482%)
MG Correction to account for finite box:                  0.461672
MG Remaining discrepancy, due to discretization:         -0.183127 (  -0.01273%)
     Trial step:       0.804103742420
             Q1:  -11577.130512029864
 Quadratic coef:       0.005955984669
 Linear coef   :      -0.016530383697
           Qmin:  -11577.131407337374
Quadratic minimum step length (  1.115864473632) accepted
    Initial Ne1:    7228.00125683
      Final Ne1:    7228.00000000

=================== Penalty functional idempotency correction ==================
 RMS occupancy error at iteration   1:  0.000311 (step -0.4901 Ne1=   7228.0000)
 RMS occupancy error at iteration   2:  0.000003 (step -0.5000 Ne1=   7228.0000)
            Final RMS occupancy error   :  0.000000 (Ne1=   7228.0000)
               Final occupancy bounds   : [  0.0000,  1.0000]
================================================================================

    9        -1.157711993763E+04     2.2021E-05     1.9928E-05    -6.6636E-03
MG BCs: +ve charge blocks (gridpoints):     30951 (   17268286).
MG BCs: -ve charge blocks (gridpoints):      8323 (    1095856).
MG BCs:     Elided blocks (gridpoints):    173332 (  180813739).
MG BCs: Computational effort saved:  99.9803%.
MG BCs: Charge after coarse-graining:           -9.0009602.
MG DL_MG: Calling solver with defect correction order = 8
MG DL_MG: Solver finished
MG Hartree energy from (\int phi*rho dr):              1438.422547
MG Hartree energy from (\int eps (grad phi)^2 dr):     1437.777798
MG Discrepancy due to finite box and discretization:     -0.644749 (  -0.04482%)
MG Correction to account for finite box:                  0.461650
MG Remaining discrepancy, due to discretization:         -0.183099 (  -0.01273%)
      ideal mu1:      -0.772513770880
   10        -1.157713112773E+04     2.7158E-05     2.4577E-05    -1.1190E-02
Finished density kernel iterations (  10)

Writing density kernel to file "complex_9981.vacuum_dkn" ... done


>>> Density kernel optimised for the current NGWF basis:
     ~~~~~~~~~~~~~~~~~~~~~~~~~~~~~~~~~~~~~~~~~~~~~~~~~~~~~~~~~~~
     Total energy                =  -1.15771311277348E+04  Eh
     Estimated bandgap           =  -2.1849E-01  Eh
     RMS occupancy error         =   6.3582E-10
     [H,K] commutator            =   2.4577E-05
     Occupancy bounds            = [  0.000:  1.000]
     ~~~~~~~~~~~~~~~~~~~~~~~~~~~~~~~~~~~~~~~~~~~~~~~~~~~~~~~~~~~




################################################################################
########################### NGWF CG iteration  001 #############################
################################################################################
****** Reciprocal space K.E. preconditioning with k_zero =  3.5000 a0^-1 *******

>>> Checking for convergence of NGWFs:   NOT CONVERGED
  ========================================================================
         NGWF RMS gradient =  1.6000E-03 >  2.0000E-06  | above tolerance
  ========================================================================

>>> Improving NGWFs using line search:
============ Calculation of NGWF S^-1 using Hotelling algorithm ================ 
         Iteration  |  Frobenius norm and Maximum abs value    (of I-S*S_n^-1)   
               1       0.19848553E+00     0.52085858E-02
               2       0.91701255E-03     0.42431648E-04
               3       0.33609487E-07     0.28898884E-08
               4       0.12711686E-12     0.48849813E-14
================================================================================
MG BCs: +ve charge blocks (gridpoints):     30564 (   17218167).
MG BCs: -ve charge blocks (gridpoints):      8326 (    1095693).
MG BCs:     Elided blocks (gridpoints):    173720 (  180864021).
MG BCs: Computational effort saved:  99.9805%.
MG BCs: Charge after coarse-graining:           -9.0009630.
MG DL_MG: Calling solver with defect correction order = 8
MG DL_MG: Solver finished
MG Hartree energy from (\int phi*rho dr):              1406.458425
MG Hartree energy from (\int eps (grad phi)^2 dr):     1405.814484
MG Discrepancy due to finite box and discretization:     -0.643941 (  -0.04578%)
MG Correction to account for finite box:                  0.461610
MG Remaining discrepancy, due to discretization:         -0.182331 (  -0.01296%)
============ Calculation of NGWF S^-1 using Hotelling algorithm ================ 
         Iteration  |  Frobenius norm and Maximum abs value    (of I-S*S_n^-1)   
               1       0.18432287E+01     0.41422331E-01
               2       0.70497857E-01     0.24363561E-02
               3       0.14010834E-03     0.97164248E-05
               4       0.10246241E-08     0.16143487E-09
               5       0.11093864E-12     0.53290705E-14
================================================================================
------------------------------- NGWF line search -------------------------------
RMS gradient                =       0.00159999485327
Trial step length           =               0.122474
Gradient along search dir.  =       -278.43865412133
Functional at step 0        =  -11577.13112773478497
Functional at step 1        =  -11608.61157811176963
Functional predicted        =  -11688.04690079062857
Selected quadratic step     =               0.796698
--------------------------- NGWF line search finished --------------------------
                                               
Writing NGWFs to file "complex_9981.vacuum_tightbox_ngwfs"....  done

>>> Optimising kernel for current NGWFs:
   Initial electron number for spin 1:    7262.64896356
     Final electron number for spin 1:    7228.00000000

=================== Penalty functional idempotency correction ==================
 RMS occupancy error at iteration   1:  0.004290 (step -0.4858 Ne1=   7228.0000)
 RMS occupancy error at iteration   2:  0.000072 (step -0.5003 Ne1=   7228.0000)
            Final RMS occupancy error   :  0.000000 (Ne1=   7228.0000)
               Final occupancy bounds   : [  0.0000,  1.0000]
================================================================================

................................................................................
<<<<<<<<<<<<<< LNV (Original version) density kernel optimisation >>>>>>>>>>>>>>
~~~~~~~~~~~~~~~~~~~~~~~~~~~~~~~~~~~~~~~~~~~~~~~~~~~~~~~~~~~~~~~~~~~~~~~~~~~~~~~~
   iter  |      energy (Eh)       | rms gradient |  commutator  |   dE (Eh)
MG BCs: +ve charge blocks (gridpoints):     24777 (   16936837).
MG BCs: -ve charge blocks (gridpoints):      8439 (    1080108).
MG BCs:     Elided blocks (gridpoints):    179511 (  181160936).
MG BCs: Computational effort saved:  99.9833%.
MG BCs: Charge after coarse-graining:           -9.0006682.
MG DL_MG: Calling solver with defect correction order = 8
MG DL_MG: Solver finished
MG Hartree energy from (\int phi*rho dr):              1252.563450
MG Hartree energy from (\int eps (grad phi)^2 dr):     1251.919201
MG Discrepancy due to finite box and discretization:     -0.644249 (  -0.05143%)
MG Correction to account for finite box:                  0.461423
MG Remaining discrepancy, due to discretization:         -0.182826 (  -0.01460%)
      ideal mu1:      -0.712862560640
             Q0:  -11687.254447108600
             G0:      -9.757547684717
   RMS gradient:       0.000477558074
MG BCs: +ve charge blocks (gridpoints):     24861 (   16956669).
MG BCs: -ve charge blocks (gridpoints):      8431 (    1074982).
MG BCs:     Elided blocks (gridpoints):    179427 (  181146230).
MG BCs: Computational effort saved:  99.9833%.
MG BCs: Charge after coarse-graining:           -9.0006628.
MG DL_MG: Calling solver with defect correction order = 8
MG DL_MG: Solver finished
MG Hartree energy from (\int phi*rho dr):              1274.582546
MG Hartree energy from (\int eps (grad phi)^2 dr):     1273.930427
MG Discrepancy due to finite box and discretization:     -0.652119 (  -0.05116%)
MG Correction to account for finite box:                  0.461397
MG Remaining discrepancy, due to discretization:         -0.190721 (  -0.01496%)
     Trial step:       0.947243790838
             Q1:  -11683.308985773590
 Quadratic coef:      13.188237793165
 Linear coef   :      -9.242776458156
           Qmin:  -11688.873862037177
Quadratic minimum step length (  0.331930722944) accepted
    Initial Ne1:    7227.99956254
      Final Ne1:    7228.00000000

=================== Penalty functional idempotency correction ==================
 RMS occupancy error at iteration   1:  0.000358 (step -0.4985 Ne1=   7228.0000)
 RMS occupancy error at iteration   2:  0.000000 (step -0.5000 Ne1=   7228.0000)
            Final RMS occupancy error   :  0.000000 (Ne1=   7228.0000)
               Final occupancy bounds   : [  0.0000,  1.0000]
================================================================================

    1        -1.168725444711E+04     4.7756E-04     4.3217E-04
MG BCs: +ve charge blocks (gridpoints):     24804 (   16944018).
MG BCs: -ve charge blocks (gridpoints):      8435 (    1078284).
MG BCs:     Elided blocks (gridpoints):    179484 (  181155579).
MG BCs: Computational effort saved:  99.9833%.
MG BCs: Charge after coarse-graining:           -9.0006662.
MG DL_MG: Calling solver with defect correction order = 8
MG DL_MG: Solver finished
MG Hartree energy from (\int phi*rho dr):              1258.819783
MG Hartree energy from (\int eps (grad phi)^2 dr):     1258.172913
MG Discrepancy due to finite box and discretization:     -0.646870 (  -0.05139%)
MG Correction to account for finite box:                  0.461395
MG Remaining discrepancy, due to discretization:         -0.185475 (  -0.01473%)
      ideal mu1:      -0.719487528823
             Q0:  -11688.831519911415
             G0:      -0.984970038091
   RMS gradient:       0.000153216129
MG BCs: +ve charge blocks (gridpoints):     24805 (   16943845).
MG BCs: -ve charge blocks (gridpoints):      8437 (    1079200).
MG BCs:     Elided blocks (gridpoints):    179483 (  181154836).
MG BCs: Computational effort saved:  99.9833%.
MG BCs: Charge after coarse-graining:           -9.0006661.
MG DL_MG: Calling solver with defect correction order = 8
MG DL_MG: Solver finished
MG Hartree energy from (\int phi*rho dr):              1260.052269
MG Hartree energy from (\int eps (grad phi)^2 dr):     1259.404955
MG Discrepancy due to finite box and discretization:     -0.647313 (  -0.05137%)
MG Correction to account for finite box:                  0.461424
MG Remaining discrepancy, due to discretization:         -0.185889 (  -0.01475%)
     Trial step:       0.560731055228
             Q1:  -11689.016930628452
 Quadratic coef:       0.366892571790
 Linear coef   :      -0.552303288827
           Qmin:  -11689.039372935913
Quadratic minimum step length (  0.422049435941) accepted
    Initial Ne1:    7227.99994273
      Final Ne1:    7228.00000000

=================== Penalty functional idempotency correction ==================
 RMS occupancy error at iteration   1:  0.000142 (step -0.4994 Ne1=   7228.0000)
            Final RMS occupancy error   :  0.000000 (Ne1=   7228.0000)
               Final occupancy bounds   : [ -0.0000,  1.0000]
================================================================================

    2        -1.168883151991E+04     1.5322E-04     1.3865E-04    -1.5771E+00
MG BCs: +ve charge blocks (gridpoints):     24803 (   16943881).
MG BCs: -ve charge blocks (gridpoints):      8437 (    1078970).
MG BCs:     Elided blocks (gridpoints):    179485 (  181155030).
MG BCs: Computational effort saved:  99.9833%.
MG BCs: Charge after coarse-graining:           -9.0006661.
MG DL_MG: Calling solver with defect correction order = 8
MG DL_MG: Solver finished
MG Hartree energy from (\int phi*rho dr):              1259.746600
MG Hartree energy from (\int eps (grad phi)^2 dr):     1259.099400
MG Discrepancy due to finite box and discretization:     -0.647200 (  -0.05138%)
MG Correction to account for finite box:                  0.461417
MG Remaining discrepancy, due to discretization:         -0.185783 (  -0.01475%)
      ideal mu1:      -0.720485100717
             Q0:  -11689.039878044860
             G0:      -0.144496796858
   RMS gradient:       0.000058046098
MG BCs: +ve charge blocks (gridpoints):     24803 (   16943085).
MG BCs: -ve charge blocks (gridpoints):      8437 (    1079471).
MG BCs:     Elided blocks (gridpoints):    179485 (  181155325).
MG BCs: Computational effort saved:  99.9833%.
MG BCs: Charge after coarse-graining:           -9.0006662.
MG DL_MG: Calling solver with defect correction order = 8
MG DL_MG: Solver finished
MG Hartree energy from (\int phi*rho dr):              1259.227243
MG Hartree energy from (\int eps (grad phi)^2 dr):     1258.580059
MG Discrepancy due to finite box and discretization:     -0.647185 (  -0.05140%)
MG Correction to account for finite box:                  0.461424
MG Remaining discrepancy, due to discretization:         -0.185761 (  -0.01475%)
     Trial step:       0.486473252681
             Q1:  -11689.084444282693
 Quadratic coef:       0.025727588936
 Linear coef   :      -0.070293826770
           Qmin:  -11689.087892863641
Quadratic minimum step length (  0.664579697630) accepted
    Initial Ne1:    7228.00061933
      Final Ne1:    7228.00000000

=================== Penalty functional idempotency correction ==================
 RMS occupancy error at iteration   1:  0.000061 (step -0.4998 Ne1=   7228.0000)
            Final RMS occupancy error   :  0.000000 (Ne1=   7228.0000)
               Final occupancy bounds   : [ -0.0000,  1.0000]
================================================================================

    3        -1.168903987804E+04     5.8046E-05     5.2529E-05    -2.0836E-01
MG BCs: +ve charge blocks (gridpoints):     24803 (   16942832).
MG BCs: -ve charge blocks (gridpoints):      8436 (    1079656).
MG BCs:     Elided blocks (gridpoints):    179485 (  181155393).
MG BCs: Computational effort saved:  99.9833%.
MG BCs: Charge after coarse-graining:           -9.0006662.
MG DL_MG: Calling solver with defect correction order = 8
MG DL_MG: Solver finished
MG Hartree energy from (\int phi*rho dr):              1259.037094
MG Hartree energy from (\int eps (grad phi)^2 dr):     1258.389914
MG Discrepancy due to finite box and discretization:     -0.647180 (  -0.05140%)
MG Correction to account for finite box:                  0.461426
MG Remaining discrepancy, due to discretization:         -0.185753 (  -0.01475%)
      ideal mu1:      -0.719488399004
             Q0:  -11689.087978473748
             G0:      -0.035275232411
   RMS gradient:       0.000028672799
MG BCs: +ve charge blocks (gridpoints):     24804 (   16942686).
MG BCs: -ve charge blocks (gridpoints):      8436 (    1079659).
MG BCs:     Elided blocks (gridpoints):    179484 (  181155536).
MG BCs: Computational effort saved:  99.9833%.
MG BCs: Charge after coarse-graining:           -9.0006662.
MG DL_MG: Calling solver with defect correction order = 8
MG DL_MG: Solver finished
MG Hartree energy from (\int phi*rho dr):              1259.082098
MG Hartree energy from (\int eps (grad phi)^2 dr):     1258.435021
MG Discrepancy due to finite box and discretization:     -0.647076 (  -0.05139%)
MG Correction to account for finite box:                  0.461425
MG Remaining discrepancy, due to discretization:         -0.185651 (  -0.01474%)
     Trial step:       0.568594976386
             Q1:  -11689.097094855038
 Quadratic coef:       0.010940938650
 Linear coef   :      -0.020057319940
           Qmin:  -11689.097170922771
Quadratic minimum step length (  0.521184320781) accepted
    Initial Ne1:    7228.00023539
      Final Ne1:    7228.00000000

=================== Penalty functional idempotency correction ==================
 RMS occupancy error at iteration   1:  0.000019 (step -0.4999 Ne1=   7228.0000)
            Final RMS occupancy error   :  0.000000 (Ne1=   7228.0000)
               Final occupancy bounds   : [ -0.0000,  1.0000]
================================================================================

    4        -1.168908797847E+04     2.8673E-05     2.5948E-05    -4.8100E-02
MG BCs: +ve charge blocks (gridpoints):     24804 (   16942689).
MG BCs: -ve charge blocks (gridpoints):      8436 (    1079659).
MG BCs:     Elided blocks (gridpoints):    179484 (  181155533).
MG BCs: Computational effort saved:  99.9833%.
MG BCs: Charge after coarse-graining:           -9.0006662.
MG DL_MG: Calling solver with defect correction order = 8
MG DL_MG: Solver finished
MG Hartree energy from (\int phi*rho dr):              1259.078218
MG Hartree energy from (\int eps (grad phi)^2 dr):     1258.431133
MG Discrepancy due to finite box and discretization:     -0.647085 (  -0.05139%)
MG Correction to account for finite box:                  0.461425
MG Remaining discrepancy, due to discretization:         -0.185660 (  -0.01475%)
      ideal mu1:      -0.719563027596
             Q0:  -11689.097176024690
             G0:      -0.012722781391
   RMS gradient:       0.000017240793
MG BCs: +ve charge blocks (gridpoints):     24804 (   16943246).
MG BCs: -ve charge blocks (gridpoints):      8435 (    1079423).
MG BCs:     Elided blocks (gridpoints):    179484 (  181155212).
MG BCs: Computational effort saved:  99.9833%.
MG BCs: Charge after coarse-graining:           -9.0006661.
MG DL_MG: Calling solver with defect correction order = 8
MG DL_MG: Solver finished
MG Hartree energy from (\int phi*rho dr):              1259.503904
MG Hartree energy from (\int eps (grad phi)^2 dr):     1258.856865
MG Discrepancy due to finite box and discretization:     -0.647040 (  -0.05137%)
MG Correction to account for finite box:                  0.461414
MG Remaining discrepancy, due to discretization:         -0.185626 (  -0.01474%)
     Trial step:       0.544373756318
             Q1:  -11689.100870426628
 Quadratic coef:       0.003231546360
 Linear coef   :      -0.006925948297
           Qmin:  -11689.100887000372
Quadratic minimum step length (  0.583359183311) accepted
    Initial Ne1:    7228.00011196
      Final Ne1:    7228.00000000

=================== Penalty functional idempotency correction ==================
 RMS occupancy error at iteration   1:  0.000011 (step -0.4999 Ne1=   7228.0000)
            Final RMS occupancy error   :  0.000000 (Ne1=   7228.0000)
               Final occupancy bounds   : [ -0.0000,  1.0000]
================================================================================

    5        -1.168909717602E+04     1.7241E-05     1.5602E-05    -9.1976E-03
MG BCs: +ve charge blocks (gridpoints):     24804 (   16943312).
MG BCs: -ve charge blocks (gridpoints):      8435 (    1079396).
MG BCs:     Elided blocks (gridpoints):    179484 (  181155173).
MG BCs: Computational effort saved:  99.9833%.
MG BCs: Charge after coarse-graining:           -9.0006661.
MG DL_MG: Calling solver with defect correction order = 8
MG DL_MG: Solver finished
MG Hartree energy from (\int phi*rho dr):              1259.534419
MG Hartree energy from (\int eps (grad phi)^2 dr):     1258.887382
MG Discrepancy due to finite box and discretization:     -0.647036 (  -0.05137%)
MG Correction to account for finite box:                  0.461413
MG Remaining discrepancy, due to discretization:         -0.185624 (  -0.01474%)
      ideal mu1:      -0.719908737204
             Q0:  -11689.100888293935
             G0:      -0.004618710865
   RMS gradient:       0.000010388081
MG BCs: +ve charge blocks (gridpoints):     24805 (   16943268).
MG BCs: -ve charge blocks (gridpoints):      8435 (    1079440).
MG BCs:     Elided blocks (gridpoints):    179483 (  181155173).
MG BCs: Computational effort saved:  99.9833%.
MG BCs: Charge after coarse-graining:           -9.0006661.
MG DL_MG: Calling solver with defect correction order = 8
MG DL_MG: Solver finished
MG Hartree energy from (\int phi*rho dr):              1259.478307
MG Hartree energy from (\int eps (grad phi)^2 dr):     1258.831282
MG Discrepancy due to finite box and discretization:     -0.647025 (  -0.05137%)
MG Correction to account for finite box:                  0.461406
MG Remaining discrepancy, due to discretization:         -0.185619 (  -0.01474%)
     Trial step:       0.563529440138
             Q1:  -11689.102571935975
 Quadratic coef:       0.000919137508
 Linear coef   :      -0.002602779548
           Qmin:  -11689.102730907613
Quadratic minimum step length (  0.797890896651) accepted
    Initial Ne1:    7228.00007620
      Final Ne1:    7228.00000000

=================== Penalty functional idempotency correction ==================
 RMS occupancy error at iteration   1:  0.000011 (step -0.4998 Ne1=   7228.0000)
            Final RMS occupancy error   :  0.000000 (Ne1=   7228.0000)
               Final occupancy bounds   : [ -0.0000,  1.0000]
================================================================================

    6        -1.168910088829E+04     1.0388E-05     9.4007E-06    -3.7123E-03
MG BCs: +ve charge blocks (gridpoints):     24805 (   16943257).
MG BCs: -ve charge blocks (gridpoints):      8435 (    1079454).
MG BCs:     Elided blocks (gridpoints):    179483 (  181155170).
MG BCs: Computational effort saved:  99.9833%.
MG BCs: Charge after coarse-graining:           -9.0006661.
MG DL_MG: Calling solver with defect correction order = 8
MG DL_MG: Solver finished
MG Hartree energy from (\int phi*rho dr):              1259.454860
MG Hartree energy from (\int eps (grad phi)^2 dr):     1258.807840
MG Discrepancy due to finite box and discretization:     -0.647020 (  -0.05137%)
MG Correction to account for finite box:                  0.461402
MG Remaining discrepancy, due to discretization:         -0.185617 (  -0.01474%)
      ideal mu1:      -0.719822181919
             Q0:  -11689.102730732178
             G0:      -0.003234767405
   RMS gradient:       0.000008695156
MG BCs: +ve charge blocks (gridpoints):     24804 (   16942979).
MG BCs: -ve charge blocks (gridpoints):      8435 (    1079549).
MG BCs:     Elided blocks (gridpoints):    179484 (  181155353).
MG BCs: Computational effort saved:  99.9833%.
MG BCs: Charge after coarse-graining:           -9.0006661.
MG DL_MG: Calling solver with defect correction order = 8
MG DL_MG: Solver finished
MG Hartree energy from (\int phi*rho dr):              1259.342753
MG Hartree energy from (\int eps (grad phi)^2 dr):     1258.695720
MG Discrepancy due to finite box and discretization:     -0.647033 (  -0.05138%)
MG Correction to account for finite box:                  0.461403
MG Remaining discrepancy, due to discretization:         -0.185630 (  -0.01474%)
     Trial step:       0.670548290789
             Q1:  -11689.103418655694
 Quadratic coef:       0.001481144240
 Linear coef   :      -0.002169067755
           Qmin:  -11689.103524857221
Quadratic minimum step length (  0.490993596893) accepted
    Initial Ne1:    7228.00003564
      Final Ne1:    7228.00000000

=================== Penalty functional idempotency correction ==================
 RMS occupancy error at iteration   1:  0.000001 (step -0.5000 Ne1=   7228.0000)
            Final RMS occupancy error   :  0.000000 (Ne1=   7228.0000)
               Final occupancy bounds   : [  0.0000,  1.0000]
================================================================================

    7        -1.168910273073E+04     8.6952E-06     7.8687E-06    -1.8424E-03
MG BCs: +ve charge blocks (gridpoints):     24804 (   16943060).
MG BCs: -ve charge blocks (gridpoints):      8435 (    1079522).
MG BCs:     Elided blocks (gridpoints):    179484 (  181155299).
MG BCs: Computational effort saved:  99.9833%.
MG BCs: Charge after coarse-graining:           -9.0006661.
MG DL_MG: Calling solver with defect correction order = 8
MG DL_MG: Solver finished
MG Hartree energy from (\int phi*rho dr):              1259.372688
MG Hartree energy from (\int eps (grad phi)^2 dr):     1258.725658
MG Discrepancy due to finite box and discretization:     -0.647030 (  -0.05138%)
MG Correction to account for finite box:                  0.461403
MG Remaining discrepancy, due to discretization:         -0.185627 (  -0.01474%)
      ideal mu1:      -0.719733820927
             Q0:  -11689.103524864768
             G0:      -0.002077548545
   RMS gradient:       0.000006968406
MG BCs: +ve charge blocks (gridpoints):     24804 (   16943006).
MG BCs: -ve charge blocks (gridpoints):      8435 (    1079539).
MG BCs:     Elided blocks (gridpoints):    179484 (  181155336).
MG BCs: Computational effort saved:  99.9833%.
MG BCs: Charge after coarse-graining:           -9.0006661.
MG DL_MG: Calling solver with defect correction order = 8
MG DL_MG: Solver finished
MG Hartree energy from (\int phi*rho dr):              1259.318745
MG Hartree energy from (\int eps (grad phi)^2 dr):     1258.671709
MG Discrepancy due to finite box and discretization:     -0.647036 (  -0.05138%)
MG Correction to account for finite box:                  0.461400
MG Remaining discrepancy, due to discretization:         -0.185636 (  -0.01474%)
     Trial step:       0.573789959118
             Q1:  -11689.104461724986
 Quadratic coef:       0.000255216277
 Linear coef   :      -0.001192076495
           Qmin:  -11689.104916866863
Quadratic minimum step length (  1.340042907367) accepted
    Initial Ne1:    7228.00006231
      Final Ne1:    7228.00000000

=================== Penalty functional idempotency correction ==================
 RMS occupancy error at iteration   1:  0.000017 (step -0.4991 Ne1=   7228.0000)
            Final RMS occupancy error   :  0.000000 (Ne1=   7228.0000)
               Final occupancy bounds   : [ -0.0000,  1.0000]
[...]
MG Hartree energy from (\int eps (grad phi)^2 dr):     1216.518348
MG Discrepancy due to finite box and discretization:     -0.191196 (  -0.01571%)
MG Correction to account for finite box:                  0.006334
MG Remaining discrepancy, due to discretization:         -0.184862 (  -0.01519%)
             Q2:  -11723.512916617794
  Cubic LS coeff:       0.978193940617
Predicted energy:  -11723.512916617832
Cubic minimum step length accepted
    Initial Ne1:    7228.00000000
      Final Ne1:    7228.00000000

=================== Penalty functional idempotency correction ==================
 RMS occupancy error at iteration   1:  0.000000 (step -0.5000 Ne1=   7228.0000)
            Final RMS occupancy error   :  0.000000 (Ne1=   7228.0000)
               Final occupancy bounds   : [  0.0000,  1.0000]
================================================================================

    7        -1.172351291661E+04     9.3709E-09     8.4803E-09    -2.6776E-09

Reusing previously generated solute cavity.
MG BCs: +ve charge blocks (gridpoints):     29274 (   19159762).
MG BCs: -ve charge blocks (gridpoints):      8454 (    1048339).
MG BCs:     Elided blocks (gridpoints):    175014 (  178969780).
MG BCs: Computational effort saved:  99.9811%.
MG BCs: Charge after coarse-graining:           -9.0009445.
MG DL_MG: Calling solver with defect correction order = 8
MG DL_MG: Solver finished
MG Hartree energy from (\int phi*rho dr):              1216.709542
MG Hartree energy from (\int eps (grad phi)^2 dr):     1216.518346
MG Discrepancy due to finite box and discretization:     -0.191196 (  -0.01571%)
MG Correction to account for finite box:                  0.006334
MG Remaining discrepancy, due to discretization:         -0.184862 (  -0.01519%)
      ideal mu1:      -0.480077202226
             Q0:  -11723.512916617678
             G0:      -0.000000004719
   RMS gradient:       0.000000011927

Reusing previously generated solute cavity.
MG BCs: +ve charge blocks (gridpoints):     29274 (   19159761).
MG BCs: -ve charge blocks (gridpoints):      8454 (    1048339).
MG BCs:     Elided blocks (gridpoints):    175014 (  178969781).
MG BCs: Computational effort saved:  99.9811%.
MG BCs: Charge after coarse-graining:           -9.0009445.
MG DL_MG: Calling solver with defect correction order = 8
MG DL_MG: Solver finished
MG Hartree energy from (\int phi*rho dr):              1216.709513
MG Hartree energy from (\int eps (grad phi)^2 dr):     1216.518317
MG Discrepancy due to finite box and discretization:     -0.191196 (  -0.01571%)
MG Correction to account for finite box:                  0.006334
MG Remaining discrepancy, due to discretization:         -0.184862 (  -0.01519%)
     Trial step:       0.711790735674
             Q1:  -11723.512916619657
 Quadratic coef:       0.000000001381
 Linear coef   :      -0.000000003359
           Qmin:  -11723.512916619720
Quadratic minimum step length (  0.865845100180) accepted
    Initial Ne1:    7228.00000000
      Final Ne1:    7228.00000000

=================== Penalty functional idempotency correction ==================
 RMS occupancy error at iteration   1:  0.000000 (step -0.5000 Ne1=   7228.0000)
            Final RMS occupancy error   :  0.000000 (Ne1=   7228.0000)
               Final occupancy bounds   : [ -0.0000,  1.0000]
================================================================================

    8        -1.172351291662E+04     1.1927E-08     1.0794E-08    -4.1910E-09

Reusing previously generated solute cavity.
MG BCs: +ve charge blocks (gridpoints):     29274 (   19159761).
MG BCs: -ve charge blocks (gridpoints):      8454 (    1048339).
MG BCs:     Elided blocks (gridpoints):    175014 (  178969781).
MG BCs: Computational effort saved:  99.9811%.
MG BCs: Charge after coarse-graining:           -9.0009445.
MG DL_MG: Calling solver with defect correction order = 8
MG DL_MG: Solver finished
MG Hartree energy from (\int phi*rho dr):              1216.709507
MG Hartree energy from (\int eps (grad phi)^2 dr):     1216.518311
MG Discrepancy due to finite box and discretization:     -0.191196 (  -0.01571%)
MG Correction to account for finite box:                  0.006334
MG Remaining discrepancy, due to discretization:         -0.184862 (  -0.01519%)
      ideal mu1:      -0.480077156014
             Q0:  -11723.512916619773
             G0:      -0.000000003553
   RMS gradient:       0.000000008764

Reusing previously generated solute cavity.
MG BCs: +ve charge blocks (gridpoints):     29274 (   19159760).
MG BCs: -ve charge blocks (gridpoints):      8454 (    1048339).
MG BCs:     Elided blocks (gridpoints):    175014 (  178969782).
MG BCs: Computational effort saved:  99.9811%.
MG BCs: Charge after coarse-graining:           -9.0009445.
MG DL_MG: Calling solver with defect correction order = 8
MG DL_MG: Solver finished
MG Hartree energy from (\int phi*rho dr):              1216.709466
MG Hartree energy from (\int eps (grad phi)^2 dr):     1216.518270
MG Discrepancy due to finite box and discretization:     -0.191196 (  -0.01571%)
MG Correction to account for finite box:                  0.006334
MG Remaining discrepancy, due to discretization:         -0.184862 (  -0.01519%)
     Trial step:       0.785048100970
             Q1:  -11723.512916618725
 Quadratic coef:       0.000000003836
 Linear coef   :      -0.000000002789
           Qmin:  -11723.512916620281
Quadratic minimum step length (  0.285384877919) accepted
    Initial Ne1:    7228.00000000
      Final Ne1:    7228.00000000

=================== Penalty functional idempotency correction ==================
 RMS occupancy error at iteration   1:  0.000000 (step -0.5000 Ne1=   7228.0000)
            Final RMS occupancy error   :  0.000000 (Ne1=   7228.0000)
               Final occupancy bounds   : [  0.0000,  1.0000]
================================================================================

    9        -1.172351291662E+04     8.7640E-09     7.9310E-09    -2.0955E-09

Reusing previously generated solute cavity.
MG BCs: +ve charge blocks (gridpoints):     29274 (   19159761).
MG BCs: -ve charge blocks (gridpoints):      8454 (    1048339).
MG BCs:     Elided blocks (gridpoints):    175014 (  178969781).
MG BCs: Computational effort saved:  99.9811%.
MG BCs: Charge after coarse-graining:           -9.0009445.
MG DL_MG: Calling solver with defect correction order = 8
MG DL_MG: Solver finished
MG Hartree energy from (\int phi*rho dr):              1216.709492
MG Hartree energy from (\int eps (grad phi)^2 dr):     1216.518296
MG Discrepancy due to finite box and discretization:     -0.191196 (  -0.01571%)
MG Correction to account for finite box:                  0.006334
MG Remaining discrepancy, due to discretization:         -0.184862 (  -0.01519%)
      ideal mu1:      -0.480077143032
   10        -1.172351291662E+04     5.3711E-09     4.8606E-09    -1.1642E-10
Finished density kernel iterations (  10)


>>> Density kernel optimised for the current NGWF basis:
     ~~~~~~~~~~~~~~~~~~~~~~~~~~~~~~~~~~~~~~~~~~~~~~~~~~~~~~~~~~~
     Total energy                =  -1.17235129166199E+04  Eh
     Estimated bandgap           =   8.9550E-02  Eh
     RMS occupancy error         =   3.4977E-16
     [H,K] commutator            =   4.8606E-09
     Occupancy bounds            = [  0.000:  1.000]
     ~~~~~~~~~~~~~~~~~~~~~~~~~~~~~~~~~~~~~~~~~~~~~~~~~~~~~~~~~~~




################################################################################
########################### NGWF CG iteration  004 #############################
################################################################################
****** Reciprocal space K.E. preconditioning with k_zero =  3.5000 a0^-1 *******

>>> Checking for convergence of NGWFs: 
           ........................................................
           |         *** NGWF optimisation converged ***          |
           | RMS NGWF gradient =    0.00000199771739              |
           | Criteria satisfied:                                  |
           | -> RMS NGWF gradient lower than set threshold.       |
           ========================================================

Reusing previously generated solute cavity.
MG BCs: +ve charge blocks (gridpoints):     29274 (   19159761).
MG BCs: -ve charge blocks (gridpoints):      8454 (    1048339).
MG BCs:     Elided blocks (gridpoints):    175014 (  178969781).
MG BCs: Computational effort saved:  99.9811%.
MG BCs: Charge after coarse-graining:           -9.0009445.
MG DL_MG: Calling solver with defect correction order = 8
MG DL_MG: Solver finished
MG Hartree energy from (\int phi*rho dr):              1216.709492
MG Hartree energy from (\int eps (grad phi)^2 dr):     1216.518296
MG Discrepancy due to finite box and discretization:     -0.191196 (  -0.01571%)
MG Correction to account for finite box:                  0.006334
MG Remaining discrepancy, due to discretization:         -0.184862 (  -0.01519%)

================================================================================
           ---------------- ENERGY COMPONENTS (Eh) ----------------
           | Kinetic                    :     8560.20817769082350 |
           | Pseudo. (local,OBC,corr'd) :    -5065.08694239213401 |
           | Pseudopotential (non-local):     1408.43750675435831 |
           | Hartree (molecular)        :     1216.70949208997968 |
           | Exchange-correlation       :    -3372.20234182619879 |
           | Ion-ion (open BC)          :   836050.06489364476874 |
           | Dispersion Correction      :       -3.30977753571701 |
           | Smeared ion non-self corr. :  -836001.97649511101190 |
           | Smeared ion self corr.     :   -14517.01090595763344 |
           | Solvent cavitation energy  :        2.32491691871922 |
           | Solute-solvent dis-rep en. :       -1.67144089579021 |
           | Total                      :   -11723.51291661982941 |
           --------------------------------------------------------
           ------ LOCAL ENERGY COMPONENTS FROM MATRIX TRACES ------
           | Pseudopotential (local)    :    -5065.08694239214583 |
           | Hartree                    :    -1996.65250246866071 |
           --------------------------------------------------------
           Integrated density           :     7227.99999999895226
           Integrated density tr(KS)    :     7227.99999999999909
================================================================================


                        <<<<< CALCULATION SUMMARY >>>>>                         
|ITER|    RMS GRADIENT   |     TOTAL ENERGY    |   step   |     Epredicted              
   0     0.00004075891196 -11723.44755574164446   0.626092 -11723.50412048379258        
   1     0.00000978936039 -11723.51238898164593   0.084090 -11723.51282722351607        
   2     0.00000439607560 -11723.51289748167619   0.015939 -11723.51291423354814        
   3     0.00000199771739 -11723.51291661988944  <-- CG                                 

=================== Finished the calculation in solvent ========================
= Adjusting the following parameters: 
= read_denskern: F
= read_tightbox_ngwfs: F
= maxit_pen: 0 (restored to user-specified value)
= restart read filename prefix: ""
= restart write filename prefix: ""
================================================================================

================================================================================
IS: Calculation in solvent completed (NGWFs converged).      

Individual components of total energy in solvent:     hartree           kcal/mol
- Usual non-electrostatic DFT terms:    -12940.87588473279720    -8120522.044169
- Electrostatic fixed charge energy:      1216.70949208997968      763496.716905
- Apolar cavitation energy:                  2.32491691871922        1458.907361
- Apolar dispersion-repulsion energy:       -1.67144089579021       -1048.844975
 -------------------------------------------------------------------------------
- Total energy in solvent:              -11723.51291661988944    -7356615.264878

Components of total energy in solvent:                hartree           kcal/mol
- Usual non-electrostatic DFT terms:    -12940.87588473279720    -8120522.044169
- Electrostatic energy:                   1216.70949208997968      763496.716905
- Apolar energy terms:                       0.65347602292900         410.062387
 -------------------------------------------------------------------------------
- Total energy in solvent:              -11723.51291661988944    -7356615.264878

Calculation of free energy of solvation:              hartree           kcal/mol
- Total energy in solvent:         (+)  -11723.51291661988944    -7356615.264878
- Total energy in vacuum:          (-)  -11719.51930117944721    -7354109.233407
 -------------------------------------------------------------------------------
- Total free energy of solvation:           -3.99361544044223       -2506.031470

Components of polar term in f.e. of solvation:        hartree           kcal/mol
- Electrostatic:                            -4.83713485703106       -3035.347884
- Change in nonelectrostatic DFT terms:      0.19004339366074         119.254027
 -------------------------------------------------------------------------------
- Polar term in f.e. of solvation:          -4.64709146337032       -2916.093857

Components of free energy of solvation:               hartree           kcal/mol
- Polar term in f.e. of solvation: (+)      -4.64709146337032       -2916.093857
- Apolar (cavitation, dis., rep.): (+)       0.65347602292900         410.062387
 -------------------------------------------------------------------------------
- Total free energy of solvation:           -3.99361544044131       -2506.031470
================================================================================


------------------------------ TIMING INFORMATION ------------------------------
AVERAGE TIME:   29405.073s on     60 node(s)                                    
TOTAL TIME:     29407.084s on     60 node(s)                                    
================= AVERAGE TIMINGS FROM ALL NODES (CUMULATIVE) ==================
|| TAG                                    #calls    cpu time   %total  Gflops ||
|| work_imbalance                       :     1        0.00s   0.000%  ------ ||
|| sparse_set_to_garbage                :   164        0.03s   0.000%  ------ ||
|| parallel_prepare_fd_halos_request    :  1827        0.03s   0.000%  ------ ||
|| ngwfs_initialise_from_radial         :     1        0.11s   0.000%  ------ ||
|| basis_extract_function_from_box      :  3379        0.15s   0.001%  ------ ||
|| parallel_prepare_fd_halos_satisfy    :  1827        0.61s   0.002%  ------ ||
|| parallel_prepare_fd_halos_alloc      :  1827        1.33s   0.005%  ------ ||
|| pseudopotentials_nonlocal_mat        :    28        1.72s   0.006%  ------ ||
|| restart_kernel_read                  :     1        4.32s   0.015%  ------ ||
|| openbc_locps_radial                  :     1        5.11s   0.017%  ------ ||
|| restart_ngwfs_tightbox_input         :     1        7.17s   0.024%  ------ ||
|| parallel_prepare_fd_halos_comms_imbal:  1827        9.13s   0.031%  ------ ||
|| density_init_guess_real              :     1       12.31s   0.042%  ------ ||
|| parallel_prepare_fd_halos_clear      :  1827       19.16s   0.065%  ------ ||
|| sparse_init                          :     2       23.09s   0.079%  ------ ||
|| projectors_func_ovlp_box             :    28       24.86s   0.085%  ------ ||
|| parallel_prepare_fd_halos_comms_wait :  1827       26.68s   0.091%  ------ ||
|| function_ops_brappd_ketppd           :    28       29.28s   0.100%  ------ ||
|| projectors_init_fftbox_recip         :   133       29.57s   0.101%  ------ ||
|| basis_copy_function_to_box           : 54508       38.46s   0.131%  ------ ||
|| palser_mano_kernel_optimise          :     1       44.60s   0.152%  ------ ||
|| ngwf_gradient_coeffs                 :    15       45.96s   0.156%  ------ ||
|| fourier_apply_box_pair               :  4810       49.62s   0.169% 561.285 ||
|| parallel_prepare_fd_halos            :  1827       56.95s   0.194%  ------ ||
|| pseudo_make_structure_factor         :     2       59.12s   0.201%  ------ ||
|| restart_kernel_write                 :    12       66.93s   0.228%  ------ ||
|| sparse_embed_hotelling_invert_embed  :    28       74.19s   0.252%  ------ ||
|| finite_difference_derivative         :  1827      137.80s   0.469%  ------ ||
|| projectors_gradient_batch            :   105      140.22s   0.477%  ------ ||
|| integrals_kinetic                    :    28      141.16s   0.480%  ------ ||
|| basis_dot_function_with_box          : 8.410M     168.01s   0.571%  ------ ||
|| sparse_trace                         :  4828      173.21s   0.589%  ------ ||
|| fourier_apply_cell_backward          :  1219      194.90s   0.663%  88.718 ||
|| fourier_apply_cell_forward           :  1217      217.61s   0.740%  79.331 ||
|| kernel_purify                        :   464      274.15s   0.932%  ------ ||
|| openbc_locps_on_grid                 :     2      275.63s   0.937%  ------ ||
|| basis_add_function_to_box            : 17.49M     402.51s   1.369%  ------ ||
|| lnv_gradient_norm                    :   150      403.25s   1.371%  ------ ||
|| kernel_fix                           :   150      458.60s   1.560%  ------ ||
|| xc_energy_potential                  :   304      474.46s   1.614%  ------ ||
|| hamiltonian_energy_components        :     4      494.93s   1.683%  ------ ||
|| restart_ngwfs_tightbox_output        :    10      707.96s   2.408%  ------ ||
|| ngwf_gradient_build_batch            :   105      717.41s   2.440%  ------ ||
|| integrals_locpot_mat_els_batch       :  1113      730.27s   2.483%  ------ ||
|| ngwf_gradient_batch                  :   105     1010.24s   3.436%  ------ ||
|| density_batch_row_sums               :  2121     1062.49s   3.613%  ------ ||
|| ngwf_gradient_lnv                    :    15     1151.68s   3.917%  ------ ||
|| cell_grid_deposit_box_real           : 35200     1346.57s   4.579%  ------ ||
|| cell_grid_extract_box_real           : 38596     1473.35s   5.011%  ------ ||
|| sparse_product                       :  6187     1713.06s   5.826%  ------ ||
|| density_fftbox_deposit_to_cell       : 33330     1953.04s   6.642%  ------ ||
|| density_fftbox_interpolate_multiply  : 33330     3399.46s  11.561%  ------ ||
|| potential_apply_to_ngwf_batch        :  1113     3508.07s  11.930%  ------ ||
|| fourier_apply_box                    : 114.7k    4209.52s  14.316% 764.823 ||
|| integrals_locpot_dbl_grid            :   159     4255.88s  14.473%  ------ ||
|| multigrid_prepare_bound_cond         :   304     4354.37s  14.808%  ------ ||
|| density_batch_interp_deposit         :  2121     6258.04s  21.282%  ------ ||
|| dl_mg_solver_calls                   :   304     7165.88s  24.370%  ------ ||
|| density_on_dbl_grid                  :   303     7687.02s  26.142%  ------ ||
|| multigrid_calculate_hartree          :   304    11712.10s  39.830%  ------ ||
|| hamiltonian_lhxc_calculate           :   299    19784.76s  67.283%  ------ ||
|| lnv_denskernel_optimise_cg           :    15    24799.79s  84.338%  ------ ||
|| ngwf_cg_optimise                     :     2    28383.32s  96.525%  ------ ||
|| total_time                           :     1    29405.07s 100.000%  ------ ||
================================================================================
Overhead of generating timer report: 
- 0 ms averaging over threads,
- 15 ms ensuring consistency across MPI ranks,
- 0 ms printing in order.

Job completed: 23-06-2020 04:19 (+0100)

Application 40912180 network throttled: 10 nodes throttled, 00:03:20 node-seconds
Application 40912180 resources: utime ~6229074s, stime ~199939s, Rss ~3692972, inblocks ~303445868, outblocks ~48678409
