 +---------------------------------------------------------------+
 |                                                               |
 |        ####### #     # ####### ####### ####### ######         |
 |        #     # ##    # #          #    #       #     #        |
 |        #     # # #   # #          #    #       #     #        |
 |        #     # #  #  # #####      #    #####   ######         |
 |        #     # #   # # #          #    #       #              |
 |        #     # #    ## #          #    #       #              |
 |        ####### #     # #######    #    ####### #              |
 |                                                               |
 |        Linear-Scaling Ab Initio Total Energy Program          |
 |                                                               |
 |          Release for academic collaborators of ODG            |
 |                                             Version 5.3.2.6.  |
 |                                                               |
 +---------------------------------------------------------------+
 |                                                               |
 |  Authors:                                                     |
 |  Jacek Dziedzic, Peter D. Haynes, Nicholas D. M. Hine,        |
 |  Arash. A. Mostofi, Mike C. Payne and Chris-Kriton Skylaris   |
 |                                                               |
 |  Contributors:                                                |
 |  J. Aarons, L. Andrinopoulos, P. W. Avraam, R. A. Bell,       |
 |  A. Bhandari, G. A. Bramley, R. J. Charlton, S. J. Clark,     |
 |  R. J. Clements, G. C. Constantinescu, F. Corsetti,           |
 |  N. Corsini, O. Dieguez, S. M. M. Dubois, K. K. B. Duff,      |
 |  J. M. Escartin, A. Greco, H. Helal, Q. O. Hill, L. P. Lee,   |
 |  J.-H. Li, E. B. Linscott, G. Moynihan, D. D. O`Regan,        |
 |  O. K. Okan, M. J. S. Phipps, C. J. Pickard,                  |
 |  J. C. A. Prentice, M. I. J. Probert, L. E. Ratcliff,         |
 |  M. Robinson, A. Ruiz Serrano, J. S. Spencer, E. W. Tait,     |
 |  G. Teobaldi, D. Turban, V. Vitale, K. A. Wilkinson,          |
 |  C. Weber, J. C. Womack, N. Yeung and T. J. Zuehlsdorff       |
 |                                                               |
 |                                   Copyright (c) 2004-2019     |
 |                                                               |
 |  Please cite:                                                 |
 |  "Introducing ONETEP: Linear-scaling density functional       |
 |   simulations on parallel computers".                         |
 |   C.-K. Skylaris, P. D. Haynes, A. A. Mostofi, M. C. Payne.   |
 |   J. Chem. Phys. 122 084119 (2005).                           |
 |                                                               |
 |          in all publications arising from your use of ONETEP. |
 |                                                               |
 +---------------------------------------------------------------+
 |                                                               |
 |   ONETEP is based on developments described in the following  |
 |   publications:                                               |
 |                                                               |
 |  "Nonorthogonal generalized Wannier function pseudopotential  |
 |   plane-wave method".                                         |
 |   C.-K. Skylaris, A. A. Mostofi, P. D. Haynes, O. Dieguez,    |
 |   M. C. Payne.                                                |
 |   Phys. Rev. B 66 035119 (2002).                              |
 |                                                               |
 |  "Preconditioned iterative minimization for linear-scaling    |
 |   electronic structure calculations".                         |
 |   A. A. Mostofi, P. D. Haynes, C.-K. Skylaris, M. C. Payne.   |
 |   J. Chem. Phys. 119(17), pp.8842-8848 (2003).                |
 |                                                               |
 |  "Total-energy calculations on a real space grid with         |
 |   localized functions and a plane-wave basis".                |
 |   A. A. Mostofi, C.-K. Skylaris, P. D. Haynes, M. C. Payne.   |
 |   Comput. Phys. Commun. 147, pp.788-802 (2002).               |
 |                                                               |
 |  "Accurate kinetic energy evaluation in electronic structure  |
 |   calculations with localized functions on real space grids"  |
 |   C.-K. Skylaris, A. A. Mostofi, P. D. Haynes, C. J. Pickard, |
 |   M. C. Payne.                                                |
 |   Comput. Phys. Commun. 140, pp.315-322 (2001).               |
 |                                                               |
 |  "Accurate ionic forces and geometry optimization in linear-  |
 |   scaling density-functional theory with local orbitals"      |
 |   N. D. M. Hine, M. Robinson, P. D. Haynes, C.-K. Skylaris,   |
 |   M. C. Payne, and A. A. Mostofi.                             |
 |   Phys. Rev. B 83 195102 (2011).                              |
 |                                                               |
 +---------------------------------------------------------------+

Job started: 10-06-2020 09:10 (+0100)
 
Reading parameters from file "complex_8841.dat" ...... done

If your calculation crashes here, before "Checking processes and threads..."
is displayed, then your stack size is insufficient.
If so, use "ulimit -s unlimited" at runtime.
You can disable this check with "check_stack_size F".

Checking processes and threads...
   Determining the default number of threads...
      No default threads set at compilation time: defaulting to 1.
      OpenMP library call suggests 4 threads.
      Hybrid MPI-OpenMP compilation detected.
      Number of MPI processes > 1.
      OMP_NUM_THREADS environment variable present and
      its value matches the one obtained from the OpenMP library call.
      Using this value as default.
      Default threads: 4
      Default applies to threads_max and threads_num_fftboxes.
      Settings in the input file override this default.
   ... done

   Running with 60 MPI processes.
   There are 6 MPI processes running on the same node as the root process.
   Each MPI process is using: 
               1 threads for simulation cell FFTs.
               1 threads for parallel FFT box operations.
               4 threads for loops over batched FFT box operations.
               4 threads in other parallel regions.
... done

Basic input checks...... done

Reading geometry and species blocks from file "complex_8841.dat" ...
  <species_atomic_set> block not found: NGWF initialisation set to SOLVE
IS: Dielectric excluded regions:
    - NONE.
    
  Number of PPD points along a3 set to 1.  This is 
  the default value, it may have been provided also in the input file.
... done
 Writing xyz coordinates to file "complex_8841.xyz" ... done


--------------------------------------------------------------------------------
---------------------------------- INPUT FILE ----------------------------------
--------------------------------------------------------------------------------

cutoff_energy       : 800 eV                                                    
xc_functional PBE                                                               
task SINGLEPOINT                                                                
write_xyz true                                                                  
output_detail VERBOSE                                                           
ngwf_threshold_orig : 0.000002                                                  
kernel_cutoff       : 1000                                                      
k_zero              : 3.5                                                       
elec_cg_max 0                                                                   
occ_mix 1.0                                                                     
dispersion 1                                                                    
maxit_ngwf_cg 40                                                                
minit_lnv 10                                                                    
maxit_lnv 10                                                                    
write_denskern F                                                                
write_tightbox_ngwfs F                                                          
charge 9                                                                        
is_implicit_solvent T                                                           
is_auto_solvation T                                                             
is_include_apolar T                                                             
is_smeared_ion_rep T                                                            
is_solvent_surf_tension 4.7624E-5 Ha/bohr**2                                    
is_apolar_scaling_factor 0.281075                                               
is_solvation_beta 1.3                                                           
is_density_threshold 0.00035                                                    
is_bulk_permittivity 78.54                                                      
is_dielectric_model fix_initial                                                 
is_smeared_ion_width 0.8                                                        
mg_defco_fd_order 8                                                             
is_bc_coarseness 10                                                             
is_bc_surface_coarseness 1                                                      
fine_grid_scale 2.0                                                             
%block species                                                                  
N   N   7 4 8.0                                                                 
H   H   1 1 8.0                                                                 
C   C   6 4 8.0                                                                 
S   S  16 9 8.0                                                                 
O   O   8 4 8.0                                                                 
%endblock species                                                               
%block species_pot                                                              
N   N_00.recpot                                                                 
H   H_04.recpot                                                                 
C   C_01.recpot                                                                 
S   S_00.recpot                                                                 
O   O_02.recpot                                                                 
%endblock species_pot                                                           
%block lattice_cart                                                             
140.777   0.000   0.000                                                         
0.000 144.511   0.000                                                           
0.000   0.000   162.462                                                         
%endblock lattice_cart                                                          
%block positions_abs                                                            
     Hash =  -000000789541994547944774
%endblock positions_abs                                                         

--------------------------------------------------------------------------------
-------------------------------- END INPUT FILE --------------------------------
--------------------------------------------------------------------------------


 
 ESDF WARNING(1): "kernelcutoff" (esdf_physical) has no units. Assume "bohr".
 ESDF WARNING(2): "kzero" (esdf_physical) has no units. Assume "1/bohr".
 ESDF WARNING(3
 ): "issmearedionwidth" (esdf_physical) has no units. Assume "bohr".
<<<<<<<<<<<<<<<<<<<<<<<<<<<<<<<<< Full system >>>>>>>>>>>>>>>>>>>>>>>>>>>>>>>>>>
<<<<<<<<<<<<<<<<<<<<<<<<< Pseudopotential information >>>>>>>>>>>>>>>>>>>>>>>>>>
File: N_00.recpot [ 2001 points up to Gmax=  52.9 (1/bohr)]
  Atomic number:  7;  ionic charge:  5.000000
    Shell 1: l = 0; rc = 1.48 bohr
File: H_04.recpot [ 2001 points up to Gmax=  52.9 (1/bohr)]
  Atomic number:  1;  ionic charge:  1.000000
    Local potential
File: C_01.recpot [ 2001 points up to Gmax=  52.9 (1/bohr)]
  Atomic number:  6;  ionic charge:  4.000000
    Shell 1: l = 0; rc = 1.48 bohr
File: S_00.recpot [ 2001 points up to Gmax=  52.9 (1/bohr)]
  Atomic number: 16;  ionic charge:  6.000000
    Shell 1: l = 0; rc = 1.90 bohr
    Shell 2: l = 2; rc = 1.84 bohr
File: O_02.recpot [ 2001 points up to Gmax=  52.9 (1/bohr)]
  Atomic number:  8;  ionic charge:  6.000000
    Shell 1: l = 0; rc = 1.31 bohr
<<<<<<<<<<<<<<<<<<<<<<<<<<<<<<<<<<<<<<<<>>>>>>>>>>>>>>>>>>>>>>>>>>>>>>>>>>>>>>>>

-------------------------- Atom counting information ---------------------------
Symbol    Natoms    Nngwfs    Nprojs
  N        236       944       236
  H       1319      1319         0
  C        817      3268       817
  S          6        54        36
  O        239       956       239
.......   ......    ......    ......
Totals:   2617      6541      1328
--------------------------------------------------------------------------------

=============================== PSINC grid sizes ===============================
                      Simulation cell:  280 x 286 x 320
                              FFT-box:   99 x  99 x  99
                                  PPD:    5 x  11 x   1
Grid space d1=  0.502775000000a0 (KE cutoff=  30.05084Eh = 817.72503eV)
Grid space d2=  0.505283216783a0 (KE cutoff=  29.75324Eh = 809.62684eV)
Grid space d3=  0.507693750000a0 (KE cutoff=  29.47137Eh = 801.95686eV)
================================================================================

********************* Fourier parallelisation information **********************
       Coarse grid (whole simulation cell) dimensions:    280   286   320
          Real-space ('12') slabs/node (min max mean):      5     6     5
         Recip-space ('23') slabs/node (min max mean):      2     3     2
********************************************************************************

********************* Fourier parallelisation information **********************
       Double grid (whole simulation cell) dimensions:    560   572   640
          Real-space ('12') slabs/node (min max mean):     10    11    10
         Recip-space ('23') slabs/node (min max mean):      4     5     4
********************************************************************************
ONETEP fine grid is 560 x 572 x 640 gridpoints, 140.7770 x 144.5110 x 162.4620 bohr.
FD multigrid is     553 x 569 x 633 gridpoints, 139.0173 x 143.7531 x 160.6851 bohr.


Calculating local pseudopotential in open BC on a radial grid ...
Discrepancy between calculated realspace psloc and -Z/x on [5a0,259.028a0]:
max |rel. diff| # avg |rel. diff| #  avg rel. diff #  f # pseudopotential file
 0.000261578119    0.000004844123   0.000000072210   55  'N_00.recpot'
 0.000419583258    0.000017514079  -0.000000069370   55  'H_04.recpot'
 0.000363553651    0.000016734795   0.000000141192   55  'C_01.recpot'
 0.000449990737    0.000019382085   0.000000449342   55  'S_00.recpot'
 0.000706973137    0.000028359832   0.000000146371   55  'O_02.recpot'
... done

Atom SCF Calculation for N  : Z (AE atom) =   7 : Z (PS atom) =   5
Config String:
Orbitals (num,occ):  2     2.00 3.00
Orbitals   (num,l):  2        0    1
Real-space Grid (nr,dr,rmax): 1203    0.0066555740    8.0000000000
Spherical Bessel Basis (nsws,lmax,cutoff):   47    1  176.3951722778
Confining potential (l,width,scale):  0    3.0000000000  100.0000000000
Confining potential (l,width,scale):  1    3.0000000000  100.0000000000
  1         -4.7312375307   -3.4155304497    7.0523828109   -1.9351020946
  2         -9.7309464766   -2.0532547791    8.2966052865   -2.2494486027
  3         -9.6627394379   -2.1124926340    8.2327997121   -2.2369778124
  4         -9.6814993499   -2.1215521045    8.2229805960   -2.2365178421
  5         -9.6843326483   -2.1250939529    8.2191374534   -2.2362718126
  6         -9.6859628709   -2.1267894855    8.2172963573   -2.2362066344
  7         -9.6867347035   -2.1276425665    8.2163697352   -2.2361903369
  8         -9.6870802100   -2.1280764625    8.2158983890   -2.2361891460
  9         -9.6872290423   -2.1282977424    8.2156580222   -2.2361920435
 10         -9.6872901988   -2.1284107021    8.2155353368   -2.2361953393
 11         -9.6873135296   -2.1284684031    8.2154726809   -2.2361979819
 12         -9.6873212476   -2.1284978948    8.2154406648   -2.2361998431
 13         -9.6873229586   -2.1285129774    8.2154242957   -2.2362010676
 14         -9.6873226456   -2.1285206957    8.2154159216   -2.2362018403
 15         -9.6873218534   -2.1285246479    8.2154116349   -2.2362023142
 16         -9.6873212599   -2.1285262679    8.2154098784   -2.2362025420
 17         -9.6873207834   -2.1285272564    8.2154088068   -2.2362026955
 18         -9.6873204210   -2.1285278596    8.2154081529   -2.2362027982
 19         -9.6873201550   -2.1285282280    8.2154077538   -2.2362028667
 20         -9.6873199645   -2.1285284529    8.2154075102   -2.2362029121
 21         -9.6873198305   -2.1285285903    8.2154073614   -2.2362029421
 22         -9.6873197377   -2.1285286742    8.2154072705   -2.2362029618
Atom SCF converged after  22 iterations to a total energy of     -9.68731974

Atom SCF Calculation for H  : Z (AE atom) =   1 : Z (PS atom) =   1
Config String:
Orbitals (num,occ):  1     1.00
Orbitals   (num,l):  1        0
Real-space Grid (nr,dr,rmax): 1203    0.0066555740    8.0000000000
Spherical Bessel Basis (nsws,lmax,cutoff):   47    0  176.3951722778
Confining potential (l,width,scale):  0    3.0000000000  100.0000000000
  1         -0.3194257691   -0.2393854593    0.2820953124   -0.2424203209
  2         -0.3951823392   -0.2377116493    0.2886404059   -0.2475147891
  3         -0.4317044583   -0.2352244387    0.2921333887   -0.2514046172
  4         -0.4470703708   -0.2341892222    0.2934391879   -0.2531009782
  5         -0.4532132900   -0.2338556667    0.2938388426   -0.2537313520
  6         -0.4556579251   -0.2337612552    0.2939448584   -0.2539550462
  7         -0.4566418315   -0.2337377355    0.2939680120   -0.2540342273
  8         -0.4570437922   -0.2337331116    0.2939708287   -0.2540627372
  9         -0.4572102946   -0.2337328328    0.2939698291   -0.2540732650
 10         -0.4572800424   -0.2337332404    0.2939687193   -0.2540772588
 11         -0.4573095100   -0.2337335791    0.2939680317   -0.2540788122
 12         -0.4573220379   -0.2337337762    0.2939676699   -0.2540794294
 13         -0.4573273880   -0.2337338775    0.2939674931   -0.2540796787
 14         -0.4573296803   -0.2337339266    0.2939674099   -0.2540797808
 15         -0.4573306647   -0.2337339495    0.2939673718   -0.2540798230
 16         -0.4573310882   -0.2337339601    0.2939673545   -0.2540798406
 17         -0.4573312706   -0.2337339649    0.2939673467   -0.2540798479
 18         -0.4573313493   -0.2337339670    0.2939673433   -0.2540798510
Atom SCF converged after  18 iterations to a total energy of     -0.45733135

Atom SCF Calculation for C  : Z (AE atom) =   6 : Z (PS atom) =   4
Config String:
Orbitals (num,occ):  2     2.00 2.00
Orbitals   (num,l):  2        0    1
Real-space Grid (nr,dr,rmax): 1203    0.0066555740    8.0000000000
Spherical Bessel Basis (nsws,lmax,cutoff):   47    1  176.3951722778
Confining potential (l,width,scale):  0    3.0000000000  100.0000000000
Confining potential (l,width,scale):  1    3.0000000000  100.0000000000
  1         -5.2976922011   -1.3069684169    4.5135249990   -1.4493313817
  2         -5.3721716256   -1.3429755895    4.4750154450   -1.4361613026
  3         -5.3809959565   -1.3617365618    4.4541655428   -1.4305930207
  4         -5.3918938866   -1.3667928461    4.4484735100   -1.4294652294
  5         -5.3956096428   -1.3688539142    4.4461376126   -1.4290734646
  6         -5.3968271862   -1.3696852393    4.4451910874   -1.4289366866
  7         -5.3972028401   -1.3700178062    4.4448112275   -1.4288900460
  8         -5.3973067903   -1.3701500158    4.4446598370   -1.4288749220
  9         -5.3973286940   -1.3702023868    4.4445997329   -1.4288704293
 10         -5.3973289850   -1.3702230869    4.4445759233   -1.4288693188
 11         -5.3973254264   -1.3702312560    4.4445665049   -1.4288691775
 12         -5.3973224003   -1.3702344755    4.4445627836   -1.4288692549
 13         -5.3973208708   -1.3702354890    4.4445616088   -1.4288693270
 14         -5.3973198783   -1.3702360102    4.4445610034   -1.4288693814
 15         -5.3973192535   -1.3702362780    4.4445606917   -1.4288694190
 16         -5.3973188684   -1.3702364155    4.4445605313   -1.4288694437
 17         -5.3973186349   -1.3702364860    4.4445604489   -1.4288694595
 18         -5.3973184951   -1.3702365221    4.4445604065   -1.4288694693
 19         -5.3973184122   -1.3702365405    4.4445603848   -1.4288694753
Atom SCF converged after  19 iterations to a total energy of     -5.39731841

Atom SCF Calculation for S  : Z (AE atom) =  16 : Z (PS atom) =   6
Config String:
Orbitals (num,occ):  3     2.00 4.00 0.00
Orbitals   (num,l):  3        0    1    2
Real-space Grid (nr,dr,rmax): 1203    0.0066555740    8.0000000000
Spherical Bessel Basis (nsws,lmax,cutoff):   47    2  176.3951722778
Confining potential (l,width,scale):  0    3.0000000000  100.0000000000
Confining potential (l,width,scale):  1    3.0000000000  100.0000000000
Confining potential (l,width,scale):  2    3.0000000000  100.0000000000
  1        -12.4735062396   -1.0328741412   10.1554312477   -2.4512393157
  2         -9.9458301913   -2.4607392455    8.3041325857   -2.0306994528
  3        -10.1450417646   -2.2931184565    8.4831893826   -2.0812538287
  4        -10.1528335592   -2.2733105793    8.5050388867   -2.0896035179
  5        -10.1571940363   -2.2633716629    8.5160794258   -2.0939370707
  6        -10.1594380571   -2.2584938667    8.5215163935   -2.0961289008
  7        -10.1605856507   -2.2561081821    8.5241804044   -2.0972291378
  8        -10.1611799191   -2.2549395235    8.5254868240   -2.0977806248
  9        -10.1614918752   -2.2543658586    8.5261285885   -2.0980571586
 10        -10.1616572884   -2.2540839121    8.5264441898   -2.0981959233
 11        -10.1617455602   -2.2539453058    8.5265994231   -2.0982656006
 12        -10.1617928447   -2.2538772062    8.5266757320   -2.0983006047
 13        -10.1618182292   -2.2538437891    8.5267131983   -2.0983181961
 14        -10.1618318741   -2.2538274201    8.5267315620   -2.0983270391
 15        -10.1618392144   -2.2538194197    8.5267405433   -2.0983314852
 16        -10.1618431651   -2.2538155200    8.5267449245   -2.0983337210
 17        -10.1618452923   -2.2538136252    8.5267470551   -2.0983348455
 18        -10.1618464380   -2.2538127080    8.5267480875   -2.0983354110
 19        -10.1618470552   -2.2538122659    8.5267485856   -2.0983356955
 20        -10.1618473878   -2.2538120540    8.5267488248   -2.0983358386
 21        -10.1618475670   -2.2538119530    8.5267489389   -2.0983359106
 22        -10.1618476637   -2.2538119053    8.5267489929   -2.0983359468
Atom SCF converged after  22 iterations to a total energy of    -10.16184766

Atom SCF Calculation for O  : Z (AE atom) =   8 : Z (PS atom) =   6
Config String:
Orbitals (num,occ):  2     2.00 4.00
Orbitals   (num,l):  2        0    1
Real-space Grid (nr,dr,rmax): 1203    0.0066555740    8.0000000000
Spherical Bessel Basis (nsws,lmax,cutoff):   47    1  176.3951722778
Confining potential (l,width,scale):  0    3.0000000000  100.0000000000
Confining potential (l,width,scale):  1    3.0000000000  100.0000000000
  1         -1.8735052164   -7.5539365035   10.1554312477   -2.4512393157
  2        -16.0318313751   -3.1285771268   13.6395848164   -3.2358799643
  3        -15.9524020423   -3.0762819706   13.6967272503   -3.2536856837
  4        -15.8521515939   -3.0781493909   13.6951909330   -3.2561700440
  5        -15.8357139793   -3.0748501933   13.6988803334   -3.2580493133
  6        -15.8246052853   -3.0740779781   13.6997881576   -3.2588327446
  7        -15.8189019501   -3.0737449687   13.7001869911   -3.2592378801
  8        -15.8159785510   -3.0736026016   13.7003615168   -3.2594475790
  9        -15.8144776168   -3.0735437994   13.7004360379   -3.2595560735
 10        -15.8137058024   -3.0735207882   13.7004667348   -3.2596122456
 11        -15.8133083127   -3.0735125946   13.7004786868   -3.2596413656
 12        -15.8131032938   -3.0735102195   13.7004828997   -3.2596564858
 13        -15.8129973902   -3.0735099286   13.7004840891   -3.2596643505
 14        -15.8129426040   -3.0735102506   13.7004842061   -3.2596684489
 15        -15.8129142203   -3.0735106556   13.7004840157   -3.2596705887
 16        -15.8128994940   -3.0735109855   13.7004837906   -3.2596717080
 17        -15.8128918425   -3.0735112169   13.7004836103   -3.2596722946
 18        -15.8128878614   -3.0735113674   13.7004834848   -3.2596726026
 19        -15.8128857871   -3.0735114608   13.7004834035   -3.2596727646
 20        -15.8128847048   -3.0735115170   13.7004833533   -3.2596728500
 21        -15.8128841394   -3.0735115501   13.7004833231   -3.2596728951
 22        -15.8128838436   -3.0735115693   13.7004833054   -3.2596729190
 23        -15.8128836887   -3.0735115802   13.7004832951   -3.2596729316
 24        -15.8128836074   -3.0735115864   13.7004832893   -3.2596729383
Atom SCF converged after  24 iterations to a total energy of    -15.81288361

========================== Calculation in vacuum ==============================
= Adjusting the following parameters: 
= is_implicit_solvent: F
= is_include_apolar: F
= write_denskern: T
= write_tightbox_ngwfs: T
= restart read filename prefix: ""
= restart write filename prefix: "vacuum_"
===============================================================================

Determining parallel strategy ...
... using space-filling curve
... NGWF load balancing: max    110;  min    109;  average    109
... Projector load balancing: max     26;  min     21;  average     22
... done
Calculating direct Ion-Ion energy ...
Ion-Ion Energy        :    834630.96786746452563
======================= Empirical dispersion information =======================
Model : Elstner
Dispersion Correction Energy: -0.32890145E+01 Hartree
================================================================================
Basis initialisation ...... NGWF spheres initialised
... Projector spheres initialised
... NGWF tight boxes initialised
... Tight-boxes gathered
... NGWF basis size (local,global):    1037471  62336463
... Nonlocal pseudopotential projector initialisation
... done

========================== Sparse matrix information ===========================
                        Overlap matrix filling:   6.73%
                        Density kernel filling: 100.00%
              NGWF-Proj overlap matrix filling:   1.77%
                    Hamiltonian matrix filling:   7.62%
                  NGWF diagonal matrix filling:   0.05%
                             KS matrix filling: 100.00% 
                           KSKS matrix filling: 100.00% 
================================================================================

Sparse matrix initialisation ... done

Generating smeared ion density ... done
Smeared ion self correction:     -14517.010906
Smeared ion non-self correction: -834582.726953
NGWF initialisation ...... done
============ Calculation of NGWF S^-1 using Hotelling algorithm ================ 
         Iteration  |  Frobenius norm and Maximum abs value    (of I-S*S_n^-1)   
               1       0.78636358E+02     0.98201525E+00
               2       0.76737481E+02     0.96448931E+00
               3       0.73678663E+02     0.93074598E+00
               4       0.69358147E+02     0.86841349E+00
               5       0.64004059E+02     0.76299388E+00
               6       0.58011649E+02     0.70610682E+00
               7       0.52017034E+02     0.67056361E+00
               8       0.46472776E+02     0.64110651E+00
               9       0.40336731E+02     0.60128636E+00
              10       0.31951358E+02     0.53197454E+00
              11       0.21295834E+02     0.42029742E+00
              12       0.10733286E+02     0.26916719E+00
              13       0.34589932E+01     0.11736521E+00
              14       0.53131841E+00     0.31785027E-01
              15       0.25069425E-01     0.26747745E-02
              16       0.12826781E-03     0.20060796E-04
              17       0.53528750E-08     0.11491563E-08
              18       0.90612602E-13     0.48849813E-14
================================================================================
Calculating local pseudopotential in open BC on the fine real space grid ...
... done

MG BCs: +ve charge blocks (gridpoints):     20545 (   16074976).
MG BCs: -ve charge blocks (gridpoints):      7976 (    1079669).
MG BCs:     Elided blocks (gridpoints):    183743 (  182023236).
MG BCs: Computational effort saved:  99.9857%.
MG BCs: Charge after coarse-graining:           -9.0002310.
MG DL_MG: Calling solver with defect correction order = 8
MG DL_MG: Solver finished
MG Hartree energy from (\int phi*rho dr):              1471.307976
MG Hartree energy from (\int eps (grad phi)^2 dr):     1470.695032
MG Discrepancy due to finite box and discretization:     -0.612944 (  -0.04166%)
MG Correction to account for finite box:                  0.458536
MG Remaining discrepancy, due to discretization:         -0.154408 (  -0.01049%)
Up spin density kernel initialisation ... 
======= Optimisation of K by Palser-Manolopoulos canonical purification ======== 
         Iteration  |  Band structure energy |    c_n   
               1       -2589.02765277702429    0.5271673
               2       -2765.76957221067278    0.5172131
               3       -2947.42808969465477    0.5153112
               4       -3099.69368311222115    0.5286023
               5       -3193.81949860178247    0.5644004
               6       -3233.38190180958645    0.6101787
               7       -3246.80245191295580    0.6240676
               8       -3252.58829530750427    0.6253335
               9       -3255.39013936994434    0.6404578
              10       -3256.57656213438850    0.6649594
              11       -3257.05418055699602    0.6812962
              12       -3257.26656001731590    0.6697123
              13       -3257.38117679150491    0.6201130
              14       -3257.45252113691095    0.5315053
              15       -3257.49349623848093    0.4119851
              16       -3257.50077048934736    0.3701557
              17       -3257.50192333903851    0.3681034
              18       -3257.50247952608834    0.4070883
              19       -3257.50281073042697    0.4604974
              20       -3257.50303961386180    0.4926931
              21       -3257.50320065670621    0.4997480
              22       -3257.50333768861537    0.4999997
              23       -3257.50342128640932    0.5000000
              24       -3257.50344153539663    0.5000000
              25       -3257.50344242946812    0.5000020
              26       -3257.50344243109021    0.5000020
Termination criterion satisfied: band energy change below threshold.
Final occupancy bounds: [    0.00000000000000:    1.00000000000000]
Closest occupancy to 0.5:     1.00000000000000
================================================================================
... done

Writing density kernel to file "complex_8841.vacuum_dkn" ... done

>>> Optimising kernel for current NGWFs:
   Initial electron number for spin 1:    7228.00000000
     Final electron number for spin 1:    7228.00000000

=================== Penalty functional idempotency correction ==================
 RMS occupancy error at iteration   1:  0.000000 (step -0.5000 Ne1=   7228.0000)
            Final RMS occupancy error   :  0.000000 (Ne1=   7228.0000)
               Final occupancy bounds   : [  0.0000,  1.0000]
================================================================================

................................................................................
<<<<<<<<<<<<<< LNV (Original version) density kernel optimisation >>>>>>>>>>>>>>
~~~~~~~~~~~~~~~~~~~~~~~~~~~~~~~~~~~~~~~~~~~~~~~~~~~~~~~~~~~~~~~~~~~~~~~~~~~~~~~~
   iter  |      energy (Eh)       | rms gradient |  commutator  |   dE (Eh)
MG BCs: +ve charge blocks (gridpoints):     30767 (   17218381).
MG BCs: -ve charge blocks (gridpoints):      8287 (    1113101).
MG BCs:     Elided blocks (gridpoints):    173508 (  180846399).
MG BCs: Computational effort saved:  99.9804%.
MG BCs: Charge after coarse-graining:           -9.0009557.
MG DL_MG: Calling solver with defect correction order = 8
MG DL_MG: Solver finished
MG Hartree energy from (\int phi*rho dr):              1424.634476
MG Hartree energy from (\int eps (grad phi)^2 dr):     1423.971898
MG Discrepancy due to finite box and discretization:     -0.662579 (  -0.04651%)
MG Correction to account for finite box:                  0.465235
MG Remaining discrepancy, due to discretization:         -0.197343 (  -0.01385%)
      ideal mu1:      -0.711022955823
             Q0:  -11552.463823252008
             G0:    -140.971318173982
   RMS gradient:       0.001815186409
MG BCs: +ve charge blocks (gridpoints):     30787 (   17307176).
MG BCs: -ve charge blocks (gridpoints):      8186 (    1092472).
MG BCs:     Elided blocks (gridpoints):    173488 (  180778233).
MG BCs: Computational effort saved:  99.9804%.
MG BCs: Charge after coarse-graining:           -9.0009735.
MG DL_MG: Calling solver with defect correction order = 8
MG DL_MG: Solver finished
MG Hartree energy from (\int phi*rho dr):              1450.885706
MG Hartree energy from (\int eps (grad phi)^2 dr):     1450.240062
MG Discrepancy due to finite box and discretization:     -0.645645 (  -0.04450%)
MG Correction to account for finite box:                  0.464145
MG Remaining discrepancy, due to discretization:         -0.181499 (  -0.01251%)
     Trial step:       0.500000000000
             Q1:  -11563.342508416623
 Quadratic coef:      59.606973922377
 Linear coef   :     -70.485659086991
           Qmin:  -11573.301268143094
Quadratic minimum step length (  0.295626729763) accepted
    Initial Ne1:    7228.00000000
      Final Ne1:    7228.00000000

=================== Penalty functional idempotency correction ==================
 RMS occupancy error at iteration   1:  0.003277 (step -0.4889 Ne1=   7228.0000)
 RMS occupancy error at iteration   2:  0.000024 (step -0.5000 Ne1=   7228.0000)
            Final RMS occupancy error   :  0.000000 (Ne1=   7228.0000)
               Final occupancy bounds   : [  0.0000,  1.0000]
================================================================================

    1        -1.155246382325E+04     1.8152E-03     1.6427E-03
MG BCs: +ve charge blocks (gridpoints):     30781 (   17272234).
MG BCs: -ve charge blocks (gridpoints):      8231 (    1101069).
MG BCs:     Elided blocks (gridpoints):    173494 (  180804578).
MG BCs: Computational effort saved:  99.9804%.
MG BCs: Charge after coarse-graining:           -9.0009667.
MG DL_MG: Calling solver with defect correction order = 8
MG DL_MG: Solver finished
MG Hartree energy from (\int phi*rho dr):              1432.357258
MG Hartree energy from (\int eps (grad phi)^2 dr):     1431.705657
MG Discrepancy due to finite box and discretization:     -0.651601 (  -0.04549%)
MG Correction to account for finite box:                  0.464457
MG Remaining discrepancy, due to discretization:         -0.187145 (  -0.01307%)
      ideal mu1:      -0.751113443258
             Q0:  -11573.681325818761
             G0:     -11.542815433159
   RMS gradient:       0.000516009391
MG BCs: +ve charge blocks (gridpoints):     30793 (   17289991).
MG BCs: -ve charge blocks (gridpoints):      8203 (    1095828).
MG BCs:     Elided blocks (gridpoints):    173482 (  180792062).
MG BCs: Computational effort saved:  99.9804%.
MG BCs: Charge after coarse-graining:           -9.0009702.
MG DL_MG: Calling solver with defect correction order = 8
MG DL_MG: Solver finished
MG Hartree energy from (\int phi*rho dr):              1437.890059
MG Hartree energy from (\int eps (grad phi)^2 dr):     1437.242258
MG Discrepancy due to finite box and discretization:     -0.647801 (  -0.04505%)
MG Correction to account for finite box:                  0.463909
MG Remaining discrepancy, due to discretization:         -0.183892 (  -0.01279%)
     Trial step:       0.384465037268
             Q1:  -11576.394942490268
 Quadratic coef:       1.724192294181
 Linear coef   :      -4.437808965688
           Qmin:  -11576.536887301434
Quadratic minimum step length (  0.494777292283) accepted
    Initial Ne1:    7227.99992701
      Final Ne1:    7228.00000000

=================== Penalty functional idempotency correction ==================
 RMS occupancy error at iteration   1:  0.001726 (step -0.4935 Ne1=   7228.0000)
 RMS occupancy error at iteration   2:  0.000009 (step -0.5000 Ne1=   7228.0000)
            Final RMS occupancy error   :  0.000000 (Ne1=   7228.0000)
               Final occupancy bounds   : [  0.0000,  1.0000]
================================================================================

    2        -1.157368132582E+04     5.1601E-04     4.6696E-04    -2.1218E+01
MG BCs: +ve charge blocks (gridpoints):     30789 (   17295140).
MG BCs: -ve charge blocks (gridpoints):      8191 (    1094283).
MG BCs:     Elided blocks (gridpoints):    173486 (  180788458).
MG BCs: Computational effort saved:  99.9804%.
MG BCs: Charge after coarse-graining:           -9.0009713.
MG DL_MG: Calling solver with defect correction order = 8
MG DL_MG: Solver finished
MG Hartree energy from (\int phi*rho dr):              1439.517334
MG Hartree energy from (\int eps (grad phi)^2 dr):     1438.870544
MG Discrepancy due to finite box and discretization:     -0.646791 (  -0.04493%)
MG Correction to account for finite box:                  0.463767
MG Remaining discrepancy, due to discretization:         -0.183024 (  -0.01271%)
      ideal mu1:      -0.773034695288
             Q0:  -11576.570610242197
             G0:      -1.799095329680
   RMS gradient:       0.000203833340
MG BCs: +ve charge blocks (gridpoints):     30781 (   17294331).
MG BCs: -ve charge blocks (gridpoints):      8195 (    1095260).
MG BCs:     Elided blocks (gridpoints):    173494 (  180788290).
MG BCs: Computational effort saved:  99.9804%.
MG BCs: Charge after coarse-graining:           -9.0009711.
MG DL_MG: Calling solver with defect correction order = 8
MG DL_MG: Solver finished
MG Hartree energy from (\int phi*rho dr):              1437.308012
MG Hartree energy from (\int eps (grad phi)^2 dr):     1436.661617
MG Discrepancy due to finite box and discretization:     -0.646395 (  -0.04497%)
MG Correction to account for finite box:                  0.463552
MG Remaining discrepancy, due to discretization:         -0.182843 (  -0.01272%)
     Trial step:       0.436147417873
             Q1:  -11577.022168212221
 Quadratic coef:       0.333112812523
 Linear coef   :      -0.784670782547
           Qmin:  -11577.032697119253
Quadratic minimum step length (  0.513688040241) accepted
    Initial Ne1:    7227.99996967
      Final Ne1:    7228.00000000

=================== Penalty functional idempotency correction ==================
 RMS occupancy error at iteration   1:  0.000565 (step -0.4977 Ne1=   7228.0000)
 RMS occupancy error at iteration   2:  0.000001 (step -0.5000 Ne1=   7228.0000)
            Final RMS occupancy error   :  0.000000 (Ne1=   7228.0000)
               Final occupancy bounds   : [  0.0000,  1.0000]
================================================================================

    3        -1.157657061024E+04     2.0383E-04     1.8446E-04    -2.8893E+00
MG BCs: +ve charge blocks (gridpoints):     30779 (   17294244).
MG BCs: -ve charge blocks (gridpoints):      8194 (    1095475).
MG BCs:     Elided blocks (gridpoints):    173496 (  180788162).
MG BCs: Computational effort saved:  99.9804%.
MG BCs: Charge after coarse-graining:           -9.0009710.
MG DL_MG: Calling solver with defect correction order = 8
MG DL_MG: Solver finished
MG Hartree energy from (\int phi*rho dr):              1436.923135
MG Hartree energy from (\int eps (grad phi)^2 dr):     1436.276802
MG Discrepancy due to finite box and discretization:     -0.646333 (  -0.04498%)
MG Correction to account for finite box:                  0.463515
MG Remaining discrepancy, due to discretization:         -0.182819 (  -0.01272%)
      ideal mu1:      -0.773672809340
             Q0:  -11577.036745448015
             G0:      -0.414903328823
   RMS gradient:       0.000097999520
MG BCs: +ve charge blocks (gridpoints):     30782 (   17294997).
MG BCs: -ve charge blocks (gridpoints):      8193 (    1095318).
MG BCs:     Elided blocks (gridpoints):    173493 (  180787566).
MG BCs: Computational effort saved:  99.9804%.
MG BCs: Charge after coarse-graining:           -9.0009712.
MG DL_MG: Calling solver with defect correction order = 8
MG DL_MG: Solver finished
MG Hartree energy from (\int phi*rho dr):              1438.103392
MG Hartree energy from (\int eps (grad phi)^2 dr):     1437.457040
MG Discrepancy due to finite box and discretization:     -0.646353 (  -0.04494%)
MG Correction to account for finite box:                  0.463416
MG Remaining discrepancy, due to discretization:         -0.182937 (  -0.01272%)
     Trial step:       0.473332559987
             Q1:  -11577.131821928080
 Quadratic coef:       0.101310774713
 Linear coef   :      -0.196387254779
           Qmin:  -11577.131917837005
Quadratic minimum step length (  0.458768982452) accepted
    Initial Ne1:    7227.99999362
      Final Ne1:    7228.00000000

=================== Penalty functional idempotency correction ==================
 RMS occupancy error at iteration   1:  0.000179 (step -0.4993 Ne1=   7228.0000)
            Final RMS occupancy error   :  0.000000 (Ne1=   7228.0000)
               Final occupancy bounds   : [ -0.0000,  1.0000]
================================================================================

    4        -1.157703674545E+04     9.8000E-05     8.8685E-05    -4.6614E-01
MG BCs: +ve charge blocks (gridpoints):     30782 (   17294968).
MG BCs: -ve charge blocks (gridpoints):      8193 (    1095314).
MG BCs:     Elided blocks (gridpoints):    173493 (  180787599).
MG BCs: Computational effort saved:  99.9804%.
MG BCs: Charge after coarse-graining:           -9.0009712.
MG DL_MG: Calling solver with defect correction order = 8
MG DL_MG: Solver finished
MG Hartree energy from (\int phi*rho dr):              1438.067075
MG Hartree energy from (\int eps (grad phi)^2 dr):     1437.420723
MG Discrepancy due to finite box and discretization:     -0.646352 (  -0.04495%)
MG Correction to account for finite box:                  0.463419
MG Remaining discrepancy, due to discretization:         -0.182933 (  -0.01272%)
      ideal mu1:      -0.773808035838
             Q0:  -11577.132305737236
             G0:      -0.100764149676
   RMS gradient:       0.000048433095
MG BCs: +ve charge blocks (gridpoints):     30779 (   17295056).
MG BCs: -ve charge blocks (gridpoints):      8191 (    1095141).
MG BCs:     Elided blocks (gridpoints):    173496 (  180787684).
MG BCs: Computational effort saved:  99.9804%.
MG BCs: Charge after coarse-graining:           -9.0009712.
MG DL_MG: Calling solver with defect correction order = 8
MG DL_MG: Solver finished
MG Hartree energy from (\int phi*rho dr):              1438.435148
MG Hartree energy from (\int eps (grad phi)^2 dr):     1437.788662
MG Discrepancy due to finite box and discretization:     -0.646486 (  -0.04494%)
MG Correction to account for finite box:                  0.463414
MG Remaining discrepancy, due to discretization:         -0.183072 (  -0.01273%)
     Trial step:       0.465993880761
             Q1:  -11577.156768602668
 Quadratic coef:       0.022492611717
 Linear coef   :      -0.046955477149
           Qmin:  -11577.156811749055
Quadratic minimum step length (  0.486403386474) accepted
    Initial Ne1:    7228.00154395
      Final Ne1:    7228.00000000

=================== Penalty functional idempotency correction ==================
 RMS occupancy error at iteration   1:  0.000062 (step -0.4997 Ne1=   7228.0000)
            Final RMS occupancy error   :  0.000000 (Ne1=   7228.0000)
               Final occupancy bounds   : [ -0.0000,  1.0000]
================================================================================

    5        -1.157713230574E+04     4.8433E-05     4.3830E-05    -9.5560E-02
MG BCs: +ve charge blocks (gridpoints):     30779 (   17295035).
MG BCs: -ve charge blocks (gridpoints):      8192 (    1095148).
MG BCs:     Elided blocks (gridpoints):    173496 (  180787698).
MG BCs: Computational effort saved:  99.9804%.
MG BCs: Charge after coarse-graining:           -9.0009712.
MG DL_MG: Calling solver with defect correction order = 8
MG DL_MG: Solver finished
MG Hartree energy from (\int phi*rho dr):              1438.451310
MG Hartree energy from (\int eps (grad phi)^2 dr):     1437.804818
MG Discrepancy due to finite box and discretization:     -0.646491 (  -0.04494%)
MG Correction to account for finite box:                  0.463414
MG Remaining discrepancy, due to discretization:         -0.183078 (  -0.01273%)
      ideal mu1:      -0.773806135494
             Q0:  -11577.156855588080
             G0:      -0.029268784641
   RMS gradient:       0.000026124811
MG BCs: +ve charge blocks (gridpoints):     30780 (   17294708).
MG BCs: -ve charge blocks (gridpoints):      8193 (    1095383).
MG BCs:     Elided blocks (gridpoints):    173495 (  180787790).
MG BCs: Computational effort saved:  99.9804%.
MG BCs: Charge after coarse-graining:           -9.0009710.
MG DL_MG: Calling solver with defect correction order = 8
MG DL_MG: Solver finished
MG Hartree energy from (\int phi*rho dr):              1437.846042
MG Hartree energy from (\int eps (grad phi)^2 dr):     1437.199557
MG Discrepancy due to finite box and discretization:     -0.646484 (  -0.04496%)
MG Correction to account for finite box:                  0.463415
MG Remaining discrepancy, due to discretization:         -0.183069 (  -0.01273%)
     Trial step:       0.476089279105
             Q1:  -11577.165992454276
 Quadratic coef:       0.004797688383
 Linear coef   :      -0.013934554580
           Qmin:  -11577.166973575944
Quadratic minimum step length (  0.691384216147) accepted
    Initial Ne1:    7228.00092228
      Final Ne1:    7228.00000000

=================== Penalty functional idempotency correction ==================
 RMS occupancy error at iteration   1:  0.000036 (step -0.4998 Ne1=   7228.0000)
            Final RMS occupancy error   :  0.000000 (Ne1=   7228.0000)
               Final occupancy bounds   : [ -0.0000,  1.0000]
================================================================================

    6        -1.157715685559E+04     2.6125E-05     2.3642E-05    -2.4550E-02
MG BCs: +ve charge blocks (gridpoints):     30780 (   17294562).
MG BCs: -ve charge blocks (gridpoints):      8193 (    1095453).
MG BCs:     Elided blocks (gridpoints):    173495 (  180787866).
MG BCs: Computational effort saved:  99.9804%.
MG BCs: Charge after coarse-graining:           -9.0009710.
MG DL_MG: Calling solver with defect correction order = 8
MG DL_MG: Solver finished
MG Hartree energy from (\int phi*rho dr):              1437.571693
MG Hartree energy from (\int eps (grad phi)^2 dr):     1436.925212
MG Discrepancy due to finite box and discretization:     -0.646481 (  -0.04497%)
MG Correction to account for finite box:                  0.463416
MG Remaining discrepancy, due to discretization:         -0.183065 (  -0.01273%)
      ideal mu1:      -0.773583558217
             Q0:  -11577.166981722694
             G0:      -0.014786656768
   RMS gradient:       0.000018590490
MG BCs: +ve charge blocks (gridpoints):     30780 (   17295062).
MG BCs: -ve charge blocks (gridpoints):      8191 (    1095160).
MG BCs:     Elided blocks (gridpoints):    173495 (  180787659).
MG BCs: Computational effort saved:  99.9804%.
MG BCs: Charge after coarse-graining:           -9.0009711.
MG DL_MG: Calling solver with defect correction order = 8
MG DL_MG: Solver finished
MG Hartree energy from (\int phi*rho dr):              1438.167317
MG Hartree energy from (\int eps (grad phi)^2 dr):     1437.520872
MG Discrepancy due to finite box and discretization:     -0.646445 (  -0.04495%)
MG Correction to account for finite box:                  0.463399
MG Remaining discrepancy, due to discretization:         -0.183046 (  -0.01273%)
     Trial step:       0.573725206915
             Q1:  -11577.170811138116
 Quadratic coef:       0.004654062292
 Linear coef   :      -0.008483477714
           Qmin:  -11577.170847667627
Quadratic minimum step length (  0.522896418414) accepted
    Initial Ne1:    7228.00012324
      Final Ne1:    7228.00000000

=================== Penalty functional idempotency correction ==================
 RMS occupancy error at iteration   1:  0.000002 (step -0.5000 Ne1=   7228.0000)
            Final RMS occupancy error   :  0.000000 (Ne1=   7228.0000)
               Final occupancy bounds   : [  0.0000,  1.0000]
================================================================================

    7        -1.157716698172E+04     1.8590E-05     1.6824E-05    -1.0126E-02
MG BCs: +ve charge blocks (gridpoints):     30781 (   17295023).
MG BCs: -ve charge blocks (gridpoints):      8191 (    1095182).
MG BCs:     Elided blocks (gridpoints):    173494 (  180787676).
MG BCs: Computational effort saved:  99.9804%.
MG BCs: Charge after coarse-graining:           -9.0009711.
MG DL_MG: Calling solver with defect correction order = 8
MG DL_MG: Solver finished
MG Hartree energy from (\int phi*rho dr):              1438.114479
MG Hartree energy from (\int eps (grad phi)^2 dr):     1437.468031
MG Discrepancy due to finite box and discretization:     -0.646448 (  -0.04495%)
MG Correction to account for finite box:                  0.463400
MG Remaining discrepancy, due to discretization:         -0.183048 (  -0.01273%)
      ideal mu1:      -0.773868027764
             Q0:  -11577.170847766101
             G0:      -0.008714496032
   RMS gradient:       0.000014272201
MG BCs: +ve charge blocks (gridpoints):     30781 (   17295034).
MG BCs: -ve charge blocks (gridpoints):      8191 (    1095178).
MG BCs:     Elided blocks (gridpoints):    173494 (  180787669).
MG BCs: Computational effort saved:  99.9804%.
MG BCs: Charge after coarse-graining:           -9.0009712.
MG DL_MG: Calling solver with defect correction order = 8
MG DL_MG: Solver finished
MG Hartree energy from (\int phi*rho dr):              1438.160589
MG Hartree energy from (\int eps (grad phi)^2 dr):     1437.514178
MG Discrepancy due to finite box and discretization:     -0.646411 (  -0.04495%)
MG Correction to account for finite box:                  0.463391
MG Remaining discrepancy, due to discretization:         -0.183020 (  -0.01273%)
     Trial step:       0.547721513042
             Q1:  -11577.174365756684
 Quadratic coef:       0.001255126370
 Linear coef   :      -0.004773116952
           Qmin:  -11577.175385684750
Quadratic minimum step length (  1.041464390184) accepted
    Initial Ne1:    7228.00014375
      Final Ne1:    7228.00000000

=================== Penalty functional idempotency correction ==================
 RMS occupancy error at iteration   1:  0.000022 (step -0.4994 Ne1=   7228.0000)
            Final RMS occupancy error   :  0.000000 (Ne1=   7228.0000)
               Final occupancy bounds   : [ -0.0000,  1.0000]
================================================================================

    8        -1.157717084777E+04     1.4272E-05     1.2916E-05    -3.8660E-03
MG BCs: +ve charge blocks (gridpoints):     30781 (   17295031).
MG BCs: -ve charge blocks (gridpoints):      8190 (    1095186).
MG BCs:     Elided blocks (gridpoints):    173494 (  180787664).
MG BCs: Computational effort saved:  99.9804%.
MG BCs: Charge after coarse-graining:           -9.0009712.
MG DL_MG: Calling solver with defect correction order = 8
MG DL_MG: Solver finished
MG Hartree energy from (\int phi*rho dr):              1438.200631
MG Hartree energy from (\int eps (grad phi)^2 dr):     1437.554255
MG Discrepancy due to finite box and discretization:     -0.646377 (  -0.04494%)
MG Correction to account for finite box:                  0.463382
MG Remaining discrepancy, due to discretization:         -0.182995 (  -0.01272%)
      ideal mu1:      -0.773933587951
             Q0:  -11577.175376706757
             G0:      -0.012843206314
   RMS gradient:       0.000017359604
MG BCs: +ve charge blocks (gridpoints):     30782 (   17294949).
MG BCs: -ve charge blocks (gridpoints):      8192 (    1095293).
MG BCs:     Elided blocks (gridpoints):    173493 (  180787639).
MG BCs: Computational effort saved:  99.9804%.
MG BCs: Charge after coarse-graining:           -9.0009711.
MG DL_MG: Calling solver with defect correction order = 8
MG DL_MG: Solver finished
MG Hartree energy from (\int phi*rho dr):              1437.874185
MG Hartree energy from (\int eps (grad phi)^2 dr):     1437.227885
MG Discrepancy due to finite box and discretization:     -0.646301 (  -0.04495%)
MG Correction to account for finite box:                  0.463354
MG Remaining discrepancy, due to discretization:         -0.182947 (  -0.01272%)
     Trial step:       0.755269787275
             Q1:  -11577.181411258643
 Quadratic coef:       0.003665533814
 Linear coef   :      -0.009700085701
           Qmin:  -11577.181794030084
Quadratic minimum step length (  0.999333526371) accepted
    Initial Ne1:    7228.00039229
      Final Ne1:    7228.00000000

=================== Penalty functional idempotency correction ==================
 RMS occupancy error at iteration   1:  0.000122 (step -0.4964 Ne1=   7228.0000)
 RMS occupancy error at iteration   2:  0.000000 (step -0.5000 Ne1=   7228.0000)
            Final RMS occupancy error   :  0.000000 (Ne1=   7228.0000)
               Final occupancy bounds   : [  0.0000,  1.0000]
================================================================================

    9        -1.157717537671E+04     1.7360E-05     1.5710E-05    -4.5289E-03
MG BCs: +ve charge blocks (gridpoints):     30783 (   17294914).
MG BCs: -ve charge blocks (gridpoints):      8192 (    1095329).
MG BCs:     Elided blocks (gridpoints):    173492 (  180787638).
MG BCs: Computational effort saved:  99.9804%.
MG BCs: Charge after coarse-graining:           -9.0009711.
MG DL_MG: Calling solver with defect correction order = 8
MG DL_MG: Solver finished
MG Hartree energy from (\int phi*rho dr):              1437.765865
MG Hartree energy from (\int eps (grad phi)^2 dr):     1437.119591
MG Discrepancy due to finite box and discretization:     -0.646274 (  -0.04495%)
MG Correction to account for finite box:                  0.463344
MG Remaining discrepancy, due to discretization:         -0.182930 (  -0.01272%)
      ideal mu1:      -0.773584568588
   10        -1.157718175544E+04     1.9394E-05     1.7551E-05    -6.3787E-03
Finished density kernel iterations (  10)

Writing density kernel to file "complex_8841.vacuum_dkn" ... done


>>> Density kernel optimised for the current NGWF basis:
     ~~~~~~~~~~~~~~~~~~~~~~~~~~~~~~~~~~~~~~~~~~~~~~~~~~~~~~~~~~~
     Total energy                =  -1.15771817554367E+04  Eh
     Estimated bandgap           =  -2.6302E-01  Eh
     RMS occupancy error         =   1.2372E-11
     [H,K] commutator            =   1.7551E-05
     Occupancy bounds            = [  0.000:  1.000]
     ~~~~~~~~~~~~~~~~~~~~~~~~~~~~~~~~~~~~~~~~~~~~~~~~~~~~~~~~~~~




################################################################################
########################### NGWF CG iteration  001 #############################
################################################################################
****** Reciprocal space K.E. preconditioning with k_zero =  3.5000 a0^-1 *******

>>> Checking for convergence of NGWFs:   NOT CONVERGED
  ========================================================================
         NGWF RMS gradient =  1.6006E-03 >  2.0000E-06  | above tolerance
  ========================================================================

>>> Improving NGWFs using line search:
============ Calculation of NGWF S^-1 using Hotelling algorithm ================ 
         Iteration  |  Frobenius norm and Maximum abs value    (of I-S*S_n^-1)   
               1       0.19824051E+00     0.54459392E-02
               2       0.91168266E-03     0.42503554E-04
               3       0.33040250E-07     0.25781799E-08
               4       0.12666957E-12     0.47739590E-14
================================================================================
MG BCs: +ve charge blocks (gridpoints):     30320 (   17242740).
MG BCs: -ve charge blocks (gridpoints):      8222 (    1095144).
MG BCs:     Elided blocks (gridpoints):    173958 (  180839997).
MG BCs: Computational effort saved:  99.9806%.
MG BCs: Charge after coarse-graining:           -9.0009745.
MG DL_MG: Calling solver with defect correction order = 8
MG DL_MG: Solver finished
MG Hartree energy from (\int phi*rho dr):              1405.751805
MG Hartree energy from (\int eps (grad phi)^2 dr):     1405.106264
MG Discrepancy due to finite box and discretization:     -0.645541 (  -0.04592%)
MG Correction to account for finite box:                  0.463305
MG Remaining discrepancy, due to discretization:         -0.182235 (  -0.01296%)
============ Calculation of NGWF S^-1 using Hotelling algorithm ================ 
         Iteration  |  Frobenius norm and Maximum abs value    (of I-S*S_n^-1)   
               1       0.18439902E+01     0.42406831E-01
               2       0.70532708E-01     0.23796309E-02
               3       0.13981975E-03     0.82070543E-05
               4       0.97733565E-09     0.10008772E-09
               5       0.11014441E-12     0.55511151E-14
================================================================================
------------------------------- NGWF line search -------------------------------
RMS gradient                =       0.00160062007521
Trial step length           =               0.122474
Gradient along search dir.  =       -278.65630478176
Functional at step 0        =  -11577.18175543670077
Functional at step 1        =  -11608.68659445655067
Functional predicted        =  -11688.17495985219102
Selected quadratic step     =               0.796632
--------------------------- NGWF line search finished --------------------------
                                               
Writing NGWFs to file "complex_8841.vacuum_tightbox_ngwfs"....  done

>>> Optimising kernel for current NGWFs:
   Initial electron number for spin 1:    7262.45128789
     Final electron number for spin 1:    7228.00000000

=================== Penalty functional idempotency correction ==================
 RMS occupancy error at iteration   1:  0.004254 (step -0.4860 Ne1=   7228.0000)
 RMS occupancy error at iteration   2:  0.000071 (step -0.5003 Ne1=   7228.0000)
            Final RMS occupancy error   :  0.000000 (Ne1=   7228.0000)
               Final occupancy bounds   : [  0.0000,  1.0000]
================================================================================

................................................................................
<<<<<<<<<<<<<< LNV (Original version) density kernel optimisation >>>>>>>>>>>>>>
~~~~~~~~~~~~~~~~~~~~~~~~~~~~~~~~~~~~~~~~~~~~~~~~~~~~~~~~~~~~~~~~~~~~~~~~~~~~~~~~
   iter  |      energy (Eh)       | rms gradient |  commutator  |   dE (Eh)
MG BCs: +ve charge blocks (gridpoints):     24851 (   16969087).
MG BCs: -ve charge blocks (gridpoints):      8373 (    1079436).
MG BCs:     Elided blocks (gridpoints):    179437 (  181129358).
MG BCs: Computational effort saved:  99.9833%.
MG BCs: Charge after coarse-graining:           -9.0006764.
MG DL_MG: Calling solver with defect correction order = 8
MG DL_MG: Solver finished
MG Hartree energy from (\int phi*rho dr):              1251.635784
MG Hartree energy from (\int eps (grad phi)^2 dr):     1250.989568
MG Discrepancy due to finite box and discretization:     -0.646217 (  -0.05163%)
MG Correction to account for finite box:                  0.463135
MG Remaining discrepancy, due to discretization:         -0.183081 (  -0.01463%)
      ideal mu1:      -0.713226733221
             Q0:  -11687.379434585688
             G0:      -9.789218135542
   RMS gradient:       0.000478332461
MG BCs: +ve charge blocks (gridpoints):     24909 (   16985313).
MG BCs: -ve charge blocks (gridpoints):      8371 (    1075540).
MG BCs:     Elided blocks (gridpoints):    179379 (  181117028).
MG BCs: Computational effort saved:  99.9833%.
MG BCs: Charge after coarse-graining:           -9.0006716.
MG DL_MG: Calling solver with defect correction order = 8
MG DL_MG: Solver finished
MG Hartree energy from (\int phi*rho dr):              1271.262973
MG Hartree energy from (\int eps (grad phi)^2 dr):     1270.609758
MG Discrepancy due to finite box and discretization:     -0.653215 (  -0.05138%)
MG Correction to account for finite box:                  0.462950
MG Remaining discrepancy, due to discretization:         -0.190265 (  -0.01497%)
     Trial step:       0.868772939196
             Q1:  -11684.679801889812
 Quadratic coef:      11.204240507925
 Linear coef   :      -8.504607812048
           Qmin:  -11688.993295739096
Quadratic minimum step length (  0.329722176187) accepted
    Initial Ne1:    7227.99957829
      Final Ne1:    7228.00000000

=================== Penalty functional idempotency correction ==================
 RMS occupancy error at iteration   1:  0.000355 (step -0.4986 Ne1=   7228.0000)
 RMS occupancy error at iteration   2:  0.000000 (step -0.5000 Ne1=   7228.0000)
            Final RMS occupancy error   :  0.000000 (Ne1=   7228.0000)
               Final occupancy bounds   : [  0.0000,  1.0000]
================================================================================

    1        -1.168737943459E+04     4.7833E-04     4.3287E-04
MG BCs: +ve charge blocks (gridpoints):     24870 (   16975320).
MG BCs: -ve charge blocks (gridpoints):      8373 (    1078107).
MG BCs:     Elided blocks (gridpoints):    179418 (  181124454).
MG BCs: Computational effort saved:  99.9833%.
MG BCs: Charge after coarse-graining:           -9.0006745.
MG DL_MG: Calling solver with defect correction order = 8
MG DL_MG: Solver finished
MG Hartree energy from (\int phi*rho dr):              1257.780876
MG Hartree energy from (\int eps (grad phi)^2 dr):     1257.132136
MG Discrepancy due to finite box and discretization:     -0.648741 (  -0.05158%)
MG Correction to account for finite box:                  0.463040
MG Remaining discrepancy, due to discretization:         -0.185701 (  -0.01476%)
      ideal mu1:      -0.720125078354
             Q0:  -11688.958024715190
             G0:      -0.981843055875
   RMS gradient:       0.000152651340
MG BCs: +ve charge blocks (gridpoints):     24878 (   16975149).
MG BCs: -ve charge blocks (gridpoints):      8372 (    1078882).
MG BCs:     Elided blocks (gridpoints):    179410 (  181123850).
MG BCs: Computational effort saved:  99.9833%.
MG BCs: Charge after coarse-graining:           -9.0006743.
MG DL_MG: Calling solver with defect correction order = 8
MG DL_MG: Solver finished
MG Hartree energy from (\int phi*rho dr):              1259.004563
MG Hartree energy from (\int eps (grad phi)^2 dr):     1258.355411
MG Discrepancy due to finite box and discretization:     -0.649151 (  -0.05156%)
MG Correction to account for finite box:                  0.463047
MG Remaining discrepancy, due to discretization:         -0.186105 (  -0.01478%)
     Trial step:       0.535213699492
             Q1:  -11689.152145778644
 Quadratic coef:       0.331374790801
 Linear coef   :      -0.525495854255
           Qmin:  -11689.166358224938
Quadratic minimum step length (  0.424372324074) accepted
    Initial Ne1:    7227.99994471
      Final Ne1:    7228.00000000

=================== Penalty functional idempotency correction ==================
 RMS occupancy error at iteration   1:  0.000142 (step -0.4994 Ne1=   7228.0000)
            Final RMS occupancy error   :  0.000000 (Ne1=   7228.0000)
               Final occupancy bounds   : [ -0.0000,  1.0000]
================================================================================

    2        -1.168895802472E+04     1.5265E-04     1.3814E-04    -1.5786E+00
MG BCs: +ve charge blocks (gridpoints):     24876 (   16975192).
MG BCs: -ve charge blocks (gridpoints):      8372 (    1078678).
MG BCs:     Elided blocks (gridpoints):    179412 (  181124011).
MG BCs: Computational effort saved:  99.9833%.
MG BCs: Charge after coarse-graining:           -9.0006744.
MG DL_MG: Calling solver with defect correction order = 8
MG DL_MG: Solver finished
MG Hartree energy from (\int phi*rho dr):              1258.750830
MG Hartree energy from (\int eps (grad phi)^2 dr):     1258.101767
MG Discrepancy due to finite box and discretization:     -0.649063 (  -0.05156%)
MG Correction to account for finite box:                  0.463045
MG Remaining discrepancy, due to discretization:         -0.186018 (  -0.01478%)
      ideal mu1:      -0.721118091064
             Q0:  -11689.166835156619
             G0:      -0.144337511775
   RMS gradient:       0.000058015941
MG BCs: +ve charge blocks (gridpoints):     24877 (   16974451).
MG BCs: -ve charge blocks (gridpoints):      8372 (    1079161).
MG BCs:     Elided blocks (gridpoints):    179411 (  181124269).
MG BCs: Computational effort saved:  99.9833%.
MG BCs: Charge after coarse-graining:           -9.0006744.
MG DL_MG: Calling solver with defect correction order = 8
MG DL_MG: Solver finished
MG Hartree energy from (\int phi*rho dr):              1258.263799
MG Hartree energy from (\int eps (grad phi)^2 dr):     1257.614765
MG Discrepancy due to finite box and discretization:     -0.649034 (  -0.05158%)
MG Correction to account for finite box:                  0.463045
MG Remaining discrepancy, due to discretization:         -0.185989 (  -0.01478%)
     Trial step:       0.476581453195
             Q1:  -11689.210705209989
 Quadratic coef:       0.024918527743
 Linear coef   :      -0.068788581112
           Qmin:  -11689.214308556135
Quadratic minimum step length (  0.657810972792) accepted
    Initial Ne1:    7228.00060370
      Final Ne1:    7228.00000000

=================== Penalty functional idempotency correction ==================
 RMS occupancy error at iteration   1:  0.000061 (step -0.4998 Ne1=   7228.0000)
            Final RMS occupancy error   :  0.000000 (Ne1=   7228.0000)
               Final occupancy bounds   : [ -0.0000,  1.0000]
================================================================================

    3        -1.168916683516E+04     5.8016E-05     5.2502E-05    -2.0881E-01
MG BCs: +ve charge blocks (gridpoints):     24877 (   16974184).
MG BCs: -ve charge blocks (gridpoints):      8374 (    1079325).
MG BCs:     Elided blocks (gridpoints):    179411 (  181124372).
MG BCs: Computational effort saved:  99.9833%.
MG BCs: Charge after coarse-graining:           -9.0006744.
MG DL_MG: Calling solver with defect correction order = 8
MG DL_MG: Solver finished
MG Hartree energy from (\int phi*rho dr):              1258.078693
MG Hartree energy from (\int eps (grad phi)^2 dr):     1257.429669
MG Discrepancy due to finite box and discretization:     -0.649024 (  -0.05159%)
MG Correction to account for finite box:                  0.463046
MG Remaining discrepancy, due to discretization:         -0.185979 (  -0.01478%)
      ideal mu1:      -0.720147484184
             Q0:  -11689.214393490111
             G0:      -0.034317404897
   RMS gradient:       0.000028280965
MG BCs: +ve charge blocks (gridpoints):     24877 (   16973986).
MG BCs: -ve charge blocks (gridpoints):      8374 (    1079370).
MG BCs:     Elided blocks (gridpoints):    179411 (  181124525).
MG BCs: Computational effort saved:  99.9833%.
MG BCs: Charge after coarse-graining:           -9.0006745.
MG DL_MG: Calling solver with defect correction order = 8
MG DL_MG: Solver finished
MG Hartree energy from (\int phi*rho dr):              1258.094715
MG Hartree energy from (\int eps (grad phi)^2 dr):     1257.445794
MG Discrepancy due to finite box and discretization:     -0.648921 (  -0.05158%)
MG Correction to account for finite box:                  0.463050
MG Remaining discrepancy, due to discretization:         -0.185872 (  -0.01477%)
     Trial step:       0.559911162008
             Q1:  -11689.222794561763
 Quadratic coef:       0.010813626401
 Linear coef   :      -0.019214698053
           Qmin:  -11689.222929123938
Quadratic minimum step length (  0.497452173565) accepted
    Initial Ne1:    7228.00021572
      Final Ne1:    7228.00000000

=================== Penalty functional idempotency correction ==================
 RMS occupancy error at iteration   1:  0.000017 (step -0.4999 Ne1=   7228.0000)
            Final RMS occupancy error   :  0.000000 (Ne1=   7228.0000)
               Final occupancy bounds   : [ -0.0000,  1.0000]
================================================================================

    4        -1.168921439349E+04     2.8281E-05     2.5593E-05    -4.7558E-02
MG BCs: +ve charge blocks (gridpoints):     24876 (   16974004).
MG BCs: -ve charge blocks (gridpoints):      8374 (    1079367).
MG BCs:     Elided blocks (gridpoints):    179412 (  181124510).
MG BCs: Computational effort saved:  99.9833%.
MG BCs: Charge after coarse-graining:           -9.0006745.
MG DL_MG: Calling solver with defect correction order = 8
MG DL_MG: Solver finished
MG Hartree energy from (\int phi*rho dr):              1258.092740
MG Hartree energy from (\int eps (grad phi)^2 dr):     1257.443807
MG Discrepancy due to finite box and discretization:     -0.648933 (  -0.05158%)
MG Correction to account for finite box:                  0.463049
MG Remaining discrepancy, due to discretization:         -0.185884 (  -0.01478%)
      ideal mu1:      -0.720210526735
             Q0:  -11689.222933737794
             G0:      -0.011064067683
   RMS gradient:       0.000016077992
MG BCs: +ve charge blocks (gridpoints):     24877 (   16974550).
MG BCs: -ve charge blocks (gridpoints):      8373 (    1079138).
MG BCs:     Elided blocks (gridpoints):    179411 (  181124193).
MG BCs: Computational effort saved:  99.9833%.
MG BCs: Charge after coarse-graining:           -9.0006744.
MG DL_MG: Calling solver with defect correction order = 8
MG DL_MG: Solver finished
MG Hartree energy from (\int phi*rho dr):              1258.484127
MG Hartree energy from (\int eps (grad phi)^2 dr):     1257.835237
MG Discrepancy due to finite box and discretization:     -0.648890 (  -0.05156%)
MG Correction to account for finite box:                  0.463040
MG Remaining discrepancy, due to discretization:         -0.185850 (  -0.01477%)
     Trial step:       0.527758490736
             Q1:  -11689.225967722945
 Quadratic coef:       0.002805170510
 Linear coef   :      -0.005839155662
           Qmin:  -11689.225972388984
Quadratic minimum step length (  0.549282827537) accepted
    Initial Ne1:    7228.00008861
      Final Ne1:    7228.00000000

=================== Penalty functional idempotency correction ==================
 RMS occupancy error at iteration   1:  0.000009 (step -0.5000 Ne1=   7228.0000)
            Final RMS occupancy error   :  0.000000 (Ne1=   7228.0000)
               Final occupancy bounds   : [ -0.0000,  1.0000]
================================================================================

    5        -1.168922293374E+04     1.6078E-05     1.4550E-05    -8.5402E-03
MG BCs: +ve charge blocks (gridpoints):     24877 (   16974578).
MG BCs: -ve charge blocks (gridpoints):      8373 (    1079124).
MG BCs:     Elided blocks (gridpoints):    179411 (  181124179).
MG BCs: Computational effort saved:  99.9833%.
MG BCs: Charge after coarse-graining:           -9.0006744.
MG DL_MG: Calling solver with defect correction order = 8
MG DL_MG: Solver finished
MG Hartree energy from (\int phi*rho dr):              1258.500108
MG Hartree energy from (\int eps (grad phi)^2 dr):     1257.851220
MG Discrepancy due to finite box and discretization:     -0.648888 (  -0.05156%)
MG Correction to account for finite box:                  0.463040
MG Remaining discrepancy, due to discretization:         -0.185848 (  -0.01477%)
      ideal mu1:      -0.720529351260
             Q0:  -11689.225973275839
             G0:      -0.003280512324
   RMS gradient:       0.000008754738
MG BCs: +ve charge blocks (gridpoints):     24877 (   16974571).
MG BCs: -ve charge blocks (gridpoints):      8373 (    1079163).
MG BCs:     Elided blocks (gridpoints):    179411 (  181124147).
MG BCs: Computational effort saved:  99.9833%.
MG BCs: Charge after coarse-graining:           -9.0006744.
MG DL_MG: Calling solver with defect correction order = 8
MG DL_MG: Solver finished
MG Hartree energy from (\int phi*rho dr):              1258.473426
MG Hartree energy from (\int eps (grad phi)^2 dr):     1257.824548
MG Discrepancy due to finite box and discretization:     -0.648877 (  -0.05156%)
MG Correction to account for finite box:                  0.463033
MG Remaining discrepancy, due to discretization:         -0.185844 (  -0.01477%)
     Trial step:       0.538413109098
             Q1:  -11689.227069089189
 Quadratic coef:       0.000670457490
 Linear coef   :      -0.001766270840
           Qmin:  -11689.227136553425
Quadratic minimum step length (  0.709204825728) accepted
    Initial Ne1:    7228.00004024
      Final Ne1:    7228.00000000

=================== Penalty functional idempotency correction ==================
 RMS occupancy error at iteration   1:  0.000005 (step -0.5000 Ne1=   7228.0000)
            Final RMS occupancy error   :  0.000000 (Ne1=   7228.0000)
               Final occupancy bounds   : [ -0.0000,  1.0000]
================================================================================

    6        -1.168922597328E+04     8.7547E-06     7.9226E-06    -3.0395E-03
MG BCs: +ve charge blocks (gridpoints):     24877 (   16974572).
MG BCs: -ve charge blocks (gridpoints):      8373 (    1079183).
MG BCs:     Elided blocks (gridpoints):    179411 (  181124126).
MG BCs: Computational effort saved:  99.9833%.
MG BCs: Charge after coarse-graining:           -9.0006744.
MG DL_MG: Calling solver with defect correction order = 8
MG DL_MG: Solver finished
MG Hartree energy from (\int phi*rho dr):              1258.464943
MG Hartree energy from (\int eps (grad phi)^2 dr):     1257.816069
MG Discrepancy due to finite box and discretization:     -0.648874 (  -0.05156%)
MG Correction to account for finite box:                  0.463031
MG Remaining discrepancy, due to discretization:         -0.185843 (  -0.01477%)
      ideal mu1:      -0.720512918925
             Q0:  -11689.227136638365
             G0:      -0.001759169912
   RMS gradient:       0.000006412240
MG BCs: +ve charge blocks (gridpoints):     24877 (   16974337).
MG BCs: -ve charge blocks (gridpoints):      8373 (    1079223).
MG BCs:     Elided blocks (gridpoints):    179411 (  181124321).
MG BCs: Computational effort saved:  99.9833%.
MG BCs: Charge after coarse-graining:           -9.0006744.
MG DL_MG: Calling solver with defect correction order = 8
MG DL_MG: Solver finished
MG Hartree energy from (\int phi*rho dr):              1258.359692
MG Hartree energy from (\int eps (grad phi)^2 dr):     1257.710807
MG Discrepancy due to finite box and discretization:     -0.648884 (  -0.05157%)
MG Correction to account for finite box:                  0.463033
MG Remaining discrepancy, due to discretization:         -0.185851 (  -0.01477%)
     Trial step:       0.617936222605
             Q1:  -11689.227519162465
 Quadratic coef:       0.000704530710
 Linear coef   :      -0.001087054810
           Qmin:  -11689.227555955842
Quadratic minimum step length (  0.476721975049) accepted
    Initial Ne1:    7228.00000433
      Final Ne1:    7228.00000000

=================== Penalty functional idempotency correction ==================
 RMS occupancy error at iteration   1:  0.000000 (step -0.5000 Ne1=   7228.0000)
            Final RMS occupancy error   :  0.000000 (Ne1=   7228.0000)
               Final occupancy bounds   : [  0.0000,  1.0000]
================================================================================

    7        -1.168922713664E+04     6.4122E-06     5.8028E-06    -1.1634E-03
MG BCs: +ve charge blocks (gridpoints):     24877 (   16974378).
MG BCs: -ve charge blocks (gridpoints):      8373 (    1079219).
MG BCs:     Elided blocks (gridpoints):    179411 (  181124284).
MG BCs: Computational effort saved:  99.9833%.
MG BCs: Charge after coarse-graining:           -9.0006744.
MG DL_MG: Calling solver with defect correction order = 8
MG DL_MG: Solver finished
MG Hartree energy from (\int phi*rho dr):              1258.383706
MG Hartree energy from (\int eps (grad phi)^2 dr):     1257.734824
MG Discrepancy due to finite box and discretization:     -0.648882 (  -0.05156%)
MG Correction to account for finite box:                  0.463033
MG Remaining discrepancy, due to discretization:         -0.185849 (  -0.01477%)
      ideal mu1:      -0.720419827452
             Q0:  -11689.227555945865
             G0:      -0.001069941043
   RMS gradient:       0.000005000699
MG BCs: +ve charge blocks (gridpoints):     24877 (   16974316).
MG BCs: -ve charge blocks (gridpoints):      8373 (    1079249).
MG BCs:     Elided blocks (gridpoints):    179411 (  181124316).
MG BCs: Computational effort saved:  99.9833%.
MG BCs: Charge after coarse-graining:           -9.0006744.
MG DL_MG: Calling solver with defect correction order = 8
MG DL_MG: Solver finished
MG Hartree energy from (\int phi*rho dr):              1258.341607
MG Hartree energy from (\int eps (grad phi)^2 dr):     1257.692720
MG Discrepancy due to finite box and discretization:     -0.648887 (  -0.05157%)
MG Correction to account for finite box:                  0.463031
MG Remaining discrepancy, due to discretization:         -0.185856 (  -0.01477%)
     Trial step:       0.542755724515
             Q1:  -11689.228013410349
 Quadratic coef:       0.000123252141
 Linear coef   :      -0.000580716626
           Qmin:  -11689.228239974145
Quadratic minimum step length (  1.278627985102) accepted
    Initial Ne1:    7228.00000703
      Final Ne1:    7228.00000000

=================== Penalty functional idempotency correction ==================
 RMS occupancy error at iteration   1:  0.000006 (step -0.4998 Ne1=   7228.0000)
            Final RMS occupancy error   :  0.000000 (Ne1=   7228.0000)
               Final occupancy bounds   : [ -0.0000,  1.0000]
================================================================================

    8        -1.168922755595E+04     5.0007E-06     4.5254E-06    -4.1931E-04
MG BCs: +ve charge blocks (gridpoints):     24877 (   16974263).
MG BCs: -ve charge blocks (gridpoints):      8373 (    1079249).
MG BCs:     Elided blocks (gridpoints):    179411 (  181124369).
MG BCs: Computational effort saved:  99.9833%.
MG BCs: Charge after coarse-graining:           -9.0006745.
[...]
MG Discrepancy due to finite box and discretization:     -0.191222 (  -0.01573%)
MG Correction to account for finite box:                  0.006415
MG Remaining discrepancy, due to discretization:         -0.184807 (  -0.01520%)
     Trial step:       0.352371394109
             Q1:  -11723.609848463675
 Quadratic coef:       0.000000001419
 Linear coef   :      -0.000000001768
           Qmin:  -11723.609848463877
Quadratic minimum step length (  0.219548146355) accepted
    Initial Ne1:    7228.00000000
      Final Ne1:    7228.00000000

=================== Penalty functional idempotency correction ==================
 RMS occupancy error at iteration   1:  0.000000 (step -0.5000 Ne1=   7228.0000)
            Final RMS occupancy error   :  0.000000 (Ne1=   7228.0000)
               Final occupancy bounds   : [  0.0000,  1.0000]
================================================================================

    7        -1.172360984846E+04     1.0829E-08     9.7999E-09    -1.1642E-09

Reusing previously generated solute cavity.
MG BCs: +ve charge blocks (gridpoints):     29064 (   19208033).
MG BCs: -ve charge blocks (gridpoints):      8373 (    1048139).
MG BCs:     Elided blocks (gridpoints):    175224 (  178921709).
MG BCs: Computational effort saved:  99.9812%.
MG BCs: Charge after coarse-graining:           -9.0009496.
MG DL_MG: Calling solver with defect correction order = 8
MG DL_MG: Solver finished
MG Hartree energy from (\int phi*rho dr):              1215.794702
MG Hartree energy from (\int eps (grad phi)^2 dr):     1215.603480
MG Discrepancy due to finite box and discretization:     -0.191222 (  -0.01573%)
MG Correction to account for finite box:                  0.006415
MG Remaining discrepancy, due to discretization:         -0.184807 (  -0.01520%)
      ideal mu1:      -0.480201418739
             Q0:  -11723.609848463791
             G0:      -0.000000002828
   RMS gradient:       0.000000006554

Reusing previously generated solute cavity.
MG BCs: +ve charge blocks (gridpoints):     29064 (   19208033).
MG BCs: -ve charge blocks (gridpoints):      8373 (    1048140).
MG BCs:     Elided blocks (gridpoints):    175224 (  178921708).
MG BCs: Computational effort saved:  99.9812%.
MG BCs: Charge after coarse-graining:           -9.0009496.
MG DL_MG: Calling solver with defect correction order = 8
MG DL_MG: Solver finished
MG Hartree energy from (\int phi*rho dr):              1215.794703
MG Hartree energy from (\int eps (grad phi)^2 dr):     1215.603481
MG Discrepancy due to finite box and discretization:     -0.191222 (  -0.01573%)
MG Correction to account for finite box:                  0.006415
MG Remaining discrepancy, due to discretization:         -0.184807 (  -0.01520%)
     Trial step:       0.278141126777
             Q1:  -11723.609848463442
 Quadratic coef:       0.000000001135
 Linear coef   :      -0.000000000787
           Qmin:  -11723.609848463928
Quadratic minimum step length (  0.096371668722) accepted
    Initial Ne1:    7228.00000000
      Final Ne1:    7228.00000000

=================== Penalty functional idempotency correction ==================
 RMS occupancy error at iteration   1:  0.000000 (step -0.5000 Ne1=   7228.0000)
            Final RMS occupancy error   :  0.000000 (Ne1=   7228.0000)
               Final occupancy bounds   : [  0.0000,  1.0000]
================================================================================

    8        -1.172360984846E+04     6.5545E-09     5.9315E-09    -4.6566E-10

Reusing previously generated solute cavity.
MG BCs: +ve charge blocks (gridpoints):     29064 (   19208033).
MG BCs: -ve charge blocks (gridpoints):      8373 (    1048139).
MG BCs:     Elided blocks (gridpoints):    175224 (  178921709).
MG BCs: Computational effort saved:  99.9812%.
MG BCs: Charge after coarse-graining:           -9.0009496.
MG DL_MG: Calling solver with defect correction order = 8
MG DL_MG: Solver finished
MG Hartree energy from (\int phi*rho dr):              1215.794702
MG Hartree energy from (\int eps (grad phi)^2 dr):     1215.603480
MG Discrepancy due to finite box and discretization:     -0.191222 (  -0.01573%)
MG Correction to account for finite box:                  0.006415
MG Remaining discrepancy, due to discretization:         -0.184807 (  -0.01520%)
      ideal mu1:      -0.480201418367
             Q0:  -11723.609848463559
             G0:      -0.000000002869
   RMS gradient:       0.000000005511

Reusing previously generated solute cavity.
MG BCs: +ve charge blocks (gridpoints):     29064 (   19208033).
MG BCs: -ve charge blocks (gridpoints):      8373 (    1048140).
MG BCs:     Elided blocks (gridpoints):    175224 (  178921708).
MG BCs: Computational effort saved:  99.9812%.
MG BCs: Charge after coarse-graining:           -9.0009496.
MG DL_MG: Calling solver with defect correction order = 8
MG DL_MG: Solver finished
MG Hartree energy from (\int phi*rho dr):              1215.794702
MG Hartree energy from (\int eps (grad phi)^2 dr):     1215.603480
MG Discrepancy due to finite box and discretization:     -0.191222 (  -0.01573%)
MG Correction to account for finite box:                  0.006415
MG Remaining discrepancy, due to discretization:         -0.184807 (  -0.01520%)
     Trial step:       0.163722095417
             Q1:  -11723.609848463442
 Quadratic coef:       0.000000000586
 Linear coef   :      -0.000000000470
           Qmin:  -11723.609848463653
Quadratic minimum step length (  0.065641202596) accepted
    Initial Ne1:    7228.00000000
      Final Ne1:    7228.00000000

=================== Penalty functional idempotency correction ==================
 RMS occupancy error at iteration   1:  0.000000 (step -0.5000 Ne1=   7228.0000)
            Final RMS occupancy error   :  0.000000 (Ne1=   7228.0000)
               Final occupancy bounds   : [  0.0000,  1.0000]
================================================================================

    9        -1.172360984846E+04     5.5109E-09     4.9871E-09     2.3283E-10

Reusing previously generated solute cavity.
MG BCs: +ve charge blocks (gridpoints):     29064 (   19208033).
MG BCs: -ve charge blocks (gridpoints):      8373 (    1048139).
MG BCs:     Elided blocks (gridpoints):    175224 (  178921709).
MG BCs: Computational effort saved:  99.9812%.
MG BCs: Charge after coarse-graining:           -9.0009496.
MG DL_MG: Calling solver with defect correction order = 8
MG DL_MG: Solver finished
MG Hartree energy from (\int phi*rho dr):              1215.794702
MG Hartree energy from (\int eps (grad phi)^2 dr):     1215.603480
MG Discrepancy due to finite box and discretization:     -0.191222 (  -0.01573%)
MG Correction to account for finite box:                  0.006415
MG Remaining discrepancy, due to discretization:         -0.184807 (  -0.01520%)
      ideal mu1:      -0.480201417076
   10        -1.172360984846E+04     4.8393E-09     4.3793E-09    -1.1642E-10
Finished density kernel iterations (  10)


>>> Density kernel optimised for the current NGWF basis:
     ~~~~~~~~~~~~~~~~~~~~~~~~~~~~~~~~~~~~~~~~~~~~~~~~~~~~~~~~~~~
     Total energy                =  -1.17236098484637E+04  Eh
     Estimated bandgap           =   9.1727E-02  Eh
     RMS occupancy error         =   3.3894E-16
     [H,K] commutator            =   4.3793E-09
     Occupancy bounds            = [  0.000:  1.000]
     ~~~~~~~~~~~~~~~~~~~~~~~~~~~~~~~~~~~~~~~~~~~~~~~~~~~~~~~~~~~




################################################################################
########################### NGWF CG iteration  005 #############################
################################################################################
****** Reciprocal space K.E. preconditioning with k_zero =  3.5000 a0^-1 *******

>>> Checking for convergence of NGWFs: 
           ........................................................
           |         *** NGWF optimisation converged ***          |
           | RMS NGWF gradient =    0.00000089349620              |
           | Criteria satisfied:                                  |
           | -> RMS NGWF gradient lower than set threshold.       |
           ========================================================

Reusing previously generated solute cavity.
MG BCs: +ve charge blocks (gridpoints):     29064 (   19208033).
MG BCs: -ve charge blocks (gridpoints):      8373 (    1048139).
MG BCs:     Elided blocks (gridpoints):    175224 (  178921709).
MG BCs: Computational effort saved:  99.9812%.
MG BCs: Charge after coarse-graining:           -9.0009496.
MG DL_MG: Calling solver with defect correction order = 8
MG DL_MG: Solver finished
MG Hartree energy from (\int phi*rho dr):              1215.794702
MG Hartree energy from (\int eps (grad phi)^2 dr):     1215.603480
MG Discrepancy due to finite box and discretization:     -0.191222 (  -0.01573%)
MG Correction to account for finite box:                  0.006415
MG Remaining discrepancy, due to discretization:         -0.184807 (  -0.01520%)

================================================================================
           ---------------- ENERGY COMPONENTS (Eh) ----------------
           | Kinetic                    :     8563.13770745788679 |
           | Pseudo. (local,OBC,corr'd) :    -5066.74298109929623 |
           | Pseudopotential (non-local):     1408.52158603040152 |
           | Hartree (molecular)        :     1215.79470207861664 |
           | Exchange-correlation       :    -3372.91742843848169 |
           | Ion-ion (open BC)          :   834630.96786746452563 |
           | Dispersion Correction      :       -3.28901449547208 |
           | Smeared ion non-self corr. :  -834582.72695329121780 |
           | Smeared ion self corr.     :   -14517.01090595763344 |
           | Solvent cavitation energy  :        2.33237316417639 |
           | Solute-solvent dis-rep en. :       -1.67680137705551 |
           | Total                      :   -11723.60984846350402 |
           --------------------------------------------------------
           ------ LOCAL ENERGY COMPONENTS FROM MATRIX TRACES ------
           | Pseudopotential (local)    :    -5066.74298109930169 |
           | Hartree                    :    -1997.30970381013003 |
           --------------------------------------------------------
           Integrated density           :     7227.99999999895317
           Integrated density tr(KS)    :     7228.00000000000000
================================================================================


                        <<<<< CALCULATION SUMMARY >>>>>                         
|ITER|    RMS GRADIENT   |     TOTAL ENERGY    |   step   |     Epredicted              
   0     0.00004008461356 -11723.54741430352442   0.617741 -11723.60139318248184        
   1     0.00001008695510 -11723.60925138101447   0.089764 -11723.60974806887134        
   2     0.00000448169920 -11723.60982684663031   0.016614 -11723.60984499484766        
   3     0.00000201460245 -11723.60984757519327   0.003409 -11723.60984832754184        
   4     0.00000089349620 -11723.60984846367501  <-- CG                                 

=================== Finished the calculation in solvent ========================
= Adjusting the following parameters: 
= read_denskern: F
= read_tightbox_ngwfs: F
= maxit_pen: 0 (restored to user-specified value)
= restart read filename prefix: ""
= restart write filename prefix: ""
================================================================================

================================================================================
IS: Calculation in solvent completed (NGWFs converged).      

Individual components of total energy in solvent:     hartree           kcal/mol
- Usual non-electrostatic DFT terms:    -12940.06012232941066    -8120010.145543
- Electrostatic fixed charge energy:      1215.79470207861664      762922.677518
- Apolar cavitation energy:                  2.33237316417639        1463.586226
- Apolar dispersion-repulsion energy:       -1.67680137705551       -1052.208727
 -------------------------------------------------------------------------------
- Total energy in solvent:              -11723.60984846367501    -7356676.090527

Components of total energy in solvent:                hartree           kcal/mol
- Usual non-electrostatic DFT terms:    -12940.06012232941066    -8120010.145543
- Electrostatic energy:                   1215.79470207861664      762922.677518
- Apolar energy terms:                       0.65557178712088         411.377498
 -------------------------------------------------------------------------------
- Total energy in solvent:              -11723.60984846367501    -7356676.090527

Calculation of free energy of solvation:              hartree           kcal/mol
- Total energy in solvent:         (+)  -11723.60984846367501    -7356676.090527
- Total energy in vacuum:          (-)  -11719.63058816245757    -7354179.067042
 -------------------------------------------------------------------------------
- Total free energy of solvation:           -3.97926030121744       -2497.023485

Components of polar term in f.e. of solvation:        hartree           kcal/mol
- Electrostatic:                            -4.81053938910213       -3018.658977
- Change in nonelectrostatic DFT terms:      0.17570730076477         110.257993
 -------------------------------------------------------------------------------
- Polar term in f.e. of solvation:          -4.63483208833736       -2908.400983

Components of free energy of solvation:               hartree           kcal/mol
- Polar term in f.e. of solvation: (+)      -4.63483208833736       -2908.400983
- Apolar (cavitation, dis., rep.): (+)       0.65557178712088         411.377498
 -------------------------------------------------------------------------------
- Total free energy of solvation:           -3.97926030121648       -2497.023485
================================================================================


------------------------------ TIMING INFORMATION ------------------------------
AVERAGE TIME:   32524.358s on     60 node(s)                                    
TOTAL TIME:     32524.358s on     60 node(s)                                    
================= AVERAGE TIMINGS FROM ALL NODES (CUMULATIVE) ==================
|| TAG                                    #calls    cpu time   %total  Gflops ||
|| work_imbalance                       :     1        0.00s   0.000%  ------ ||
|| sparse_set_to_garbage                :   176        0.03s   0.000%  ------ ||
|| parallel_prepare_fd_halos_request    :  1947        0.03s   0.000%  ------ ||
|| ngwfs_initialise_from_radial         :     1        0.10s   0.000%  ------ ||
|| basis_extract_function_from_box      :  3597        0.16s   0.000%  ------ ||
|| parallel_prepare_fd_halos_satisfy    :  1947        0.69s   0.002%  ------ ||
|| parallel_prepare_fd_halos_alloc      :  1947        1.55s   0.005%  ------ ||
|| pseudopotentials_nonlocal_mat        :    30        2.12s   0.007%  ------ ||
|| density_init_guess_real              :     1        3.65s   0.011%  ------ ||
|| openbc_locps_radial                  :     1        4.72s   0.015%  ------ ||
|| restart_ngwfs_tightbox_input         :     1        8.80s   0.027%  ------ ||
|| restart_kernel_read                  :     1        9.69s   0.030%  ------ ||
|| parallel_prepare_fd_halos_comms_imbal:  1947        9.92s   0.030%  ------ ||
|| parallel_prepare_fd_halos_clear      :  1947       20.77s   0.064%  ------ ||
|| sparse_init                          :     2       21.96s   0.068%  ------ ||
|| projectors_func_ovlp_box             :    30       28.63s   0.088%  ------ ||
|| parallel_prepare_fd_halos_comms_wait :  1947       28.92s   0.089%  ------ ||
|| function_ops_brappd_ketppd           :    30       31.96s   0.098%  ------ ||
|| projectors_init_fftbox_recip         :   142       32.37s   0.100%  ------ ||
|| palser_mano_kernel_optimise          :     1       35.78s   0.110%  ------ ||
|| basis_copy_function_to_box           : 57996       41.26s   0.127%  ------ ||
|| ngwf_gradient_coeffs                 :    16       49.80s   0.153%  ------ ||
|| fourier_apply_box_pair               :  5138       53.01s   0.163% 561.130 ||
|| pseudo_make_structure_factor         :     2       53.21s   0.164%  ------ ||
|| parallel_prepare_fd_halos            :  1947       61.90s   0.190%  ------ ||
|| restart_kernel_write                 :    12       73.87s   0.227%  ------ ||
|| sparse_embed_hotelling_invert_embed  :    30       79.21s   0.244%  ------ ||
|| projectors_gradient_batch            :   112      152.63s   0.469%  ------ ||
|| finite_difference_derivative         :  1947      159.67s   0.491%  ------ ||
|| integrals_kinetic                    :    30      160.61s   0.494%  ------ ||
|| sparse_trace                         :  5058      172.19s   0.529%  ------ ||
|| basis_dot_function_with_box          : 8.915M     177.03s   0.544%  ------ ||
|| fourier_apply_cell_backward          :  1299      184.05s   0.566% 100.117 ||
|| fourier_apply_cell_forward           :  1297      240.02s   0.738%  76.650 ||
|| openbc_locps_on_grid                 :     2      270.84s   0.833%  ------ ||
|| kernel_purify                        :   495      302.82s   0.931%  ------ ||
|| basis_add_function_to_box            : 18.58M     423.84s   1.303%  ------ ||
|| lnv_gradient_norm                    :   160      439.96s   1.353%  ------ ||
|| kernel_fix                           :   160      475.24s   1.461%  ------ ||
|| xc_energy_potential                  :   324      490.94s   1.509%  ------ ||
|| hamiltonian_energy_components        :     4      501.55s   1.542%  ------ ||
|| ngwf_gradient_build_batch            :   112      762.27s   2.344%  ------ ||
|| integrals_locpot_mat_els_batch       :  1183      808.57s   2.486%  ------ ||
|| restart_ngwfs_tightbox_output        :    10      921.52s   2.833%  ------ ||
|| ngwf_gradient_batch                  :   112     1073.37s   3.300%  ------ ||
|| density_batch_row_sums               :  2261     1203.15s   3.699%  ------ ||
|| ngwf_gradient_lnv                    :    16     1225.90s   3.769%  ------ ||
|| cell_grid_deposit_box_real           : 37520     1373.06s   4.222%  ------ ||
|| cell_grid_extract_box_real           : 41086     1612.71s   4.958%  ------ ||
|| sparse_product                       :  6507     1827.76s   5.620%  ------ ||
|| density_fftbox_deposit_to_cell       : 35530     2003.16s   6.159%  ------ ||
|| density_fftbox_interpolate_multiply  : 35530     3655.71s  11.240%  ------ ||
|| potential_apply_to_ngwf_batch        :  1183     3664.47s  11.267%  ------ ||
|| integrals_locpot_dbl_grid            :   169     4491.51s  13.810%  ------ ||
|| fourier_apply_box                    : 122.1k    4518.63s  13.893% 758.868 ||
|| multigrid_prepare_bound_cond         :   324     4645.49s  14.283%  ------ ||
|| density_batch_interp_deposit         :  2261     6604.20s  20.305%  ------ ||
|| density_on_dbl_grid                  :   323     8189.45s  25.179%  ------ ||
|| dl_mg_solver_calls                   :   324     8774.78s  26.979%  ------ ||
|| multigrid_calculate_hartree          :   324    13636.79s  41.928%  ------ ||
|| hamiltonian_lhxc_calculate           :   319    22246.04s  68.398%  ------ ||
|| lnv_denskernel_optimise_cg           :    16    27499.75s  84.551%  ------ ||
|| ngwf_cg_optimise                     :     2    31570.34s  97.067%  ------ ||
|| total_time                           :     1    32524.36s 100.000%  ------ ||
================================================================================
Overhead of generating timer report: 
- 0 ms averaging over threads,
- 15 ms ensuring consistency across MPI ranks,
- 0 ms printing in order.

Job completed: 10-06-2020 18:13 (+0100)

Application 40813494 resources: utime ~6859862s, stime ~228548s, Rss ~3667324, inblocks ~312614210, outblocks ~48747127
