 +---------------------------------------------------------------+
 |                                                               |
 |        ####### #     # ####### ####### ####### ######         |
 |        #     # ##    # #          #    #       #     #        |
 |        #     # # #   # #          #    #       #     #        |
 |        #     # #  #  # #####      #    #####   ######         |
 |        #     # #   # # #          #    #       #              |
 |        #     # #    ## #          #    #       #              |
 |        ####### #     # #######    #    ####### #              |
 |                                                               |
 |        Linear-Scaling Ab Initio Total Energy Program          |
 |                                                               |
 |          Release for academic collaborators of ODG            |
 |                                             Version 5.3.2.6.  |
 |                                                               |
 +---------------------------------------------------------------+
 |                                                               |
 |  Authors:                                                     |
 |  Jacek Dziedzic, Peter D. Haynes, Nicholas D. M. Hine,        |
 |  Arash. A. Mostofi, Mike C. Payne and Chris-Kriton Skylaris   |
 |                                                               |
 |  Contributors:                                                |
 |  J. Aarons, L. Andrinopoulos, P. W. Avraam, R. A. Bell,       |
 |  A. Bhandari, G. A. Bramley, R. J. Charlton, S. J. Clark,     |
 |  R. J. Clements, G. C. Constantinescu, F. Corsetti,           |
 |  N. Corsini, O. Dieguez, S. M. M. Dubois, K. K. B. Duff,      |
 |  J. M. Escartin, A. Greco, H. Helal, Q. O. Hill, L. P. Lee,   |
 |  J.-H. Li, E. B. Linscott, G. Moynihan, D. D. O`Regan,        |
 |  O. K. Okan, M. J. S. Phipps, C. J. Pickard,                  |
 |  J. C. A. Prentice, M. I. J. Probert, L. E. Ratcliff,         |
 |  M. Robinson, A. Ruiz Serrano, J. S. Spencer, E. W. Tait,     |
 |  G. Teobaldi, D. Turban, V. Vitale, K. A. Wilkinson,          |
 |  C. Weber, J. C. Womack, N. Yeung and T. J. Zuehlsdorff       |
 |                                                               |
 |                                   Copyright (c) 2004-2019     |
 |                                                               |
 |  Please cite:                                                 |
 |  "Introducing ONETEP: Linear-scaling density functional       |
 |   simulations on parallel computers".                         |
 |   C.-K. Skylaris, P. D. Haynes, A. A. Mostofi, M. C. Payne.   |
 |   J. Chem. Phys. 122 084119 (2005).                           |
 |                                                               |
 |          in all publications arising from your use of ONETEP. |
 |                                                               |
 +---------------------------------------------------------------+
 |                                                               |
 |   ONETEP is based on developments described in the following  |
 |   publications:                                               |
 |                                                               |
 |  "Nonorthogonal generalized Wannier function pseudopotential  |
 |   plane-wave method".                                         |
 |   C.-K. Skylaris, A. A. Mostofi, P. D. Haynes, O. Dieguez,    |
 |   M. C. Payne.                                                |
 |   Phys. Rev. B 66 035119 (2002).                              |
 |                                                               |
 |  "Preconditioned iterative minimization for linear-scaling    |
 |   electronic structure calculations".                         |
 |   A. A. Mostofi, P. D. Haynes, C.-K. Skylaris, M. C. Payne.   |
 |   J. Chem. Phys. 119(17), pp.8842-8848 (2003).                |
 |                                                               |
 |  "Total-energy calculations on a real space grid with         |
 |   localized functions and a plane-wave basis".                |
 |   A. A. Mostofi, C.-K. Skylaris, P. D. Haynes, M. C. Payne.   |
 |   Comput. Phys. Commun. 147, pp.788-802 (2002).               |
 |                                                               |
 |  "Accurate kinetic energy evaluation in electronic structure  |
 |   calculations with localized functions on real space grids"  |
 |   C.-K. Skylaris, A. A. Mostofi, P. D. Haynes, C. J. Pickard, |
 |   M. C. Payne.                                                |
 |   Comput. Phys. Commun. 140, pp.315-322 (2001).               |
 |                                                               |
 |  "Accurate ionic forces and geometry optimization in linear-  |
 |   scaling density-functional theory with local orbitals"      |
 |   N. D. M. Hine, M. Robinson, P. D. Haynes, C.-K. Skylaris,   |
 |   M. C. Payne, and A. A. Mostofi.                             |
 |   Phys. Rev. B 83 195102 (2011).                              |
 |                                                               |
 +---------------------------------------------------------------+

Job started: 08-06-2020 07:47 (+0100)
 
Reading parameters from file "complex_35441.dat" ...... done

If your calculation crashes here, before "Checking processes and threads..."
is displayed, then your stack size is insufficient.
If so, use "ulimit -s unlimited" at runtime.
You can disable this check with "check_stack_size F".

Checking processes and threads...
   Determining the default number of threads...
      No default threads set at compilation time: defaulting to 1.
      OpenMP library call suggests 4 threads.
      Hybrid MPI-OpenMP compilation detected.
      Number of MPI processes > 1.
      OMP_NUM_THREADS environment variable present and
      its value matches the one obtained from the OpenMP library call.
      Using this value as default.
      Default threads: 4
      Default applies to threads_max and threads_num_fftboxes.
      Settings in the input file override this default.
   ... done

   Running with 60 MPI processes.
   There are 6 MPI processes running on the same node as the root process.
   Each MPI process is using: 
               1 threads for simulation cell FFTs.
               1 threads for parallel FFT box operations.
               4 threads for loops over batched FFT box operations.
               4 threads in other parallel regions.
... done

Basic input checks...... done

Reading geometry and species blocks from file "complex_35441.dat" ...
  <species_atomic_set> block not found: NGWF initialisation set to SOLVE
IS: Dielectric excluded regions:
    - NONE.
    
  Number of PPD points along a3 set to 1.  This is 
  the default value, it may have been provided also in the input file.
... done
 Writing xyz coordinates to file "complex_35441.xyz" ... done


--------------------------------------------------------------------------------
---------------------------------- INPUT FILE ----------------------------------
--------------------------------------------------------------------------------

cutoff_energy       : 800 eV                                                    
xc_functional PBE                                                               
task SINGLEPOINT                                                                
write_xyz true                                                                  
output_detail VERBOSE                                                           
ngwf_threshold_orig : 0.000002                                                  
kernel_cutoff       : 1000                                                      
k_zero              : 3.5                                                       
elec_cg_max 0                                                                   
occ_mix 1.0                                                                     
dispersion 1                                                                    
maxit_ngwf_cg 40                                                                
minit_lnv 10                                                                    
maxit_lnv 10                                                                    
write_denskern F                                                                
write_tightbox_ngwfs F                                                          
charge 9                                                                        
is_implicit_solvent T                                                           
is_auto_solvation T                                                             
is_include_apolar T                                                             
is_smeared_ion_rep T                                                            
is_solvent_surf_tension 4.7624E-5 Ha/bohr**2                                    
is_apolar_scaling_factor 0.281075                                               
is_solvation_beta 1.3                                                           
is_density_threshold 0.00035                                                    
is_bulk_permittivity 78.54                                                      
is_dielectric_model fix_initial                                                 
is_smeared_ion_width 0.8                                                        
mg_defco_fd_order 8                                                             
is_bc_coarseness 10                                                             
is_bc_surface_coarseness 1                                                      
fine_grid_scale 2.0                                                             
%block species                                                                  
N   N   7 4 8.0                                                                 
H   H   1 1 8.0                                                                 
C   C   6 4 8.0                                                                 
S   S  16 9 8.0                                                                 
O   O   8 4 8.0                                                                 
%endblock species                                                               
%block species_pot                                                              
N   N_00.recpot                                                                 
H   H_04.recpot                                                                 
C   C_01.recpot                                                                 
S   S_00.recpot                                                                 
O   O_02.recpot                                                                 
%endblock species_pot                                                           
%block lattice_cart                                                             
140.777   0.000   0.000                                                         
0.000 144.511   0.000                                                           
0.000   0.000   162.462                                                         
%endblock lattice_cart                                                          
%block positions_abs                                                            
     Hash =   000004326151996478039996
%endblock positions_abs                                                         

--------------------------------------------------------------------------------
-------------------------------- END INPUT FILE --------------------------------
--------------------------------------------------------------------------------


 
 ESDF WARNING(1): "kernelcutoff" (esdf_physical) has no units. Assume "bohr".
 ESDF WARNING(2): "kzero" (esdf_physical) has no units. Assume "1/bohr".
 ESDF WARNING(3
 ): "issmearedionwidth" (esdf_physical) has no units. Assume "bohr".
<<<<<<<<<<<<<<<<<<<<<<<<<<<<<<<<< Full system >>>>>>>>>>>>>>>>>>>>>>>>>>>>>>>>>>
<<<<<<<<<<<<<<<<<<<<<<<<< Pseudopotential information >>>>>>>>>>>>>>>>>>>>>>>>>>
File: N_00.recpot [ 2001 points up to Gmax=  52.9 (1/bohr)]
  Atomic number:  7;  ionic charge:  5.000000
    Shell 1: l = 0; rc = 1.48 bohr
File: H_04.recpot [ 2001 points up to Gmax=  52.9 (1/bohr)]
  Atomic number:  1;  ionic charge:  1.000000
    Local potential
File: C_01.recpot [ 2001 points up to Gmax=  52.9 (1/bohr)]
  Atomic number:  6;  ionic charge:  4.000000
    Shell 1: l = 0; rc = 1.48 bohr
File: S_00.recpot [ 2001 points up to Gmax=  52.9 (1/bohr)]
  Atomic number: 16;  ionic charge:  6.000000
    Shell 1: l = 0; rc = 1.90 bohr
    Shell 2: l = 2; rc = 1.84 bohr
File: O_02.recpot [ 2001 points up to Gmax=  52.9 (1/bohr)]
  Atomic number:  8;  ionic charge:  6.000000
    Shell 1: l = 0; rc = 1.31 bohr
<<<<<<<<<<<<<<<<<<<<<<<<<<<<<<<<<<<<<<<<>>>>>>>>>>>>>>>>>>>>>>>>>>>>>>>>>>>>>>>>

-------------------------- Atom counting information ---------------------------
Symbol    Natoms    Nngwfs    Nprojs
  N        236       944       236
  H       1319      1319         0
  C        817      3268       817
  S          6        54        36
  O        239       956       239
.......   ......    ......    ......
Totals:   2617      6541      1328
--------------------------------------------------------------------------------

=============================== PSINC grid sizes ===============================
                      Simulation cell:  280 x 286 x 320
                              FFT-box:   99 x  99 x  99
                                  PPD:    5 x  11 x   1
Grid space d1=  0.502775000000a0 (KE cutoff=  30.05084Eh = 817.72503eV)
Grid space d2=  0.505283216783a0 (KE cutoff=  29.75324Eh = 809.62684eV)
Grid space d3=  0.507693750000a0 (KE cutoff=  29.47137Eh = 801.95686eV)
================================================================================

********************* Fourier parallelisation information **********************
       Coarse grid (whole simulation cell) dimensions:    280   286   320
          Real-space ('12') slabs/node (min max mean):      5     6     5
         Recip-space ('23') slabs/node (min max mean):      2     3     2
********************************************************************************

********************* Fourier parallelisation information **********************
       Double grid (whole simulation cell) dimensions:    560   572   640
          Real-space ('12') slabs/node (min max mean):     10    11    10
         Recip-space ('23') slabs/node (min max mean):      4     5     4
********************************************************************************
ONETEP fine grid is 560 x 572 x 640 gridpoints, 140.7770 x 144.5110 x 162.4620 bohr.
FD multigrid is     553 x 569 x 633 gridpoints, 139.0173 x 143.7531 x 160.6851 bohr.


Calculating local pseudopotential in open BC on a radial grid ...
Discrepancy between calculated realspace psloc and -Z/x on [5a0,259.028a0]:
max |rel. diff| # avg |rel. diff| #  avg rel. diff #  f # pseudopotential file
 0.000261578119    0.000004844123   0.000000072210   55  'N_00.recpot'
 0.000419583258    0.000017514079  -0.000000069370   55  'H_04.recpot'
 0.000363553651    0.000016734795   0.000000141192   55  'C_01.recpot'
 0.000449990737    0.000019382085   0.000000449342   55  'S_00.recpot'
 0.000706973137    0.000028359832   0.000000146371   55  'O_02.recpot'
... done

Atom SCF Calculation for N  : Z (AE atom) =   7 : Z (PS atom) =   5
Config String:
Orbitals (num,occ):  2     2.00 3.00
Orbitals   (num,l):  2        0    1
Real-space Grid (nr,dr,rmax): 1203    0.0066555740    8.0000000000
Spherical Bessel Basis (nsws,lmax,cutoff):   47    1  176.3951722778
Confining potential (l,width,scale):  0    3.0000000000  100.0000000000
Confining potential (l,width,scale):  1    3.0000000000  100.0000000000
  1         -4.7312375307   -3.4155304497    7.0523828109   -1.9351020946
  2         -9.7309464766   -2.0532547791    8.2966052865   -2.2494486027
  3         -9.6627394379   -2.1124926340    8.2327997121   -2.2369778124
  4         -9.6814993499   -2.1215521045    8.2229805960   -2.2365178421
  5         -9.6843326483   -2.1250939529    8.2191374534   -2.2362718126
  6         -9.6859628709   -2.1267894855    8.2172963573   -2.2362066344
  7         -9.6867347035   -2.1276425665    8.2163697352   -2.2361903369
  8         -9.6870802100   -2.1280764625    8.2158983890   -2.2361891460
  9         -9.6872290423   -2.1282977424    8.2156580222   -2.2361920435
 10         -9.6872901988   -2.1284107021    8.2155353368   -2.2361953393
 11         -9.6873135296   -2.1284684031    8.2154726809   -2.2361979819
 12         -9.6873212476   -2.1284978948    8.2154406648   -2.2361998431
 13         -9.6873229586   -2.1285129774    8.2154242957   -2.2362010676
 14         -9.6873226456   -2.1285206957    8.2154159216   -2.2362018403
 15         -9.6873218534   -2.1285246479    8.2154116349   -2.2362023142
 16         -9.6873212599   -2.1285262679    8.2154098784   -2.2362025420
 17         -9.6873207834   -2.1285272564    8.2154088068   -2.2362026955
 18         -9.6873204210   -2.1285278596    8.2154081529   -2.2362027982
 19         -9.6873201550   -2.1285282280    8.2154077538   -2.2362028667
 20         -9.6873199645   -2.1285284529    8.2154075102   -2.2362029121
 21         -9.6873198305   -2.1285285903    8.2154073614   -2.2362029421
 22         -9.6873197377   -2.1285286742    8.2154072705   -2.2362029618
Atom SCF converged after  22 iterations to a total energy of     -9.68731974

Atom SCF Calculation for H  : Z (AE atom) =   1 : Z (PS atom) =   1
Config String:
Orbitals (num,occ):  1     1.00
Orbitals   (num,l):  1        0
Real-space Grid (nr,dr,rmax): 1203    0.0066555740    8.0000000000
Spherical Bessel Basis (nsws,lmax,cutoff):   47    0  176.3951722778
Confining potential (l,width,scale):  0    3.0000000000  100.0000000000
  1         -0.3194257691   -0.2393854593    0.2820953124   -0.2424203209
  2         -0.3951823392   -0.2377116493    0.2886404059   -0.2475147891
  3         -0.4317044583   -0.2352244387    0.2921333887   -0.2514046172
  4         -0.4470703708   -0.2341892222    0.2934391879   -0.2531009782
  5         -0.4532132900   -0.2338556667    0.2938388426   -0.2537313520
  6         -0.4556579251   -0.2337612552    0.2939448584   -0.2539550462
  7         -0.4566418315   -0.2337377355    0.2939680120   -0.2540342273
  8         -0.4570437922   -0.2337331116    0.2939708287   -0.2540627372
  9         -0.4572102946   -0.2337328328    0.2939698291   -0.2540732650
 10         -0.4572800424   -0.2337332404    0.2939687193   -0.2540772588
 11         -0.4573095100   -0.2337335791    0.2939680317   -0.2540788122
 12         -0.4573220379   -0.2337337762    0.2939676699   -0.2540794294
 13         -0.4573273880   -0.2337338775    0.2939674931   -0.2540796787
 14         -0.4573296803   -0.2337339266    0.2939674099   -0.2540797808
 15         -0.4573306647   -0.2337339495    0.2939673718   -0.2540798230
 16         -0.4573310882   -0.2337339601    0.2939673545   -0.2540798406
 17         -0.4573312706   -0.2337339649    0.2939673467   -0.2540798479
 18         -0.4573313493   -0.2337339670    0.2939673433   -0.2540798510
Atom SCF converged after  18 iterations to a total energy of     -0.45733135

Atom SCF Calculation for C  : Z (AE atom) =   6 : Z (PS atom) =   4
Config String:
Orbitals (num,occ):  2     2.00 2.00
Orbitals   (num,l):  2        0    1
Real-space Grid (nr,dr,rmax): 1203    0.0066555740    8.0000000000
Spherical Bessel Basis (nsws,lmax,cutoff):   47    1  176.3951722778
Confining potential (l,width,scale):  0    3.0000000000  100.0000000000
Confining potential (l,width,scale):  1    3.0000000000  100.0000000000
  1         -5.2976922011   -1.3069684169    4.5135249990   -1.4493313817
  2         -5.3721716256   -1.3429755895    4.4750154450   -1.4361613026
  3         -5.3809959565   -1.3617365618    4.4541655428   -1.4305930207
  4         -5.3918938866   -1.3667928461    4.4484735100   -1.4294652294
  5         -5.3956096428   -1.3688539142    4.4461376126   -1.4290734646
  6         -5.3968271862   -1.3696852393    4.4451910874   -1.4289366866
  7         -5.3972028401   -1.3700178062    4.4448112275   -1.4288900460
  8         -5.3973067903   -1.3701500158    4.4446598370   -1.4288749220
  9         -5.3973286940   -1.3702023868    4.4445997329   -1.4288704293
 10         -5.3973289850   -1.3702230869    4.4445759233   -1.4288693188
 11         -5.3973254264   -1.3702312560    4.4445665049   -1.4288691775
 12         -5.3973224003   -1.3702344755    4.4445627836   -1.4288692549
 13         -5.3973208708   -1.3702354890    4.4445616088   -1.4288693270
 14         -5.3973198783   -1.3702360102    4.4445610034   -1.4288693814
 15         -5.3973192535   -1.3702362780    4.4445606917   -1.4288694190
 16         -5.3973188684   -1.3702364155    4.4445605313   -1.4288694437
 17         -5.3973186349   -1.3702364860    4.4445604489   -1.4288694595
 18         -5.3973184951   -1.3702365221    4.4445604065   -1.4288694693
 19         -5.3973184122   -1.3702365405    4.4445603848   -1.4288694753
Atom SCF converged after  19 iterations to a total energy of     -5.39731841

Atom SCF Calculation for S  : Z (AE atom) =  16 : Z (PS atom) =   6
Config String:
Orbitals (num,occ):  3     2.00 4.00 0.00
Orbitals   (num,l):  3        0    1    2
Real-space Grid (nr,dr,rmax): 1203    0.0066555740    8.0000000000
Spherical Bessel Basis (nsws,lmax,cutoff):   47    2  176.3951722778
Confining potential (l,width,scale):  0    3.0000000000  100.0000000000
Confining potential (l,width,scale):  1    3.0000000000  100.0000000000
Confining potential (l,width,scale):  2    3.0000000000  100.0000000000
  1        -12.4735062396   -1.0328741412   10.1554312477   -2.4512393157
  2         -9.9458301913   -2.4607392455    8.3041325857   -2.0306994528
  3        -10.1450417646   -2.2931184565    8.4831893826   -2.0812538287
  4        -10.1528335592   -2.2733105793    8.5050388867   -2.0896035179
  5        -10.1571940363   -2.2633716629    8.5160794258   -2.0939370707
  6        -10.1594380571   -2.2584938667    8.5215163935   -2.0961289008
  7        -10.1605856507   -2.2561081821    8.5241804044   -2.0972291378
  8        -10.1611799191   -2.2549395235    8.5254868240   -2.0977806248
  9        -10.1614918752   -2.2543658586    8.5261285885   -2.0980571586
 10        -10.1616572884   -2.2540839121    8.5264441898   -2.0981959233
 11        -10.1617455602   -2.2539453058    8.5265994231   -2.0982656006
 12        -10.1617928447   -2.2538772062    8.5266757320   -2.0983006047
 13        -10.1618182292   -2.2538437891    8.5267131983   -2.0983181961
 14        -10.1618318741   -2.2538274201    8.5267315620   -2.0983270391
 15        -10.1618392144   -2.2538194197    8.5267405433   -2.0983314852
 16        -10.1618431651   -2.2538155200    8.5267449245   -2.0983337210
 17        -10.1618452923   -2.2538136252    8.5267470551   -2.0983348455
 18        -10.1618464380   -2.2538127080    8.5267480875   -2.0983354110
 19        -10.1618470552   -2.2538122659    8.5267485856   -2.0983356955
 20        -10.1618473878   -2.2538120540    8.5267488248   -2.0983358386
 21        -10.1618475670   -2.2538119530    8.5267489389   -2.0983359106
 22        -10.1618476637   -2.2538119053    8.5267489929   -2.0983359468
Atom SCF converged after  22 iterations to a total energy of    -10.16184766

Atom SCF Calculation for O  : Z (AE atom) =   8 : Z (PS atom) =   6
Config String:
Orbitals (num,occ):  2     2.00 4.00
Orbitals   (num,l):  2        0    1
Real-space Grid (nr,dr,rmax): 1203    0.0066555740    8.0000000000
Spherical Bessel Basis (nsws,lmax,cutoff):   47    1  176.3951722778
Confining potential (l,width,scale):  0    3.0000000000  100.0000000000
Confining potential (l,width,scale):  1    3.0000000000  100.0000000000
  1         -1.8735052164   -7.5539365035   10.1554312477   -2.4512393157
  2        -16.0318313751   -3.1285771268   13.6395848164   -3.2358799643
  3        -15.9524020423   -3.0762819706   13.6967272503   -3.2536856837
  4        -15.8521515939   -3.0781493909   13.6951909330   -3.2561700440
  5        -15.8357139793   -3.0748501933   13.6988803334   -3.2580493133
  6        -15.8246052853   -3.0740779781   13.6997881576   -3.2588327446
  7        -15.8189019501   -3.0737449687   13.7001869911   -3.2592378801
  8        -15.8159785510   -3.0736026016   13.7003615168   -3.2594475790
  9        -15.8144776168   -3.0735437994   13.7004360379   -3.2595560735
 10        -15.8137058024   -3.0735207882   13.7004667348   -3.2596122456
 11        -15.8133083127   -3.0735125946   13.7004786868   -3.2596413656
 12        -15.8131032938   -3.0735102195   13.7004828997   -3.2596564858
 13        -15.8129973902   -3.0735099286   13.7004840891   -3.2596643505
 14        -15.8129426040   -3.0735102506   13.7004842061   -3.2596684489
 15        -15.8129142203   -3.0735106556   13.7004840157   -3.2596705887
 16        -15.8128994940   -3.0735109855   13.7004837906   -3.2596717080
 17        -15.8128918425   -3.0735112169   13.7004836103   -3.2596722946
 18        -15.8128878614   -3.0735113674   13.7004834848   -3.2596726026
 19        -15.8128857871   -3.0735114608   13.7004834035   -3.2596727646
 20        -15.8128847048   -3.0735115170   13.7004833533   -3.2596728500
 21        -15.8128841394   -3.0735115501   13.7004833231   -3.2596728951
 22        -15.8128838436   -3.0735115693   13.7004833054   -3.2596729190
 23        -15.8128836887   -3.0735115802   13.7004832951   -3.2596729316
 24        -15.8128836074   -3.0735115864   13.7004832893   -3.2596729383
Atom SCF converged after  24 iterations to a total energy of    -15.81288361

========================== Calculation in vacuum ==============================
= Adjusting the following parameters: 
= is_implicit_solvent: F
= is_include_apolar: F
= write_denskern: T
= write_tightbox_ngwfs: T
= restart read filename prefix: ""
= restart write filename prefix: "vacuum_"
===============================================================================

Determining parallel strategy ...
... using space-filling curve
... NGWF load balancing: max    110;  min    109;  average    109
... Projector load balancing: max     26;  min     21;  average     22
... done
Calculating direct Ion-Ion energy ...
Ion-Ion Energy        :    827113.56373678566888
======================= Empirical dispersion information =======================
Model : Elstner
Dispersion Correction Energy: -0.32807778E+01 Hartree
================================================================================
Basis initialisation ...... NGWF spheres initialised
... Projector spheres initialised
... NGWF tight boxes initialised
... Tight-boxes gathered
... NGWF basis size (local,global):    1039791  62358543
... Nonlocal pseudopotential projector initialisation
... done

========================== Sparse matrix information ===========================
                        Overlap matrix filling:   6.71%
                        Density kernel filling: 100.00%
              NGWF-Proj overlap matrix filling:   1.76%
                    Hamiltonian matrix filling:   7.55%
                  NGWF diagonal matrix filling:   0.05%
                             KS matrix filling: 100.00% 
                           KSKS matrix filling: 100.00% 
================================================================================

Sparse matrix initialisation ... done

Generating smeared ion density ... done
Smeared ion self correction:     -14517.010906
Smeared ion non-self correction: -827065.229982
NGWF initialisation ...... done
============ Calculation of NGWF S^-1 using Hotelling algorithm ================ 
         Iteration  |  Frobenius norm and Maximum abs value    (of I-S*S_n^-1)   
               1       0.78728774E+02     0.98288272E+00
               2       0.76895225E+02     0.96619689E+00
               3       0.73917823E+02     0.93404010E+00
               4       0.69670961E+02     0.87411855E+00
               5       0.64366584E+02     0.77158509E+00
               6       0.58394675E+02     0.70489331E+00
               7       0.52375383E+02     0.67085262E+00
               8       0.46812069E+02     0.64430400E+00
               9       0.40766211E+02     0.60424442E+00
              10       0.32543081E+02     0.53562786E+00
              11       0.21985403E+02     0.42377623E+00
              12       0.11323148E+02     0.27903240E+00
              13       0.37817995E+01     0.13463521E+00
              14       0.61859478E+00     0.36756608E-01
              15       0.33427810E-01     0.37171040E-02
              16       0.24812997E-03     0.40490418E-04
              17       0.24713220E-07     0.48650282E-08
              18       0.96899685E-13     0.52180482E-14
================================================================================
Calculating local pseudopotential in open BC on the fine real space grid ...
... done

MG BCs: +ve charge blocks (gridpoints):     20642 (   16122313).
MG BCs: -ve charge blocks (gridpoints):      8042 (    1080243).
MG BCs:     Elided blocks (gridpoints):    183646 (  181975325).
MG BCs: Computational effort saved:  99.9856%.
MG BCs: Charge after coarse-graining:           -9.0002339.
MG DL_MG: Calling solver with defect correction order = 8
MG DL_MG: Solver finished
MG Hartree energy from (\int phi*rho dr):              1471.602947
MG Hartree energy from (\int eps (grad phi)^2 dr):     1470.989501
MG Discrepancy due to finite box and discretization:     -0.613446 (  -0.04169%)
MG Correction to account for finite box:                  0.459065
MG Remaining discrepancy, due to discretization:         -0.154381 (  -0.01049%)
Up spin density kernel initialisation ... 
======= Optimisation of K by Palser-Manolopoulos canonical purification ======== 
         Iteration  |  Band structure energy |    c_n   
               1       -2573.49509682047756    0.5278644
               2       -2749.93386432643547    0.5176722
               3       -2932.11236870647235    0.5152279
               4       -3085.98940286397738    0.5277964
               5       -3182.20317193058327    0.5626981
               6       -3223.12035866926999    0.6083345
               7       -3237.00671690853505    0.6218070
               8       -3242.96175242319623    0.6218942
               9       -3245.84884496006271    0.6418016
              10       -3247.02788618782370    0.6728069
              11       -3247.48394865698447    0.6811055
              12       -3247.70014536561393    0.6558062
              13       -3247.82556816493070    0.5839898
              14       -3247.90616830123190    0.4463825
              15       -3247.94048383610925    0.2964589
              16       -3247.94206547196245    0.2523455
              17       -3247.94280303056257    0.2193827
              18       -3247.94302857629009    0.2252225
              19       -3247.94317724323719    0.2421064
              20       -3247.94333018357338    0.2638177
              21       -3247.94348849540847    0.2919641
              22       -3247.94365054262835    0.3285886
              23       -3247.94381157798671    0.3749076
              24       -3247.94396161279928    0.4277817
              25       -3247.94408579438732    0.4741029
              26       -3247.94417330088163    0.4965419
              27       -3247.94422561288502    0.4999384
              28       -3247.94424530155447    0.5000000
              29       -3247.94424746995173    0.5000001
              30       -3247.94424749249538    0.5000001
Termination criterion satisfied: band energy change below threshold.
Final occupancy bounds: [    0.00000000000032:    0.99999999999997]
Closest occupancy to 0.5:     0.99999999999990
================================================================================
... done

Writing density kernel to file "complex_35441.vacuum_dkn" ... done

>>> Optimising kernel for current NGWFs:
   Initial electron number for spin 1:    7228.00000000
     Final electron number for spin 1:    7228.00000000

=================== Penalty functional idempotency correction ==================
 RMS occupancy error at iteration   1:  0.000000 (step -0.5000 Ne1=   7228.0000)
            Final RMS occupancy error   :  0.000000 (Ne1=   7228.0000)
               Final occupancy bounds   : [  0.0000,  1.0000]
================================================================================

................................................................................
<<<<<<<<<<<<<< LNV (Original version) density kernel optimisation >>>>>>>>>>>>>>
~~~~~~~~~~~~~~~~~~~~~~~~~~~~~~~~~~~~~~~~~~~~~~~~~~~~~~~~~~~~~~~~~~~~~~~~~~~~~~~~
   iter  |      energy (Eh)       | rms gradient |  commutator  |   dE (Eh)
MG BCs: +ve charge blocks (gridpoints):     30990 (   17260263).
MG BCs: -ve charge blocks (gridpoints):      8339 (    1113587).
MG BCs:     Elided blocks (gridpoints):    173288 (  180804031).
MG BCs: Computational effort saved:  99.9803%.
MG BCs: Charge after coarse-graining:           -9.0009565.
MG DL_MG: Calling solver with defect correction order = 8
MG DL_MG: Solver finished
MG Hartree energy from (\int phi*rho dr):              1427.168907
MG Hartree energy from (\int eps (grad phi)^2 dr):     1426.498192
MG Discrepancy due to finite box and discretization:     -0.670715 (  -0.04700%)
MG Correction to account for finite box:                  0.472181
MG Remaining discrepancy, due to discretization:         -0.198533 (  -0.01391%)
      ideal mu1:      -0.696426989494
             Q0:  -11550.251838831929
             G0:    -144.257210726402
   RMS gradient:       0.001836219589
MG BCs: +ve charge blocks (gridpoints):     31009 (   17343961).
MG BCs: -ve charge blocks (gridpoints):      8268 (    1093112).
MG BCs:     Elided blocks (gridpoints):    173271 (  180740808).
MG BCs: Computational effort saved:  99.9803%.
MG BCs: Charge after coarse-graining:           -9.0009777.
MG DL_MG: Calling solver with defect correction order = 8
MG DL_MG: Solver finished
MG Hartree energy from (\int phi*rho dr):              1452.198284
MG Hartree energy from (\int eps (grad phi)^2 dr):     1451.544077
MG Discrepancy due to finite box and discretization:     -0.654208 (  -0.04505%)
MG Correction to account for finite box:                  0.471828
MG Remaining discrepancy, due to discretization:         -0.182379 (  -0.01256%)
     Trial step:       0.500000000000
             Q1:  -11561.717921560165
 Quadratic coef:      60.662522634966
 Linear coef   :     -72.128605363201
           Qmin:  -11571.692324182935
Quadratic minimum step length (  0.297253568720) accepted
    Initial Ne1:    7228.00000000
      Final Ne1:    7228.00000000

=================== Penalty functional idempotency correction ==================
 RMS occupancy error at iteration   1:  0.003395 (step -0.4884 Ne1=   7228.0000)
 RMS occupancy error at iteration   2:  0.000028 (step -0.5001 Ne1=   7228.0000)
            Final RMS occupancy error   :  0.000000 (Ne1=   7228.0000)
               Final occupancy bounds   : [  0.0000,  1.0000]
================================================================================

    1        -1.155025183883E+04     1.8362E-03     1.6617E-03
MG BCs: +ve charge blocks (gridpoints):     31010 (   17311324).
MG BCs: -ve charge blocks (gridpoints):      8309 (    1101637).
MG BCs:     Elided blocks (gridpoints):    173268 (  180764920).
MG BCs: Computational effort saved:  99.9803%.
MG BCs: Charge after coarse-graining:           -9.0009694.
MG DL_MG: Calling solver with defect correction order = 8
MG DL_MG: Solver finished
MG Hartree energy from (\int phi*rho dr):              1434.142965
MG Hartree energy from (\int eps (grad phi)^2 dr):     1433.483019
MG Discrepancy due to finite box and discretization:     -0.659946 (  -0.04602%)
MG Correction to account for finite box:                  0.471872
MG Remaining discrepancy, due to discretization:         -0.188074 (  -0.01311%)
      ideal mu1:      -0.739344605195
             Q0:  -11572.090763012180
             G0:     -12.178787651735
   RMS gradient:       0.000529942921
MG BCs: +ve charge blocks (gridpoints):     31014 (   17328779).
MG BCs: -ve charge blocks (gridpoints):      8279 (    1096430).
MG BCs:     Elided blocks (gridpoints):    173264 (  180752672).
MG BCs: Computational effort saved:  99.9803%.
MG BCs: Charge after coarse-graining:           -9.0009731.
MG DL_MG: Calling solver with defect correction order = 8
MG DL_MG: Solver finished
MG Hartree energy from (\int phi*rho dr):              1439.256923
MG Hartree energy from (\int eps (grad phi)^2 dr):     1438.600935
MG Discrepancy due to finite box and discretization:     -0.655988 (  -0.04558%)
MG Correction to account for finite box:                  0.471157
MG Remaining discrepancy, due to discretization:         -0.184831 (  -0.01284%)
     Trial step:       0.385521444747
             Q1:  -11574.945457758149
 Quadratic coef:       1.840489064798
 Linear coef   :      -4.695183810767
           Qmin:  -11575.085177844428
Quadratic minimum step length (  0.491742678808) accepted
    Initial Ne1:    7227.99985830
      Final Ne1:    7228.00000000

=================== Penalty functional idempotency correction ==================
 RMS occupancy error at iteration   1:  0.001828 (step -0.4926 Ne1=   7228.0000)
 RMS occupancy error at iteration   2:  0.000014 (step -0.5003 Ne1=   7228.0000)
            Final RMS occupancy error   :  0.000000 (Ne1=   7228.0000)
               Final occupancy bounds   : [  0.0000,  1.0000]
================================================================================

    2        -1.157209076301E+04     5.2994E-04     4.7957E-04    -2.1839E+01
MG BCs: +ve charge blocks (gridpoints):     31018 (   17333651).
MG BCs: -ve charge blocks (gridpoints):      8275 (    1095030).
MG BCs:     Elided blocks (gridpoints):    173260 (  180749200).
MG BCs: Computational effort saved:  99.9803%.
MG BCs: Charge after coarse-graining:           -9.0009740.
MG DL_MG: Calling solver with defect correction order = 8
MG DL_MG: Solver finished
MG Hartree energy from (\int phi*rho dr):              1440.714918
MG Hartree energy from (\int eps (grad phi)^2 dr):     1440.059948
MG Discrepancy due to finite box and discretization:     -0.654971 (  -0.04546%)
MG Correction to account for finite box:                  0.470972
MG Remaining discrepancy, due to discretization:         -0.183998 (  -0.01277%)
      ideal mu1:      -0.763701815534
             Q0:  -11575.122659467976
             G0:      -1.939179994083
   RMS gradient:       0.000211523300
MG BCs: +ve charge blocks (gridpoints):     31016 (   17333103).
MG BCs: -ve charge blocks (gridpoints):      8285 (    1096066).
MG BCs:     Elided blocks (gridpoints):    173262 (  180748712).
MG BCs: Computational effort saved:  99.9803%.
MG BCs: Charge after coarse-graining:           -9.0009737.
MG DL_MG: Calling solver with defect correction order = 8
MG DL_MG: Solver finished
MG Hartree energy from (\int phi*rho dr):              1438.483345
MG Hartree energy from (\int eps (grad phi)^2 dr):     1437.828910
MG Discrepancy due to finite box and discretization:     -0.654435 (  -0.04549%)
MG Correction to account for finite box:                  0.470634
MG Remaining discrepancy, due to discretization:         -0.183801 (  -0.01278%)
     Trial step:       0.435404809319
             Q1:  -11575.618472305010
 Quadratic coef:       0.348515458523
 Linear coef   :      -0.844328295558
           Qmin:  -11575.634035831094
Quadratic minimum step length (  0.527415056548) accepted
    Initial Ne1:    7227.99987851
      Final Ne1:    7228.00000000

=================== Penalty functional idempotency correction ==================
 RMS occupancy error at iteration   1:  0.000656 (step -0.4961 Ne1=   7228.0000)
 RMS occupancy error at iteration   2:  0.000005 (step -0.5003 Ne1=   7228.0000)
            Final RMS occupancy error   :  0.000000 (Ne1=   7228.0000)
               Final occupancy bounds   : [  0.0000,  1.0000]
================================================================================

    3        -1.157512265947E+04     2.1152E-04     1.9142E-04    -3.0319E+00
MG BCs: +ve charge blocks (gridpoints):     31019 (   17333039).
MG BCs: -ve charge blocks (gridpoints):      8285 (    1096238).
MG BCs:     Elided blocks (gridpoints):    173259 (  180748604).
MG BCs: Computational effort saved:  99.9803%.
MG BCs: Charge after coarse-graining:           -9.0009736.
MG DL_MG: Calling solver with defect correction order = 8
MG DL_MG: Solver finished
MG Hartree energy from (\int phi*rho dr):              1438.021896
MG Hartree energy from (\int eps (grad phi)^2 dr):     1437.367563
MG Discrepancy due to finite box and discretization:     -0.654333 (  -0.04550%)
MG Correction to account for finite box:                  0.470564
MG Remaining discrepancy, due to discretization:         -0.183769 (  -0.01278%)
      ideal mu1:      -0.764582051462
             Q0:  -11575.638812749297
             G0:      -0.518480722323
   RMS gradient:       0.000109520768
MG BCs: +ve charge blocks (gridpoints):     31012 (   17334088).
MG BCs: -ve charge blocks (gridpoints):      8284 (    1095938).
MG BCs:     Elided blocks (gridpoints):    173265 (  180747855).
MG BCs: Computational effort saved:  99.9803%.
MG BCs: Charge after coarse-graining:           -9.0009738.
MG DL_MG: Calling solver with defect correction order = 8
MG DL_MG: Solver finished
MG Hartree energy from (\int phi*rho dr):              1439.308962
MG Hartree energy from (\int eps (grad phi)^2 dr):     1438.654651
MG Discrepancy due to finite box and discretization:     -0.654311 (  -0.04546%)
MG Correction to account for finite box:                  0.470435
MG Remaining discrepancy, due to discretization:         -0.183876 (  -0.01278%)
     Trial step:       0.479206690404
             Q1:  -11575.771121932776
 Quadratic coef:       0.116150247504
 Linear coef   :      -0.248459430983
           Qmin:  -11575.771683944518
Quadratic minimum step length (  0.512540542011) accepted
    Initial Ne1:    7227.99993682
      Final Ne1:    7228.00000000

=================== Penalty functional idempotency correction ==================
 RMS occupancy error at iteration   1:  0.000342 (step -0.4911 Ne1=   7228.0000)
 RMS occupancy error at iteration   2:  0.000006 (step -0.5002 Ne1=   7228.0000)
            Final RMS occupancy error   :  0.000000 (Ne1=   7228.0000)
               Final occupancy bounds   : [  0.0000,  1.0000]
================================================================================

    4        -1.157563881275E+04     1.0952E-04     9.9111E-05    -5.1615E-01
MG BCs: +ve charge blocks (gridpoints):     31012 (   17334163).
MG BCs: -ve charge blocks (gridpoints):      8283 (    1095911).
MG BCs:     Elided blocks (gridpoints):    173265 (  180747807).
MG BCs: Computational effort saved:  99.9803%.
MG BCs: Charge after coarse-graining:           -9.0009738.
MG DL_MG: Calling solver with defect correction order = 8
MG DL_MG: Solver finished
MG Hartree energy from (\int phi*rho dr):              1439.399293
MG Hartree energy from (\int eps (grad phi)^2 dr):     1438.744982
MG Discrepancy due to finite box and discretization:     -0.654310 (  -0.04546%)
MG Correction to account for finite box:                  0.470427
MG Remaining discrepancy, due to discretization:         -0.183884 (  -0.01278%)
      ideal mu1:      -0.765201945249
             Q0:  -11575.772290877532
             G0:      -0.215576321912
   RMS gradient:       0.000070831863
MG BCs: +ve charge blocks (gridpoints):     31014 (   17334232).
MG BCs: -ve charge blocks (gridpoints):      8283 (    1095768).
MG BCs:     Elided blocks (gridpoints):    173263 (  180747881).
MG BCs: Computational effort saved:  99.9803%.
MG BCs: Charge after coarse-graining:           -9.0009739.
MG DL_MG: Calling solver with defect correction order = 8
MG DL_MG: Solver finished
MG Hartree energy from (\int phi*rho dr):              1439.848918
MG Hartree energy from (\int eps (grad phi)^2 dr):     1439.194475
MG Discrepancy due to finite box and discretization:     -0.654443 (  -0.04545%)
MG Correction to account for finite box:                  0.470396
MG Remaining discrepancy, due to discretization:         -0.184046 (  -0.01278%)
     Trial step:       0.495593439056
             Q1:  -11575.844513716758
 Quadratic coef:       0.034615371529
 Linear coef   :      -0.106838210755
           Qmin:  -11575.854728265702
Quadratic minimum step length (  0.764809302225) accepted
    Initial Ne1:    7227.99991646
      Final Ne1:    7228.00000000

=================== Penalty functional idempotency correction ==================
 RMS occupancy error at iteration   1:  0.000804 (step -0.4489 Ne1=   7228.0000)
 RMS occupancy error at iteration   2:  0.000027 (step -0.4998 Ne1=   7228.0000)
            Final RMS occupancy error   :  0.000000 (Ne1=   7228.0000)
               Final occupancy bounds   : [ -0.0000,  1.0000]
================================================================================

    5        -1.157577229088E+04     7.0832E-05     6.4099E-05    -1.3348E-01
MG BCs: +ve charge blocks (gridpoints):     31011 (   17334211).
MG BCs: -ve charge blocks (gridpoints):      8282 (    1095684).
MG BCs:     Elided blocks (gridpoints):    173266 (  180747986).
MG BCs: Computational effort saved:  99.9803%.
MG BCs: Charge after coarse-graining:           -9.0009740.
MG DL_MG: Calling solver with defect correction order = 8
MG DL_MG: Solver finished
MG Hartree energy from (\int phi*rho dr):              1440.092082
MG Hartree energy from (\int eps (grad phi)^2 dr):     1439.437566
MG Discrepancy due to finite box and discretization:     -0.654515 (  -0.04545%)
MG Correction to account for finite box:                  0.470380
MG Remaining discrepancy, due to discretization:         -0.184135 (  -0.01279%)
      ideal mu1:      -0.765166723650
             Q0:  -11575.852636909229
             G0:      -0.236869276074
   RMS gradient:       0.000075522463
MG BCs: +ve charge blocks (gridpoints):     31008 (   17333147).
MG BCs: -ve charge blocks (gridpoints):      8285 (    1096231).
MG BCs:     Elided blocks (gridpoints):    173269 (  180748503).
MG BCs: Computational effort saved:  99.9803%.
MG BCs: Charge after coarse-graining:           -9.0009738.
MG DL_MG: Calling solver with defect correction order = 8
MG DL_MG: Solver finished
MG Hartree energy from (\int phi*rho dr):              1438.543721
MG Hartree energy from (\int eps (grad phi)^2 dr):     1437.889268
MG Discrepancy due to finite box and discretization:     -0.654453 (  -0.04549%)
MG Correction to account for finite box:                  0.470345
MG Remaining discrepancy, due to discretization:         -0.184108 (  -0.01280%)
     Trial step:       0.615657755828
             Q1:  -11575.950975041371
 Quadratic coef:       0.047492274791
 Linear coef   :      -0.145830406932
           Qmin:  -11575.964584103165
Quadratic minimum step length (  0.945223422745) accepted
    Initial Ne1:    7228.00011864
      Final Ne1:    7228.00000000

=================== Penalty functional idempotency correction ==================
 RMS occupancy error at iteration   1:  0.004652 (step -0.2947 Ne1=   7228.0000)
 RMS occupancy error at iteration   2:  0.000367 (step -0.4823 Ne1=   7228.0000)
 RMS occupancy error at iteration   3:  0.000008 (step -0.5001 Ne1=   7228.0000)
            Final RMS occupancy error   :  0.000000 (Ne1=   7228.0000)
               Final occupancy bounds   : [  0.0000,  1.0000]
================================================================================

    6        -1.157585263691E+04     7.5522E-05     6.8344E-05    -8.0346E-02
MG BCs: +ve charge blocks (gridpoints):     31009 (   17332624).
MG BCs: -ve charge blocks (gridpoints):      8285 (    1096511).
MG BCs:     Elided blocks (gridpoints):    173268 (  180748746).
MG BCs: Computational effort saved:  99.9803%.
MG BCs: Charge after coarse-graining:           -9.0009736.
MG DL_MG: Calling solver with defect correction order = 8
MG DL_MG: Solver finished
MG Hartree energy from (\int phi*rho dr):              1437.744793
MG Hartree energy from (\int eps (grad phi)^2 dr):     1437.090334
MG Discrepancy due to finite box and discretization:     -0.654459 (  -0.04552%)
MG Correction to account for finite box:                  0.470360
MG Remaining discrepancy, due to discretization:         -0.184099 (  -0.01280%)
      ideal mu1:      -0.764710217451
             Q0:  -11575.955583952484
             G0:      -0.330687554917
   RMS gradient:       0.000087915364
MG BCs: +ve charge blocks (gridpoints):     31010 (   17334493).
MG BCs: -ve charge blocks (gridpoints):      8285 (    1095611).
MG BCs:     Elided blocks (gridpoints):    173267 (  180747777).
MG BCs: Computational effort saved:  99.9803%.
MG BCs: Charge after coarse-graining:           -9.0009741.
MG DL_MG: Calling solver with defect correction order = 8
MG DL_MG: Solver finished
MG Hartree energy from (\int phi*rho dr):              1439.764120
MG Hartree energy from (\int eps (grad phi)^2 dr):     1439.110036
MG Discrepancy due to finite box and discretization:     -0.654084 (  -0.04543%)
MG Correction to account for finite box:                  0.470246
MG Remaining discrepancy, due to discretization:         -0.183838 (  -0.01277%)
     Trial step:       0.762846073073
             Q1:  -11576.070470936014
 Quadratic coef:       0.137376719153
 Linear coef   :      -0.252263702683
           Qmin:  -11576.071391376194
Quadratic minimum step length (  0.700403882686) accepted
    Initial Ne1:    7227.99995324
      Final Ne1:    7228.00000000

=================== Penalty functional idempotency correction ==================
 RMS occupancy error at iteration   1:  0.000270 (step -0.4819 Ne1=   7228.0000)
 RMS occupancy error at iteration   2:  0.000003 (step -0.5000 Ne1=   7228.0000)
            Final RMS occupancy error   :  0.000000 (Ne1=   7228.0000)
               Final occupancy bounds   : [  0.0000,  1.0000]
================================================================================

    7        -1.157595558395E+04     8.7915E-05     7.9559E-05    -1.0295E-01
MG BCs: +ve charge blocks (gridpoints):     31010 (   17334302).
MG BCs: -ve charge blocks (gridpoints):      8285 (    1095705).
MG BCs:     Elided blocks (gridpoints):    173267 (  180747874).
MG BCs: Computational effort saved:  99.9803%.
MG BCs: Charge after coarse-graining:           -9.0009741.
MG DL_MG: Calling solver with defect correction order = 8
MG DL_MG: Solver finished
MG Hartree energy from (\int phi*rho dr):              1439.598385
MG Hartree energy from (\int eps (grad phi)^2 dr):     1438.944271
MG Discrepancy due to finite box and discretization:     -0.654114 (  -0.04544%)
MG Correction to account for finite box:                  0.470255
MG Remaining discrepancy, due to discretization:         -0.183859 (  -0.01277%)
      ideal mu1:      -0.766080629994
             Q0:  -11576.071509779198
             G0:      -0.265503254757
   RMS gradient:       0.000078807357
MG BCs: +ve charge blocks (gridpoints):     31010 (   17334310).
MG BCs: -ve charge blocks (gridpoints):      8281 (    1095527).
MG BCs:     Elided blocks (gridpoints):    173268 (  180748044).
MG BCs: Computational effort saved:  99.9803%.
MG BCs: Charge after coarse-graining:           -9.0009741.
MG DL_MG: Calling solver with defect correction order = 8
MG DL_MG: Solver finished
MG Hartree energy from (\int phi*rho dr):              1439.515376
MG Hartree energy from (\int eps (grad phi)^2 dr):     1438.861458
MG Discrepancy due to finite box and discretization:     -0.653919 (  -0.04543%)
MG Correction to account for finite box:                  0.470227
MG Remaining discrepancy, due to discretization:         -0.183692 (  -0.01276%)
     Trial step:       0.730958515562
             Q1:  -11576.171050933539
 Quadratic coef:       0.094530710634
 Linear coef   :      -0.194071864974
           Qmin:  -11576.171117326105
Quadratic minimum step length (  0.750330138123) accepted
    Initial Ne1:    7227.99995873
      Final Ne1:    7228.00000000

=================== Penalty functional idempotency correction ==================
 RMS occupancy error at iteration   1:  0.001421 (step -0.4193 Ne1=   7228.0000)
 RMS occupancy error at iteration   2:  0.000053 (step -0.4977 Ne1=   7228.0000)
 RMS occupancy error at iteration   3:  0.000000 (step -0.5000 Ne1=   7228.0000)
            Final RMS occupancy error   :  0.000000 (Ne1=   7228.0000)
               Final occupancy bounds   : [  0.0000,  1.0000]
================================================================================

    8        -1.157607150978E+04     7.8807E-05     7.1317E-05    -1.1593E-01
MG BCs: +ve charge blocks (gridpoints):     31010 (   17334302).
MG BCs: -ve charge blocks (gridpoints):      8281 (    1095531).
MG BCs:     Elided blocks (gridpoints):    173268 (  180748048).
MG BCs: Computational effort saved:  99.9803%.
MG BCs: Charge after coarse-graining:           -9.0009741.
MG DL_MG: Calling solver with defect correction order = 8
MG DL_MG: Solver finished
MG Hartree energy from (\int phi*rho dr):              1439.515479
MG Hartree energy from (\int eps (grad phi)^2 dr):     1438.861565
MG Discrepancy due to finite box and discretization:     -0.653913 (  -0.04543%)
MG Correction to account for finite box:                  0.470226
MG Remaining discrepancy, due to discretization:         -0.183688 (  -0.01276%)
      ideal mu1:      -0.765495710142
             Q0:  -11576.171866006567
             G0:      -0.207956540679
   RMS gradient:       0.000069024219
MG BCs: +ve charge blocks (gridpoints):     31012 (   17333404).
MG BCs: -ve charge blocks (gridpoints):      8284 (    1096060).
MG BCs:     Elided blocks (gridpoints):    173266 (  180748417).
MG BCs: Computational effort saved:  99.9803%.
MG BCs: Charge after coarse-graining:           -9.0009738.
MG DL_MG: Calling solver with defect correction order = 8
MG DL_MG: Solver finished
MG Hartree energy from (\int phi*rho dr):              1438.480283
MG Hartree energy from (\int eps (grad phi)^2 dr):     1437.826447
MG Discrepancy due to finite box and discretization:     -0.653836 (  -0.04545%)
MG Correction to account for finite box:                  0.470187
MG Remaining discrepancy, due to discretization:         -0.183650 (  -0.01277%)
     Trial step:       0.740580990807
             Q1:  -11576.242696826695
 Quadratic coef:       0.083177840812
 Linear coef   :      -0.154008660941
           Qmin:  -11576.243155028418
Quadratic minimum step length (  0.685614615617) accepted
    Initial Ne1:    7227.99997107
      Final Ne1:    7228.00000000

=================== Penalty functional idempotency correction ==================
 RMS occupancy error at iteration   1:  0.002512 (step -0.3797 Ne1=   7228.0000)
 RMS occupancy error at iteration   2:  0.000116 (step -0.4961 Ne1=   7228.0000)
 RMS occupancy error at iteration   3:  0.000001 (step -0.5000 Ne1=   7228.0000)
            Final RMS occupancy error   :  0.000000 (Ne1=   7228.0000)
               Final occupancy bounds   : [  0.0000,  1.0000]
================================================================================

    9        -1.157617186601E+04     6.9024E-05     6.2464E-05    -1.0036E-01
MG BCs: +ve charge blocks (gridpoints):     31012 (   17333450).
MG BCs: -ve charge blocks (gridpoints):      8283 (    1096034).
MG BCs:     Elided blocks (gridpoints):    173266 (  180748397).
MG BCs: Computational effort saved:  99.9803%.
MG BCs: Charge after coarse-graining:           -9.0009738.
MG DL_MG: Calling solver with defect correction order = 8
MG DL_MG: Solver finished
MG Hartree energy from (\int phi*rho dr):              1438.555929
MG Hartree energy from (\int eps (grad phi)^2 dr):     1437.902073
MG Discrepancy due to finite box and discretization:     -0.653855 (  -0.04545%)
MG Correction to account for finite box:                  0.470207
MG Remaining discrepancy, due to discretization:         -0.183649 (  -0.01277%)
      ideal mu1:      -0.764483086861
   10        -1.157624763878E+04     5.3189E-05     4.8134E-05    -7.5773E-02
Finished density kernel iterations (  10)

Writing density kernel to file "complex_35441.vacuum_dkn" ... done


>>> Density kernel optimised for the current NGWF basis:
     ~~~~~~~~~~~~~~~~~~~~~~~~~~~~~~~~~~~~~~~~~~~~~~~~~~~~~~~~~~~
     Total energy                =  -1.15762476387805E+04  Eh
     Estimated bandgap           =  -4.2148E-01  Eh
     RMS occupancy error         =   1.8413E-10
     [H,K] commutator            =   4.8134E-05
     Occupancy bounds            = [  0.000:  1.000]
     ~~~~~~~~~~~~~~~~~~~~~~~~~~~~~~~~~~~~~~~~~~~~~~~~~~~~~~~~~~~




################################################################################
########################### NGWF CG iteration  001 #############################
################################################################################
****** Reciprocal space K.E. preconditioning with k_zero =  3.5000 a0^-1 *******

>>> Checking for convergence of NGWFs:   NOT CONVERGED
  ========================================================================
         NGWF RMS gradient =  1.6023E-03 >  2.0000E-06  | above tolerance
  ========================================================================

>>> Improving NGWFs using line search:
============ Calculation of NGWF S^-1 using Hotelling algorithm ================ 
         Iteration  |  Frobenius norm and Maximum abs value    (of I-S*S_n^-1)   
               1       0.19960269E+00     0.55316039E-02
               2       0.92588883E-03     0.47354881E-04
               3       0.34870960E-07     0.34915393E-08
               4       0.12776384E-12     0.73274720E-14
================================================================================
MG BCs: +ve charge blocks (gridpoints):     30527 (   17281532).
MG BCs: -ve charge blocks (gridpoints):      8276 (    1095955).
MG BCs:     Elided blocks (gridpoints):    173752 (  180800394).
MG BCs: Computational effort saved:  99.9805%.
MG BCs: Charge after coarse-graining:           -9.0009787.
MG DL_MG: Calling solver with defect correction order = 8
MG DL_MG: Solver finished
MG Hartree energy from (\int phi*rho dr):              1406.490808
MG Hartree energy from (\int eps (grad phi)^2 dr):     1405.837950
MG Discrepancy due to finite box and discretization:     -0.652858 (  -0.04642%)
MG Correction to account for finite box:                  0.470120
MG Remaining discrepancy, due to discretization:         -0.182739 (  -0.01299%)
============ Calculation of NGWF S^-1 using Hotelling algorithm ================ 
         Iteration  |  Frobenius norm and Maximum abs value    (of I-S*S_n^-1)   
               1       0.18487655E+01     0.44469943E-01
               2       0.71016059E-01     0.27639003E-02
               3       0.14496095E-03     0.12030912E-04
               4       0.12018097E-08     0.23729529E-09
               5       0.11124795E-12     0.55511151E-14
================================================================================
------------------------------- NGWF line search -------------------------------
RMS gradient                =       0.00160233350184
Trial step length           =               0.122474
Gradient along search dir.  =       -279.25321430938
Functional at step 0        =  -11576.24763878050726
Functional at step 1        =  -11607.81830474885646
Functional predicted        =  -11687.40843348522321
Selected quadratic step     =               0.796129
--------------------------- NGWF line search finished --------------------------
                                               
Writing NGWFs to file "complex_35441.vacuum_tightbox_ngwfs"....  done

>>> Optimising kernel for current NGWFs:
   Initial electron number for spin 1:    7262.93327247
     Final electron number for spin 1:    7228.00000000

=================== Penalty functional idempotency correction ==================
 RMS occupancy error at iteration   1:  0.004350 (step -0.4855 Ne1=   7228.0000)
 RMS occupancy error at iteration   2:  0.000074 (step -0.5003 Ne1=   7228.0000)
            Final RMS occupancy error   :  0.000000 (Ne1=   7228.0000)
               Final occupancy bounds   : [  0.0000,  1.0000]
================================================================================

................................................................................
<<<<<<<<<<<<<< LNV (Original version) density kernel optimisation >>>>>>>>>>>>>>
~~~~~~~~~~~~~~~~~~~~~~~~~~~~~~~~~~~~~~~~~~~~~~~~~~~~~~~~~~~~~~~~~~~~~~~~~~~~~~~~
   iter  |      energy (Eh)       | rms gradient |  commutator  |   dE (Eh)
MG BCs: +ve charge blocks (gridpoints):     24860 (   17031404).
MG BCs: -ve charge blocks (gridpoints):      8454 (    1079370).
MG BCs:     Elided blocks (gridpoints):    179428 (  181067107).
MG BCs: Computational effort saved:  99.9833%.
MG BCs: Charge after coarse-graining:           -9.0006731.
MG DL_MG: Calling solver with defect correction order = 8
MG DL_MG: Solver finished
MG Hartree energy from (\int phi*rho dr):              1252.225966
MG Hartree energy from (\int eps (grad phi)^2 dr):     1251.573731
MG Discrepancy due to finite box and discretization:     -0.652235 (  -0.05209%)
MG Correction to account for finite box:                  0.469720
MG Remaining discrepancy, due to discretization:         -0.182515 (  -0.01458%)
      ideal mu1:      -0.705095505086
             Q0:  -11686.616029686294
             G0:      -9.986350981183
   RMS gradient:       0.000483124725
MG BCs: +ve charge blocks (gridpoints):     24929 (   17044232).
MG BCs: -ve charge blocks (gridpoints):      8424 (    1076404).
MG BCs:     Elided blocks (gridpoints):    179359 (  181057245).
MG BCs: Computational effort saved:  99.9833%.
MG BCs: Charge after coarse-graining:           -9.0006694.
MG DL_MG: Calling solver with defect correction order = 8
MG DL_MG: Solver finished
MG Hartree energy from (\int phi*rho dr):              1267.453044
MG Hartree energy from (\int eps (grad phi)^2 dr):     1266.796026
MG Discrepancy due to finite box and discretization:     -0.657018 (  -0.05184%)
MG Correction to account for finite box:                  0.468569
MG Remaining discrepancy, due to discretization:         -0.188448 (  -0.01487%)
     Trial step:       0.712567997699
             Q1:  -11686.059626925620
 Quadratic coef:       7.672356883657
 Linear coef   :      -7.115954122982
           Qmin:  -11688.266005171281
Quadratic minimum step length (  0.330446123533) accepted
    Initial Ne1:    7227.99953102
      Final Ne1:    7228.00000000

=================== Penalty functional idempotency correction ==================
 RMS occupancy error at iteration   1:  0.000360 (step -0.4986 Ne1=   7228.0000)
 RMS occupancy error at iteration   2:  0.000000 (step -0.5000 Ne1=   7228.0000)
            Final RMS occupancy error   :  0.000000 (Ne1=   7228.0000)
               Final occupancy bounds   : [  0.0000,  1.0000]
================================================================================

    1        -1.168661602969E+04     4.8312E-04     4.3721E-04
MG BCs: +ve charge blocks (gridpoints):     24883 (   17037729).
MG BCs: -ve charge blocks (gridpoints):      8443 (    1077869).
MG BCs:     Elided blocks (gridpoints):    179405 (  181062283).
MG BCs: Computational effort saved:  99.9833%.
MG BCs: Charge after coarse-graining:           -9.0006712.
MG DL_MG: Calling solver with defect correction order = 8
MG DL_MG: Solver finished
MG Hartree energy from (\int phi*rho dr):              1258.354799
MG Hartree energy from (\int eps (grad phi)^2 dr):     1257.700453
MG Discrepancy due to finite box and discretization:     -0.654346 (  -0.05200%)
MG Correction to account for finite box:                  0.469156
MG Remaining discrepancy, due to discretization:         -0.185191 (  -0.01472%)
      ideal mu1:      -0.711764924511
             Q0:  -11688.241028047982
             G0:      -0.994695703569
   RMS gradient:       0.000153094425
MG BCs: +ve charge blocks (gridpoints):     24885 (   17037129).
MG BCs: -ve charge blocks (gridpoints):      8438 (    1078774).
MG BCs:     Elided blocks (gridpoints):    179403 (  181061978).
MG BCs: Computational effort saved:  99.9833%.
MG BCs: Charge after coarse-graining:           -9.0006712.
MG DL_MG: Calling solver with defect correction order = 8
MG DL_MG: Solver finished
MG Hartree energy from (\int phi*rho dr):              1259.408100
MG Hartree energy from (\int eps (grad phi)^2 dr):     1258.753531
MG Discrepancy due to finite box and discretization:     -0.654568 (  -0.05197%)
MG Correction to account for finite box:                  0.468993
MG Remaining discrepancy, due to discretization:         -0.185576 (  -0.01474%)
     Trial step:       0.485247702306
             Q1:  -11688.446758956299
 Quadratic coef:       0.276942896333
 Linear coef   :      -0.482673804651
           Qmin:  -11688.451336747699
Quadratic minimum step length (  0.422860376221) accepted
    Initial Ne1:    7227.99993973
      Final Ne1:    7228.00000000

=================== Penalty functional idempotency correction ==================
 RMS occupancy error at iteration   1:  0.000145 (step -0.4993 Ne1=   7228.0000)
            Final RMS occupancy error   :  0.000000 (Ne1=   7228.0000)
               Final occupancy bounds   : [ -0.0000,  1.0000]
================================================================================

    2        -1.168824102805E+04     1.5309E-04     1.3854E-04    -1.6250E+00
MG BCs: +ve charge blocks (gridpoints):     24885 (   17037150).
MG BCs: -ve charge blocks (gridpoints):      8438 (    1078669).
MG BCs:     Elided blocks (gridpoints):    179403 (  181062062).
MG BCs: Computational effort saved:  99.9833%.
MG BCs: Charge after coarse-graining:           -9.0006712.
MG DL_MG: Calling solver with defect correction order = 8
MG DL_MG: Solver finished
MG Hartree energy from (\int phi*rho dr):              1259.272525
MG Hartree energy from (\int eps (grad phi)^2 dr):     1258.617987
MG Discrepancy due to finite box and discretization:     -0.654538 (  -0.05198%)
MG Correction to account for finite box:                  0.469013
MG Remaining discrepancy, due to discretization:         -0.185525 (  -0.01473%)
      ideal mu1:      -0.712692998022
             Q0:  -11688.451782183023
             G0:      -0.159511880935
   RMS gradient:       0.000060994926
MG BCs: +ve charge blocks (gridpoints):     24885 (   17036542).
MG BCs: -ve charge blocks (gridpoints):      8439 (    1079125).
MG BCs:     Elided blocks (gridpoints):    179403 (  181062214).
MG BCs: Computational effort saved:  99.9833%.
MG BCs: Charge after coarse-graining:           -9.0006712.
MG DL_MG: Calling solver with defect correction order = 8
MG DL_MG: Solver finished
MG Hartree energy from (\int phi*rho dr):              1258.833912
MG Hartree energy from (\int eps (grad phi)^2 dr):     1258.179497
MG Discrepancy due to finite box and discretization:     -0.654415 (  -0.05199%)
MG Correction to account for finite box:                  0.468905
MG Remaining discrepancy, due to discretization:         -0.185510 (  -0.01474%)
     Trial step:       0.452981264466
             Q1:  -11688.501685776166
 Quadratic coef:       0.022352300381
 Linear coef   :      -0.072255893523
           Qmin:  -11688.510175659980
Quadratic minimum step length (  0.732152070617) accepted
    Initial Ne1:    7228.00114122
      Final Ne1:    7228.00000000

=================== Penalty functional idempotency correction ==================
 RMS occupancy error at iteration   1:  0.000130 (step -0.4948 Ne1=   7228.0000)
 RMS occupancy error at iteration   2:  0.000001 (step -0.5000 Ne1=   7228.0000)
            Final RMS occupancy error   :  0.000000 (Ne1=   7228.0000)
               Final occupancy bounds   : [  0.0000,  1.0000]
================================================================================

    3        -1.168845178218E+04     6.0995E-05     5.5197E-05    -2.1075E-01
MG BCs: +ve charge blocks (gridpoints):     24885 (   17036219).
MG BCs: -ve charge blocks (gridpoints):      8443 (    1079330).
MG BCs:     Elided blocks (gridpoints):    179403 (  181062332).
MG BCs: Computational effort saved:  99.9833%.
MG BCs: Charge after coarse-graining:           -9.0006713.
MG DL_MG: Calling solver with defect correction order = 8
MG DL_MG: Solver finished
MG Hartree energy from (\int phi*rho dr):              1258.563536
MG Hartree energy from (\int eps (grad phi)^2 dr):     1257.909198
MG Discrepancy due to finite box and discretization:     -0.654338 (  -0.05199%)
MG Correction to account for finite box:                  0.468837
MG Remaining discrepancy, due to discretization:         -0.185501 (  -0.01474%)
      ideal mu1:      -0.711938461462
             Q0:  -11688.510247073951
             G0:      -0.063669933649
   RMS gradient:       0.000038533290
MG BCs: +ve charge blocks (gridpoints):     24887 (   17036108).
MG BCs: -ve charge blocks (gridpoints):      8443 (    1079353).
MG BCs:     Elided blocks (gridpoints):    179401 (  181062420).
MG BCs: Computational effort saved:  99.9833%.
MG BCs: Charge after coarse-graining:           -9.0006713.
MG DL_MG: Calling solver with defect correction order = 8
MG DL_MG: Solver finished
MG Hartree energy from (\int phi*rho dr):              1258.532844
MG Hartree energy from (\int eps (grad phi)^2 dr):     1257.878736
MG Discrepancy due to finite box and discretization:     -0.654108 (  -0.05197%)
MG Correction to account for finite box:                  0.468735
MG Remaining discrepancy, due to discretization:         -0.185373 (  -0.01473%)
     Trial step:       0.575891631064
             Q1:  -11688.533501138212
 Quadratic coef:       0.013412917679
 Linear coef   :      -0.036666981939
           Qmin:  -11688.535306266826
Quadratic minimum step length (  0.787159383997) accepted
    Initial Ne1:    7228.00048956
      Final Ne1:    7228.00000000

=================== Penalty functional idempotency correction ==================
 RMS occupancy error at iteration   1:  0.000252 (step -0.4833 Ne1=   7228.0000)
 RMS occupancy error at iteration   2:  0.000003 (step -0.5000 Ne1=   7228.0000)
            Final RMS occupancy error   :  0.000000 (Ne1=   7228.0000)
               Final occupancy bounds   : [  0.0000,  1.0000]
================================================================================

    4        -1.168851024707E+04     3.8533E-05     3.4871E-05    -5.8465E-02
MG BCs: +ve charge blocks (gridpoints):     24887 (   17036008).
MG BCs: -ve charge blocks (gridpoints):      8443 (    1079379).
MG BCs:     Elided blocks (gridpoints):    179401 (  181062494).
MG BCs: Computational effort saved:  99.9833%.
MG BCs: Charge after coarse-graining:           -9.0006713.
MG DL_MG: Calling solver with defect correction order = 8
MG DL_MG: Solver finished
MG Hartree energy from (\int phi*rho dr):              1258.522632
MG Hartree energy from (\int eps (grad phi)^2 dr):     1257.868611
MG Discrepancy due to finite box and discretization:     -0.654021 (  -0.05197%)
MG Correction to account for finite box:                  0.468695
MG Remaining discrepancy, due to discretization:         -0.185326 (  -0.01473%)
      ideal mu1:      -0.712241347930
             Q0:  -11688.535188554786
             G0:      -0.071106906111
   RMS gradient:       0.000040839879
MG BCs: +ve charge blocks (gridpoints):     24887 (   17037410).
MG BCs: -ve charge blocks (gridpoints):      8441 (    1078864).
MG BCs:     Elided blocks (gridpoints):    179401 (  181061607).
MG BCs: Computational effort saved:  99.9833%.
MG BCs: Charge after coarse-graining:           -9.0006710.
MG DL_MG: Calling solver with defect correction order = 8
MG DL_MG: Solver finished
MG Hartree energy from (\int phi*rho dr):              1259.357009
MG Hartree energy from (\int eps (grad phi)^2 dr):     1258.703390
MG Discrepancy due to finite box and discretization:     -0.653619 (  -0.05190%)
MG Correction to account for finite box:                  0.468390
MG Remaining discrepancy, due to discretization:         -0.185229 (  -0.01471%)
     Trial step:       0.673289314899
             Q1:  -11688.569302514894
 Quadratic coef:       0.013761559992
 Linear coef   :      -0.047875520100
           Qmin:  -11688.576827464658
Quadratic minimum step length (  1.171163594325) accepted
    Initial Ne1:    7228.00081694
      Final Ne1:    7228.00000000

=================== Penalty functional idempotency correction ==================
 RMS occupancy error at iteration   1:  0.001932 (step -0.3874 Ne1=   7228.0000)
 RMS occupancy error at iteration   2:  0.000090 (step -0.4947 Ne1=   7228.0000)
 RMS occupancy error at iteration   3:  0.000001 (step -0.5000 Ne1=   7228.0000)
            Final RMS occupancy error   :  0.000000 (Ne1=   7228.0000)
               Final occupancy bounds   : [  0.0000,  1.0000]
================================================================================

    5        -1.168853518855E+04     4.0840E-05     3.6958E-05    -2.4941E-02
MG BCs: +ve charge blocks (gridpoints):     24886 (   17038448).
MG BCs: -ve charge blocks (gridpoints):      8441 (    1078458).
MG BCs:     Elided blocks (gridpoints):    179402 (  181060975).
MG BCs: Computational effort saved:  99.9833%.
MG BCs: Charge after coarse-graining:           -9.0006708.
MG DL_MG: Calling solver with defect correction order = 8
MG DL_MG: Solver finished
MG Hartree energy from (\int phi*rho dr):              1259.979661
MG Hartree energy from (\int eps (grad phi)^2 dr):     1259.326326
MG Discrepancy due to finite box and discretization:     -0.653335 (  -0.05185%)
MG Correction to account for finite box:                  0.468177
MG Remaining discrepancy, due to discretization:         -0.185157 (  -0.01470%)
      ideal mu1:      -0.714438765099
             Q0:  -11688.571569775464
             G0:      -0.131332759342
   RMS gradient:       0.000058480777
MG BCs: +ve charge blocks (gridpoints):     24885 (   17039658).
MG BCs: -ve charge blocks (gridpoints):      8442 (    1078265).
MG BCs:     Elided blocks (gridpoints):    179403 (  181059958).
MG BCs: Computational effort saved:  99.9833%.
MG BCs: Charge after coarse-graining:           -9.0006705.
MG DL_MG: Calling solver with defect correction order = 8
MG DL_MG: Solver finished
MG Hartree energy from (\int phi*rho dr):              1260.301337
MG Hartree energy from (\int eps (grad phi)^2 dr):     1259.648989
MG Discrepancy due to finite box and discretization:     -0.652348 (  -0.05176%)
MG Correction to account for finite box:                  0.467250
MG Remaining discrepancy, due to discretization:         -0.185098 (  -0.01469%)
     Trial step:       0.887993206088
             Q1:  -11688.586292042863
 Quadratic coef:       0.101900330634
 Linear coef   :      -0.116622598032
           Qmin:  -11688.604937749560
Quadratic minimum step length (  0.508143958341) accepted
    Initial Ne1:    7228.00072678
      Final Ne1:    7228.00000000

=================== Penalty functional idempotency correction ==================
 RMS occupancy error at iteration   1:  0.003889 (step -0.3151 Ne1=   7228.0000)
 RMS occupancy error at iteration   2:  0.000263 (step -0.4830 Ne1=   7228.0000)
 RMS occupancy error at iteration   3:  0.000004 (step -0.5000 Ne1=   7228.0000)
            Final RMS occupancy error   :  0.000000 (Ne1=   7228.0000)
               Final occupancy bounds   : [  0.0000,  1.0000]
================================================================================

    6        -1.168857156978E+04     5.8481E-05     5.2922E-05    -3.6381E-02
MG BCs: +ve charge blocks (gridpoints):     24886 (   17039143).
MG BCs: -ve charge blocks (gridpoints):      8442 (    1078334).
MG BCs:     Elided blocks (gridpoints):    179402 (  181060404).
MG BCs: Computational effort saved:  99.9833%.
MG BCs: Charge after coarse-graining:           -9.0006706.
MG DL_MG: Calling solver with defect correction order = 8
MG DL_MG: Solver finished
MG Hartree energy from (\int phi*rho dr):              1260.136775
MG Hartree energy from (\int eps (grad phi)^2 dr):     1259.484074
MG Discrepancy due to finite box and discretization:     -0.652701 (  -0.05180%)
MG Correction to account for finite box:                  0.467586
MG Remaining discrepancy, due to discretization:         -0.185115 (  -0.01469%)
      ideal mu1:      -0.715234609800
             Q0:  -11688.610723879538
             G0:      -0.170465670607
   RMS gradient:       0.000063121065
MG BCs: +ve charge blocks (gridpoints):     24887 (   17036225).
MG BCs: -ve charge blocks (gridpoints):      8443 (    1079420).
MG BCs:     Elided blocks (gridpoints):    179401 (  181062236).
MG BCs: Computational effort saved:  99.9833%.
MG BCs: Charge after coarse-graining:           -9.0006712.
MG DL_MG: Calling solver with defect correction order = 8
MG DL_MG: Solver finished
MG Hartree energy from (\int phi*rho dr):              1258.324607
MG Hartree energy from (\int eps (grad phi)^2 dr):     1257.672126
MG Discrepancy due to finite box and discretization:     -0.652481 (  -0.05185%)
MG Correction to account for finite box:                  0.467210
MG Remaining discrepancy, due to discretization:         -0.185271 (  -0.01472%)
     Trial step:       0.671735351698
             Q1:  -11688.685424073017
 Quadratic coef:       0.039807623718
 Linear coef   :      -0.114507817198
           Qmin:  -11688.693070167603
Quadratic minimum step length (  0.966133389456) accepted
    Initial Ne1:    7227.99999765
      Final Ne1:    7228.00000000

=================== Penalty functional idempotency correction ==================
 RMS occupancy error at iteration   1:  0.000483 (step -0.4623 Ne1=   7228.0000)
 RMS occupancy error at iteration   2:  0.000002 (step -0.5000 Ne1=   7228.0000)
            Final RMS occupancy error   :  0.000000 (Ne1=   7228.0000)
               Final occupancy bounds   : [  0.0000,  1.0000]
================================================================================

    7        -1.168861072388E+04     6.3121E-05     5.7122E-05    -3.9154E-02
MG BCs: +ve charge blocks (gridpoints):     24888 (   17034960).
MG BCs: -ve charge blocks (gridpoints):      8448 (    1079863).
MG BCs:     Elided blocks (gridpoints):    179400 (  181063058).
MG BCs: Computational effort saved:  99.9833%.
MG BCs: Charge after coarse-graining:           -9.0006715.
MG DL_MG: Calling solver with defect correction order = 8
MG DL_MG: Solver finished
MG Hartree energy from (\int phi*rho dr):              1257.538493
MG Hartree energy from (\int eps (grad phi)^2 dr):     1256.886115
MG Discrepancy due to finite box and discretization:     -0.652378 (  -0.05188%)
MG Correction to account for finite box:                  0.467037
MG Remaining discrepancy, due to discretization:         -0.185340 (  -0.01474%)
      ideal mu1:      -0.713694980649
             Q0:  -11688.691505875206
             G0:      -0.263621328055
   RMS gradient:       0.000079488275
MG BCs: +ve charge blocks (gridpoints):     24883 (   17034319).
MG BCs: -ve charge blocks (gridpoints):      8446 (    1080083).
MG BCs:     Elided blocks (gridpoints):    179405 (  181063479).
MG BCs: Computational effort saved:  99.9833%.
MG BCs: Charge after coarse-graining:           -9.0006716.
MG DL_MG: Calling solver with defect correction order = 8
[...]
MG DL_MG: Solver finished
MG Hartree energy from (\int phi*rho dr):              1216.190959
MG Hartree energy from (\int eps (grad phi)^2 dr):     1216.000153
MG Discrepancy due to finite box and discretization:     -0.190805 (  -0.01569%)
MG Correction to account for finite box:                  0.006363
MG Remaining discrepancy, due to discretization:         -0.184442 (  -0.01517%)
             Q2:  -11723.498553493642
  Cubic LS coeff:       1.027024060138
Predicted energy:  -11723.498553493651
Cubic minimum step length accepted
    Initial Ne1:    7228.00000000
      Final Ne1:    7228.00000000

=================== Penalty functional idempotency correction ==================
 RMS occupancy error at iteration   1:  0.000000 (step -0.5000 Ne1=   7228.0000)
            Final RMS occupancy error   :  0.000000 (Ne1=   7228.0000)
               Final occupancy bounds   : [  0.0000,  1.0000]
================================================================================

    7        -1.172349855349E+04     8.6315E-09     7.8111E-09    -2.6776E-09

Reusing previously generated solute cavity.
MG BCs: +ve charge blocks (gridpoints):     29271 (   19299402).
MG BCs: -ve charge blocks (gridpoints):      8418 (    1048234).
MG BCs:     Elided blocks (gridpoints):    175017 (  178830245).
MG BCs: Computational effort saved:  99.9811%.
MG BCs: Charge after coarse-graining:           -9.0009550.
MG DL_MG: Calling solver with defect correction order = 8
MG DL_MG: Solver finished
MG Hartree energy from (\int phi*rho dr):              1216.190958
MG Hartree energy from (\int eps (grad phi)^2 dr):     1216.000152
MG Discrepancy due to finite box and discretization:     -0.190805 (  -0.01569%)
MG Correction to account for finite box:                  0.006363
MG Remaining discrepancy, due to discretization:         -0.184442 (  -0.01517%)
      ideal mu1:      -0.481474378808
             Q0:  -11723.498553493409
             G0:      -0.000000003755
   RMS gradient:       0.000000011370

Reusing previously generated solute cavity.
MG BCs: +ve charge blocks (gridpoints):     29271 (   19299402).
MG BCs: -ve charge blocks (gridpoints):      8418 (    1048235).
MG BCs:     Elided blocks (gridpoints):    175017 (  178830244).
MG BCs: Computational effort saved:  99.9811%.
MG BCs: Charge after coarse-graining:           -9.0009550.
MG DL_MG: Calling solver with defect correction order = 8
MG DL_MG: Solver finished
MG Hartree energy from (\int phi*rho dr):              1216.190925
MG Hartree energy from (\int eps (grad phi)^2 dr):     1216.000120
MG Discrepancy due to finite box and discretization:     -0.190805 (  -0.01569%)
MG Correction to account for finite box:                  0.006363
MG Remaining discrepancy, due to discretization:         -0.184442 (  -0.01517%)
     Trial step:       0.746191209614
             Q1:  -11723.498553495039
 Quadratic coef:       0.000000001171
 Linear coef   :      -0.000000002802
           Qmin:  -11723.498553495085
Quadratic minimum step length (  0.892392483488) accepted
    Initial Ne1:    7228.00000000
      Final Ne1:    7228.00000000

=================== Penalty functional idempotency correction ==================
 RMS occupancy error at iteration   1:  0.000000 (step -0.5000 Ne1=   7228.0000)
            Final RMS occupancy error   :  0.000000 (Ne1=   7228.0000)
               Final occupancy bounds   : [ -0.0000,  1.0000]
================================================================================

    8        -1.172349855349E+04     1.1370E-08     1.0289E-08    -2.9104E-09

Reusing previously generated solute cavity.
MG BCs: +ve charge blocks (gridpoints):     29271 (   19299402).
MG BCs: -ve charge blocks (gridpoints):      8418 (    1048235).
MG BCs:     Elided blocks (gridpoints):    175017 (  178830244).
MG BCs: Computational effort saved:  99.9811%.
MG BCs: Charge after coarse-graining:           -9.0009550.
MG DL_MG: Calling solver with defect correction order = 8
MG DL_MG: Solver finished
MG Hartree energy from (\int phi*rho dr):              1216.190919
MG Hartree energy from (\int eps (grad phi)^2 dr):     1216.000113
MG Discrepancy due to finite box and discretization:     -0.190805 (  -0.01569%)
MG Correction to account for finite box:                  0.006363
MG Remaining discrepancy, due to discretization:         -0.184442 (  -0.01517%)
      ideal mu1:      -0.481474330579
             Q0:  -11723.498553495039
             G0:      -0.000000003724
   RMS gradient:       0.000000009528

Reusing previously generated solute cavity.
MG BCs: +ve charge blocks (gridpoints):     29271 (   19299404).
MG BCs: -ve charge blocks (gridpoints):      8418 (    1048234).
MG BCs:     Elided blocks (gridpoints):    175017 (  178830243).
MG BCs: Computational effort saved:  99.9811%.
MG BCs: Charge after coarse-graining:           -9.0009550.
MG DL_MG: Calling solver with defect correction order = 8
MG DL_MG: Solver finished
MG Hartree energy from (\int phi*rho dr):              1216.190886
MG Hartree energy from (\int eps (grad phi)^2 dr):     1216.000080
MG Discrepancy due to finite box and discretization:     -0.190805 (  -0.01569%)
MG Correction to account for finite box:                  0.006363
MG Remaining discrepancy, due to discretization:         -0.184442 (  -0.01517%)
     Trial step:       0.816024158162
             Q1:  -11723.498553494457
 Quadratic coef:       0.000000003622
 Linear coef   :      -0.000000003039
           Qmin:  -11723.498553495676
Quadratic minimum step length (  0.342350206760) accepted
    Initial Ne1:    7228.00000000
      Final Ne1:    7228.00000000

=================== Penalty functional idempotency correction ==================
 RMS occupancy error at iteration   1:  0.000000 (step -0.5000 Ne1=   7228.0000)
            Final RMS occupancy error   :  0.000000 (Ne1=   7228.0000)
               Final occupancy bounds   : [  0.0000,  1.0000]
================================================================================

    9        -1.172349855350E+04     9.5279E-09     8.6223E-09    -1.6298E-09

Reusing previously generated solute cavity.
MG BCs: +ve charge blocks (gridpoints):     29271 (   19299402).
MG BCs: -ve charge blocks (gridpoints):      8418 (    1048234).
MG BCs:     Elided blocks (gridpoints):    175017 (  178830245).
MG BCs: Computational effort saved:  99.9811%.
MG BCs: Charge after coarse-graining:           -9.0009550.
MG DL_MG: Calling solver with defect correction order = 8
MG DL_MG: Solver finished
MG Hartree energy from (\int phi*rho dr):              1216.190905
MG Hartree energy from (\int eps (grad phi)^2 dr):     1216.000099
MG Discrepancy due to finite box and discretization:     -0.190805 (  -0.01569%)
MG Correction to account for finite box:                  0.006363
MG Remaining discrepancy, due to discretization:         -0.184442 (  -0.01517%)
      ideal mu1:      -0.481474320785
   10        -1.172349855350E+04     5.8630E-09     5.3058E-09    -4.6566E-10
Finished density kernel iterations (  10)


>>> Density kernel optimised for the current NGWF basis:
     ~~~~~~~~~~~~~~~~~~~~~~~~~~~~~~~~~~~~~~~~~~~~~~~~~~~~~~~~~~~
     Total energy                =  -1.17234985534955E+04  Eh
     Estimated bandgap           =   7.6490E-02  Eh
     RMS occupancy error         =   3.8183E-16
     [H,K] commutator            =   5.3058E-09
     Occupancy bounds            = [  0.000:  1.000]
     ~~~~~~~~~~~~~~~~~~~~~~~~~~~~~~~~~~~~~~~~~~~~~~~~~~~~~~~~~~~




################################################################################
########################### NGWF CG iteration  004 #############################
################################################################################
****** Reciprocal space K.E. preconditioning with k_zero =  3.5000 a0^-1 *******

>>> Checking for convergence of NGWFs: 
           ........................................................
           |         *** NGWF optimisation converged ***          |
           | RMS NGWF gradient =    0.00000194796850              |
           | Criteria satisfied:                                  |
           | -> RMS NGWF gradient lower than set threshold.       |
           ========================================================

Reusing previously generated solute cavity.
MG BCs: +ve charge blocks (gridpoints):     29271 (   19299402).
MG BCs: -ve charge blocks (gridpoints):      8418 (    1048234).
MG BCs:     Elided blocks (gridpoints):    175017 (  178830245).
MG BCs: Computational effort saved:  99.9811%.
MG BCs: Charge after coarse-graining:           -9.0009550.
MG DL_MG: Calling solver with defect correction order = 8
MG DL_MG: Solver finished
MG Hartree energy from (\int phi*rho dr):              1216.190905
MG Hartree energy from (\int eps (grad phi)^2 dr):     1216.000099
MG Discrepancy due to finite box and discretization:     -0.190805 (  -0.01569%)
MG Correction to account for finite box:                  0.006363
MG Remaining discrepancy, due to discretization:         -0.184442 (  -0.01517%)

================================================================================
           ---------------- ENERGY COMPONENTS (Eh) ----------------
           | Kinetic                    :     8563.00143427942567 |
           | Pseudo. (local,OBC,corr'd) :    -5067.06780845204139 |
           | Pseudopotential (non-local):     1408.42573185326523 |
           | Hartree (molecular)        :     1216.19090486112145 |
           | Exchange-correlation       :    -3372.74471554296042 |
           | Ion-ion (open BC)          :   827113.56373678566888 |
           | Dispersion Correction      :       -3.28077781785328 |
           | Smeared ion non-self corr. :  -827065.22998180799186 |
           | Smeared ion self corr.     :   -14517.01090595763344 |
           | Solvent cavitation energy  :        2.32617025222025 |
           | Solute-solvent dis-rep en. :       -1.67234194857744 |
           | Total                      :   -11723.49855349545396 |
           --------------------------------------------------------
           ------ LOCAL ENERGY COMPONENTS FROM MATRIX TRACES ------
           | Pseudopotential (local)    :    -5067.06780845204594 |
           | Hartree                    :    -2001.75482139613473 |
           --------------------------------------------------------
           Integrated density           :     7227.99999999894953
           Integrated density tr(KS)    :     7228.00000000000000
================================================================================


                        <<<<< CALCULATION SUMMARY >>>>>                         
|ITER|    RMS GRADIENT   |     TOTAL ENERGY    |   step   |     Epredicted              
   0     0.00004140374748 -11723.43117416079622   0.626268 -11723.48955924126494        
   1     0.00000950818191 -11723.49808750790544   0.078696 -11723.49847441705060        
   2     0.00000428051766 -11723.49853642098606   0.015027 -11723.49855139479405        
   3     0.00000194796850 -11723.49855349550489  <-- CG                                 

=================== Finished the calculation in solvent ========================
= Adjusting the following parameters: 
= read_denskern: F
= read_tightbox_ngwfs: F
= maxit_pen: 0 (restored to user-specified value)
= restart read filename prefix: ""
= restart write filename prefix: ""
================================================================================

================================================================================
IS: Calculation in solvent completed (NGWFs converged).      

Individual components of total energy in solvent:     hartree           kcal/mol
- Usual non-electrostatic DFT terms:    -12940.34328666026886    -8120187.833840
- Electrostatic fixed charge energy:      1216.19090486112145      763171.298513
- Apolar cavitation energy:                  2.32617025222025        1459.693840
- Apolar dispersion-repulsion energy:       -1.67234194857744       -1049.410394
 -------------------------------------------------------------------------------
- Total energy in solvent:              -11723.49855349550489    -7356606.251881

Components of total energy in solvent:                hartree           kcal/mol
- Usual non-electrostatic DFT terms:    -12940.34328666026886    -8120187.833840
- Electrostatic energy:                   1216.19090486112145      763171.298513
- Apolar energy terms:                       0.65382830364281         410.283446
 -------------------------------------------------------------------------------
- Total energy in solvent:              -11723.49855349550489    -7356606.251881

Calculation of free energy of solvation:              hartree           kcal/mol
- Total energy in solvent:         (+)  -11723.49855349550489    -7356606.251881
- Total energy in vacuum:          (-)  -11719.47510044032242    -7354081.497025
 -------------------------------------------------------------------------------
- Total free energy of solvation:           -4.02345305518247       -2524.754856

Components of polar term in f.e. of solvation:        hartree           kcal/mol
- Electrostatic:                            -4.76687819746212       -2991.261166
- Change in nonelectrostatic DFT terms:      0.08959683863759          56.222864
 -------------------------------------------------------------------------------
- Polar term in f.e. of solvation:          -4.67728135882453       -2935.038302

Components of free energy of solvation:               hartree           kcal/mol
- Polar term in f.e. of solvation: (+)      -4.67728135882453       -2935.038302
- Apolar (cavitation, dis., rep.): (+)       0.65382830364281         410.283446
 -------------------------------------------------------------------------------
- Total free energy of solvation:           -4.02345305518172       -2524.754856
================================================================================


------------------------------ TIMING INFORMATION ------------------------------
AVERAGE TIME:   34249.485s on     60 node(s)                                    
TOTAL TIME:     34249.486s on     60 node(s)                                    
================= AVERAGE TIMINGS FROM ALL NODES (CUMULATIVE) ==================
|| TAG                                    #calls    cpu time   %total  Gflops ||
|| work_imbalance                       :     1        0.00s   0.000%  ------ ||
|| sparse_set_to_garbage                :   188        0.03s   0.000%  ------ ||
|| parallel_prepare_fd_halos_request    :  2067        0.03s   0.000%  ------ ||
|| ngwfs_initialise_from_radial         :     1        0.10s   0.000%  ------ ||
|| basis_extract_function_from_box      :  3815        0.17s   0.000%  ------ ||
|| parallel_prepare_fd_halos_satisfy    :  2067        0.70s   0.002%  ------ ||
|| parallel_prepare_fd_halos_alloc      :  2067        1.60s   0.005%  ------ ||
|| pseudopotentials_nonlocal_mat        :    32        2.31s   0.007%  ------ ||
|| restart_kernel_read                  :     1        4.44s   0.013%  ------ ||
|| openbc_locps_radial                  :     1        5.13s   0.015%  ------ ||
|| restart_ngwfs_tightbox_input         :     1        7.90s   0.023%  ------ ||
|| parallel_prepare_fd_halos_comms_imbal:  2067       11.13s   0.033%  ------ ||
|| density_init_guess_real              :     1       12.48s   0.036%  ------ ||
|| parallel_prepare_fd_halos_clear      :  2067       21.79s   0.064%  ------ ||
|| sparse_init                          :     2       25.18s   0.074%  ------ ||
|| projectors_func_ovlp_box             :    32       29.08s   0.085%  ------ ||
|| parallel_prepare_fd_halos_comms_wait :  2067       30.66s   0.090%  ------ ||
|| function_ops_brappd_ketppd           :    32       31.39s   0.092%  ------ ||
|| projectors_init_fftbox_recip         :   151       34.12s   0.100%  ------ ||
|| basis_copy_function_to_box           : 61703       43.77s   0.128%  ------ ||
|| palser_mano_kernel_optimise          :     1       43.96s   0.128%  ------ ||
|| ngwf_gradient_coeffs                 :    17       51.82s   0.151%  ------ ||
|| fourier_apply_box_pair               :  5466       56.32s   0.164% 561.914 ||
|| pseudo_make_structure_factor         :     2       64.36s   0.188%  ------ ||
|| parallel_prepare_fd_halos            :  2067       65.95s   0.193%  ------ ||
|| sparse_embed_hotelling_invert_embed  :    32       82.91s   0.242%  ------ ||
|| restart_kernel_write                 :    14       96.76s   0.283%  ------ ||
|| projectors_gradient_batch            :   119      159.00s   0.464%  ------ ||
|| finite_difference_derivative         :  2067      168.34s   0.491%  ------ ||
|| integrals_kinetic                    :    32      168.84s   0.493%  ------ ||
|| basis_dot_function_with_box          : 9.418M     186.33s   0.544%  ------ ||
|| fourier_apply_cell_backward          :  1379      197.03s   0.575%  99.279 ||
|| sparse_trace                         :  5752      217.10s   0.634%  ------ ||
|| fourier_apply_cell_forward           :  1377      255.75s   0.747%  76.374 ||
|| openbc_locps_on_grid                 :     2      282.44s   0.825%  ------ ||
|| kernel_purify                        :   526      314.81s   0.919%  ------ ||
|| basis_add_function_to_box            : 19.67M     447.75s   1.307%  ------ ||
|| lnv_gradient_norm                    :   170      458.37s   1.338%  ------ ||
|| hamiltonian_energy_components        :     4      488.67s   1.427%  ------ ||
|| xc_energy_potential                  :   344      523.10s   1.527%  ------ ||
|| kernel_fix                           :   170      581.45s   1.698%  ------ ||
|| ngwf_gradient_build_batch            :   119      808.09s   2.359%  ------ ||
|| integrals_locpot_mat_els_batch       :  1253      836.45s   2.442%  ------ ||
|| ngwf_gradient_batch                  :   119     1139.95s   3.328%  ------ ||
|| density_batch_row_sums               :  2401     1190.20s   3.475%  ------ ||
|| restart_ngwfs_tightbox_output        :    12     1262.62s   3.687%  ------ ||
|| ngwf_gradient_lnv                    :    17     1300.57s   3.797%  ------ ||
|| cell_grid_deposit_box_real           : 39840     1438.23s   4.199%  ------ ||
|| cell_grid_extract_box_real           : 43576     1676.39s   4.895%  ------ ||
|| sparse_product                       :  7139     1970.31s   5.753%  ------ ||
|| density_fftbox_deposit_to_cell       : 37730     2080.19s   6.074%  ------ ||
|| potential_apply_to_ngwf_batch        :  1253     3835.74s  11.199%  ------ ||
|| density_fftbox_interpolate_multiply  : 37730     3906.86s  11.407%  ------ ||
|| integrals_locpot_dbl_grid            :   179     4691.99s  13.699%  ------ ||
|| fourier_apply_box                    : 129.6k    4824.26s  14.086% 754.221 ||
|| multigrid_prepare_bound_cond         :   344     4945.23s  14.439%  ------ ||
|| density_batch_interp_deposit         :  2401     6953.98s  20.304%  ------ ||
|| density_on_dbl_grid                  :   343     8577.11s  25.043%  ------ ||
|| dl_mg_solver_calls                   :   344     8816.00s  25.741%  ------ ||
|| multigrid_calculate_hartree          :   344    13991.24s  40.851%  ------ ||
|| hamiltonian_lhxc_calculate           :   339    23039.35s  67.269%  ------ ||
|| lnv_denskernel_optimise_cg           :    17    28650.13s  83.651%  ------ ||
|| ngwf_cg_optimise                     :     2    33187.94s  96.901%  ------ ||
|| total_time                           :     1    34249.49s 100.000%  ------ ||
================================================================================
Overhead of generating timer report: 
- 0 ms averaging over threads,
- 15 ms ensuring consistency across MPI ranks,
- 1 ms printing in order.

Job completed: 08-06-2020 17:17 (+0100)

Application 40786617 resources: utime ~7130585s, stime ~239466s, Rss ~3674144, inblocks ~356218837, outblocks ~57363000
