 +---------------------------------------------------------------+
 |                                                               |
 |        ####### #     # ####### ####### ####### ######         |
 |        #     # ##    # #          #    #       #     #        |
 |        #     # # #   # #          #    #       #     #        |
 |        #     # #  #  # #####      #    #####   ######         |
 |        #     # #   # # #          #    #       #              |
 |        #     # #    ## #          #    #       #              |
 |        ####### #     # #######    #    ####### #              |
 |                                                               |
 |        Linear-Scaling Ab Initio Total Energy Program          |
 |                                                               |
 |          Release for academic collaborators of ODG            |
 |                                             Version 5.3.2.6.  |
 |                                                               |
 +---------------------------------------------------------------+
 |                                                               |
 |  Authors:                                                     |
 |  Jacek Dziedzic, Peter D. Haynes, Nicholas D. M. Hine,        |
 |  Arash. A. Mostofi, Mike C. Payne and Chris-Kriton Skylaris   |
 |                                                               |
 |  Contributors:                                                |
 |  J. Aarons, L. Andrinopoulos, P. W. Avraam, R. A. Bell,       |
 |  A. Bhandari, G. A. Bramley, R. J. Charlton, S. J. Clark,     |
 |  R. J. Clements, G. C. Constantinescu, F. Corsetti,           |
 |  N. Corsini, O. Dieguez, S. M. M. Dubois, K. K. B. Duff,      |
 |  J. M. Escartin, A. Greco, H. Helal, Q. O. Hill, L. P. Lee,   |
 |  J.-H. Li, E. B. Linscott, G. Moynihan, D. D. O`Regan,        |
 |  O. K. Okan, M. J. S. Phipps, C. J. Pickard,                  |
 |  J. C. A. Prentice, M. I. J. Probert, L. E. Ratcliff,         |
 |  M. Robinson, A. Ruiz Serrano, J. S. Spencer, E. W. Tait,     |
 |  G. Teobaldi, D. Turban, V. Vitale, K. A. Wilkinson,          |
 |  C. Weber, J. C. Womack, N. Yeung and T. J. Zuehlsdorff       |
 |                                                               |
 |                                   Copyright (c) 2004-2019     |
 |                                                               |
 |  Please cite:                                                 |
 |  "Introducing ONETEP: Linear-scaling density functional       |
 |   simulations on parallel computers".                         |
 |   C.-K. Skylaris, P. D. Haynes, A. A. Mostofi, M. C. Payne.   |
 |   J. Chem. Phys. 122 084119 (2005).                           |
 |                                                               |
 |          in all publications arising from your use of ONETEP. |
 |                                                               |
 +---------------------------------------------------------------+
 |                                                               |
 |   ONETEP is based on developments described in the following  |
 |   publications:                                               |
 |                                                               |
 |  "Nonorthogonal generalized Wannier function pseudopotential  |
 |   plane-wave method".                                         |
 |   C.-K. Skylaris, A. A. Mostofi, P. D. Haynes, O. Dieguez,    |
 |   M. C. Payne.                                                |
 |   Phys. Rev. B 66 035119 (2002).                              |
 |                                                               |
 |  "Preconditioned iterative minimization for linear-scaling    |
 |   electronic structure calculations".                         |
 |   A. A. Mostofi, P. D. Haynes, C.-K. Skylaris, M. C. Payne.   |
 |   J. Chem. Phys. 119(17), pp.8842-8848 (2003).                |
 |                                                               |
 |  "Total-energy calculations on a real space grid with         |
 |   localized functions and a plane-wave basis".                |
 |   A. A. Mostofi, C.-K. Skylaris, P. D. Haynes, M. C. Payne.   |
 |   Comput. Phys. Commun. 147, pp.788-802 (2002).               |
 |                                                               |
 |  "Accurate kinetic energy evaluation in electronic structure  |
 |   calculations with localized functions on real space grids"  |
 |   C.-K. Skylaris, A. A. Mostofi, P. D. Haynes, C. J. Pickard, |
 |   M. C. Payne.                                                |
 |   Comput. Phys. Commun. 140, pp.315-322 (2001).               |
 |                                                               |
 |  "Accurate ionic forces and geometry optimization in linear-  |
 |   scaling density-functional theory with local orbitals"      |
 |   N. D. M. Hine, M. Robinson, P. D. Haynes, C.-K. Skylaris,   |
 |   M. C. Payne, and A. A. Mostofi.                             |
 |   Phys. Rev. B 83 195102 (2011).                              |
 |                                                               |
 +---------------------------------------------------------------+

Job started: 04-06-2020 18:11 (+0100)
 
Reading parameters from file "complex_21001.dat" ...... done

If your calculation crashes here, before "Checking processes and threads..."
is displayed, then your stack size is insufficient.
If so, use "ulimit -s unlimited" at runtime.
You can disable this check with "check_stack_size F".

Checking processes and threads...
   Determining the default number of threads...
      No default threads set at compilation time: defaulting to 1.
      OpenMP library call suggests 4 threads.
      Hybrid MPI-OpenMP compilation detected.
      Number of MPI processes > 1.
      OMP_NUM_THREADS environment variable present and
      its value matches the one obtained from the OpenMP library call.
      Using this value as default.
      Default threads: 4
      Default applies to threads_max and threads_num_fftboxes.
      Settings in the input file override this default.
   ... done

   Running with 60 MPI processes.
   There are 6 MPI processes running on the same node as the root process.
   Each MPI process is using: 
               1 threads for simulation cell FFTs.
               1 threads for parallel FFT box operations.
               4 threads for loops over batched FFT box operations.
               4 threads in other parallel regions.
... done

Basic input checks...... done

Reading geometry and species blocks from file "complex_21001.dat" ...
  <species_atomic_set> block not found: NGWF initialisation set to SOLVE
IS: Dielectric excluded regions:
    - NONE.
    
  Number of PPD points along a3 set to 1.  This is 
  the default value, it may have been provided also in the input file.
... done
 Writing xyz coordinates to file "complex_21001.xyz" ... done


--------------------------------------------------------------------------------
---------------------------------- INPUT FILE ----------------------------------
--------------------------------------------------------------------------------

cutoff_energy       : 800 eV                                                    
xc_functional PBE                                                               
task SINGLEPOINT                                                                
write_xyz true                                                                  
output_detail VERBOSE                                                           
ngwf_threshold_orig : 0.000002                                                  
kernel_cutoff       : 1000                                                      
k_zero              : 3.5                                                       
elec_cg_max 0                                                                   
occ_mix 1.0                                                                     
dispersion 1                                                                    
maxit_ngwf_cg 40                                                                
minit_lnv 10                                                                    
maxit_lnv 10                                                                    
write_denskern F                                                                
write_tightbox_ngwfs F                                                          
charge 9                                                                        
is_implicit_solvent T                                                           
is_auto_solvation T                                                             
is_include_apolar T                                                             
is_smeared_ion_rep T                                                            
is_solvent_surf_tension 4.7624E-5 Ha/bohr**2                                    
is_apolar_scaling_factor 0.281075                                               
is_solvation_beta 1.3                                                           
is_density_threshold 0.00035                                                    
is_bulk_permittivity 78.54                                                      
is_dielectric_model fix_initial                                                 
is_smeared_ion_width 0.8                                                        
mg_defco_fd_order 8                                                             
is_bc_coarseness 10                                                             
is_bc_surface_coarseness 1                                                      
fine_grid_scale 2.0                                                             
%block species                                                                  
N   N   7 4 8.0                                                                 
H   H   1 1 8.0                                                                 
C   C   6 4 8.0                                                                 
S   S  16 9 8.0                                                                 
O   O   8 4 8.0                                                                 
%endblock species                                                               
%block species_pot                                                              
N   N_00.recpot                                                                 
H   H_04.recpot                                                                 
C   C_01.recpot                                                                 
S   S_00.recpot                                                                 
O   O_02.recpot                                                                 
%endblock species_pot                                                           
%block lattice_cart                                                             
140.777   0.000   0.000                                                         
0.000 144.511   0.000                                                           
0.000   0.000   162.462                                                         
%endblock lattice_cart                                                          
%block positions_abs                                                            
     Hash =  -000004742541093331753108
%endblock positions_abs                                                         

--------------------------------------------------------------------------------
-------------------------------- END INPUT FILE --------------------------------
--------------------------------------------------------------------------------


 
 ESDF WARNING(1): "kernelcutoff" (esdf_physical) has no units. Assume "bohr".
 ESDF WARNING(2): "kzero" (esdf_physical) has no units. Assume "1/bohr".
 ESDF WARNING(3
 ): "issmearedionwidth" (esdf_physical) has no units. Assume "bohr".
<<<<<<<<<<<<<<<<<<<<<<<<<<<<<<<<< Full system >>>>>>>>>>>>>>>>>>>>>>>>>>>>>>>>>>
<<<<<<<<<<<<<<<<<<<<<<<<< Pseudopotential information >>>>>>>>>>>>>>>>>>>>>>>>>>
File: N_00.recpot [ 2001 points up to Gmax=  52.9 (1/bohr)]
  Atomic number:  7;  ionic charge:  5.000000
    Shell 1: l = 0; rc = 1.48 bohr
File: H_04.recpot [ 2001 points up to Gmax=  52.9 (1/bohr)]
  Atomic number:  1;  ionic charge:  1.000000
    Local potential
File: C_01.recpot [ 2001 points up to Gmax=  52.9 (1/bohr)]
  Atomic number:  6;  ionic charge:  4.000000
    Shell 1: l = 0; rc = 1.48 bohr
File: S_00.recpot [ 2001 points up to Gmax=  52.9 (1/bohr)]
  Atomic number: 16;  ionic charge:  6.000000
    Shell 1: l = 0; rc = 1.90 bohr
    Shell 2: l = 2; rc = 1.84 bohr
File: O_02.recpot [ 2001 points up to Gmax=  52.9 (1/bohr)]
  Atomic number:  8;  ionic charge:  6.000000
    Shell 1: l = 0; rc = 1.31 bohr
<<<<<<<<<<<<<<<<<<<<<<<<<<<<<<<<<<<<<<<<>>>>>>>>>>>>>>>>>>>>>>>>>>>>>>>>>>>>>>>>

-------------------------- Atom counting information ---------------------------
Symbol    Natoms    Nngwfs    Nprojs
  N        236       944       236
  H       1319      1319         0
  C        817      3268       817
  S          6        54        36
  O        239       956       239
.......   ......    ......    ......
Totals:   2617      6541      1328
--------------------------------------------------------------------------------

=============================== PSINC grid sizes ===============================
                      Simulation cell:  280 x 286 x 320
                              FFT-box:   99 x  99 x  99
                                  PPD:    5 x  11 x   1
Grid space d1=  0.502775000000a0 (KE cutoff=  30.05084Eh = 817.72503eV)
Grid space d2=  0.505283216783a0 (KE cutoff=  29.75324Eh = 809.62684eV)
Grid space d3=  0.507693750000a0 (KE cutoff=  29.47137Eh = 801.95686eV)
================================================================================

********************* Fourier parallelisation information **********************
       Coarse grid (whole simulation cell) dimensions:    280   286   320
          Real-space ('12') slabs/node (min max mean):      5     6     5
         Recip-space ('23') slabs/node (min max mean):      2     3     2
********************************************************************************

********************* Fourier parallelisation information **********************
       Double grid (whole simulation cell) dimensions:    560   572   640
          Real-space ('12') slabs/node (min max mean):     10    11    10
         Recip-space ('23') slabs/node (min max mean):      4     5     4
********************************************************************************
ONETEP fine grid is 560 x 572 x 640 gridpoints, 140.7770 x 144.5110 x 162.4620 bohr.
FD multigrid is     553 x 569 x 633 gridpoints, 139.0173 x 143.7531 x 160.6851 bohr.


Calculating local pseudopotential in open BC on a radial grid ...
Discrepancy between calculated realspace psloc and -Z/x on [5a0,259.028a0]:
max |rel. diff| # avg |rel. diff| #  avg rel. diff #  f # pseudopotential file
 0.000261578119    0.000004844123   0.000000072210   55  'N_00.recpot'
 0.000419583258    0.000017514079  -0.000000069370   55  'H_04.recpot'
 0.000363553651    0.000016734795   0.000000141192   55  'C_01.recpot'
 0.000449990737    0.000019382085   0.000000449342   55  'S_00.recpot'
 0.000706973137    0.000028359832   0.000000146371   55  'O_02.recpot'
... done

Atom SCF Calculation for N  : Z (AE atom) =   7 : Z (PS atom) =   5
Config String:
Orbitals (num,occ):  2     2.00 3.00
Orbitals   (num,l):  2        0    1
Real-space Grid (nr,dr,rmax): 1203    0.0066555740    8.0000000000
Spherical Bessel Basis (nsws,lmax,cutoff):   47    1  176.3951722778
Confining potential (l,width,scale):  0    3.0000000000  100.0000000000
Confining potential (l,width,scale):  1    3.0000000000  100.0000000000
  1         -4.7312375307   -3.4155304497    7.0523828109   -1.9351020946
  2         -9.7309464766   -2.0532547791    8.2966052865   -2.2494486027
  3         -9.6627394379   -2.1124926340    8.2327997121   -2.2369778124
  4         -9.6814993499   -2.1215521045    8.2229805960   -2.2365178421
  5         -9.6843326483   -2.1250939529    8.2191374534   -2.2362718126
  6         -9.6859628709   -2.1267894855    8.2172963573   -2.2362066344
  7         -9.6867347035   -2.1276425665    8.2163697352   -2.2361903369
  8         -9.6870802100   -2.1280764625    8.2158983890   -2.2361891460
  9         -9.6872290423   -2.1282977424    8.2156580222   -2.2361920435
 10         -9.6872901988   -2.1284107021    8.2155353368   -2.2361953393
 11         -9.6873135296   -2.1284684031    8.2154726809   -2.2361979819
 12         -9.6873212476   -2.1284978948    8.2154406648   -2.2361998431
 13         -9.6873229586   -2.1285129774    8.2154242957   -2.2362010676
 14         -9.6873226456   -2.1285206957    8.2154159216   -2.2362018403
 15         -9.6873218534   -2.1285246479    8.2154116349   -2.2362023142
 16         -9.6873212599   -2.1285262679    8.2154098784   -2.2362025420
 17         -9.6873207834   -2.1285272564    8.2154088068   -2.2362026955
 18         -9.6873204210   -2.1285278596    8.2154081529   -2.2362027982
 19         -9.6873201550   -2.1285282280    8.2154077538   -2.2362028667
 20         -9.6873199645   -2.1285284529    8.2154075102   -2.2362029121
 21         -9.6873198305   -2.1285285903    8.2154073614   -2.2362029421
 22         -9.6873197377   -2.1285286742    8.2154072705   -2.2362029618
Atom SCF converged after  22 iterations to a total energy of     -9.68731974

Atom SCF Calculation for H  : Z (AE atom) =   1 : Z (PS atom) =   1
Config String:
Orbitals (num,occ):  1     1.00
Orbitals   (num,l):  1        0
Real-space Grid (nr,dr,rmax): 1203    0.0066555740    8.0000000000
Spherical Bessel Basis (nsws,lmax,cutoff):   47    0  176.3951722778
Confining potential (l,width,scale):  0    3.0000000000  100.0000000000
  1         -0.3194257691   -0.2393854593    0.2820953124   -0.2424203209
  2         -0.3951823392   -0.2377116493    0.2886404059   -0.2475147891
  3         -0.4317044583   -0.2352244387    0.2921333887   -0.2514046172
  4         -0.4470703708   -0.2341892222    0.2934391879   -0.2531009782
  5         -0.4532132900   -0.2338556667    0.2938388426   -0.2537313520
  6         -0.4556579251   -0.2337612552    0.2939448584   -0.2539550462
  7         -0.4566418315   -0.2337377355    0.2939680120   -0.2540342273
  8         -0.4570437922   -0.2337331116    0.2939708287   -0.2540627372
  9         -0.4572102946   -0.2337328328    0.2939698291   -0.2540732650
 10         -0.4572800424   -0.2337332404    0.2939687193   -0.2540772588
 11         -0.4573095100   -0.2337335791    0.2939680317   -0.2540788122
 12         -0.4573220379   -0.2337337762    0.2939676699   -0.2540794294
 13         -0.4573273880   -0.2337338775    0.2939674931   -0.2540796787
 14         -0.4573296803   -0.2337339266    0.2939674099   -0.2540797808
 15         -0.4573306647   -0.2337339495    0.2939673718   -0.2540798230
 16         -0.4573310882   -0.2337339601    0.2939673545   -0.2540798406
 17         -0.4573312706   -0.2337339649    0.2939673467   -0.2540798479
 18         -0.4573313493   -0.2337339670    0.2939673433   -0.2540798510
Atom SCF converged after  18 iterations to a total energy of     -0.45733135

Atom SCF Calculation for C  : Z (AE atom) =   6 : Z (PS atom) =   4
Config String:
Orbitals (num,occ):  2     2.00 2.00
Orbitals   (num,l):  2        0    1
Real-space Grid (nr,dr,rmax): 1203    0.0066555740    8.0000000000
Spherical Bessel Basis (nsws,lmax,cutoff):   47    1  176.3951722778
Confining potential (l,width,scale):  0    3.0000000000  100.0000000000
Confining potential (l,width,scale):  1    3.0000000000  100.0000000000
  1         -5.2976922011   -1.3069684169    4.5135249990   -1.4493313817
  2         -5.3721716256   -1.3429755895    4.4750154450   -1.4361613026
  3         -5.3809959565   -1.3617365618    4.4541655428   -1.4305930207
  4         -5.3918938866   -1.3667928461    4.4484735100   -1.4294652294
  5         -5.3956096428   -1.3688539142    4.4461376126   -1.4290734646
  6         -5.3968271862   -1.3696852393    4.4451910874   -1.4289366866
  7         -5.3972028401   -1.3700178062    4.4448112275   -1.4288900460
  8         -5.3973067903   -1.3701500158    4.4446598370   -1.4288749220
  9         -5.3973286940   -1.3702023868    4.4445997329   -1.4288704293
 10         -5.3973289850   -1.3702230869    4.4445759233   -1.4288693188
 11         -5.3973254264   -1.3702312560    4.4445665049   -1.4288691775
 12         -5.3973224003   -1.3702344755    4.4445627836   -1.4288692549
 13         -5.3973208708   -1.3702354890    4.4445616088   -1.4288693270
 14         -5.3973198783   -1.3702360102    4.4445610034   -1.4288693814
 15         -5.3973192535   -1.3702362780    4.4445606917   -1.4288694190
 16         -5.3973188684   -1.3702364155    4.4445605313   -1.4288694437
 17         -5.3973186349   -1.3702364860    4.4445604489   -1.4288694595
 18         -5.3973184951   -1.3702365221    4.4445604065   -1.4288694693
 19         -5.3973184122   -1.3702365405    4.4445603848   -1.4288694753
Atom SCF converged after  19 iterations to a total energy of     -5.39731841

Atom SCF Calculation for S  : Z (AE atom) =  16 : Z (PS atom) =   6
Config String:
Orbitals (num,occ):  3     2.00 4.00 0.00
Orbitals   (num,l):  3        0    1    2
Real-space Grid (nr,dr,rmax): 1203    0.0066555740    8.0000000000
Spherical Bessel Basis (nsws,lmax,cutoff):   47    2  176.3951722778
Confining potential (l,width,scale):  0    3.0000000000  100.0000000000
Confining potential (l,width,scale):  1    3.0000000000  100.0000000000
Confining potential (l,width,scale):  2    3.0000000000  100.0000000000
  1        -12.4735062396   -1.0328741412   10.1554312477   -2.4512393157
  2         -9.9458301913   -2.4607392455    8.3041325857   -2.0306994528
  3        -10.1450417646   -2.2931184565    8.4831893826   -2.0812538287
  4        -10.1528335592   -2.2733105793    8.5050388867   -2.0896035179
  5        -10.1571940363   -2.2633716629    8.5160794258   -2.0939370707
  6        -10.1594380571   -2.2584938667    8.5215163935   -2.0961289008
  7        -10.1605856507   -2.2561081821    8.5241804044   -2.0972291378
  8        -10.1611799191   -2.2549395235    8.5254868240   -2.0977806248
  9        -10.1614918752   -2.2543658586    8.5261285885   -2.0980571586
 10        -10.1616572884   -2.2540839121    8.5264441898   -2.0981959233
 11        -10.1617455602   -2.2539453058    8.5265994231   -2.0982656006
 12        -10.1617928447   -2.2538772062    8.5266757320   -2.0983006047
 13        -10.1618182292   -2.2538437891    8.5267131983   -2.0983181961
 14        -10.1618318741   -2.2538274201    8.5267315620   -2.0983270391
 15        -10.1618392144   -2.2538194197    8.5267405433   -2.0983314852
 16        -10.1618431651   -2.2538155200    8.5267449245   -2.0983337210
 17        -10.1618452923   -2.2538136252    8.5267470551   -2.0983348455
 18        -10.1618464380   -2.2538127080    8.5267480875   -2.0983354110
 19        -10.1618470552   -2.2538122659    8.5267485856   -2.0983356955
 20        -10.1618473878   -2.2538120540    8.5267488248   -2.0983358386
 21        -10.1618475670   -2.2538119530    8.5267489389   -2.0983359106
 22        -10.1618476637   -2.2538119053    8.5267489929   -2.0983359468
Atom SCF converged after  22 iterations to a total energy of    -10.16184766

Atom SCF Calculation for O  : Z (AE atom) =   8 : Z (PS atom) =   6
Config String:
Orbitals (num,occ):  2     2.00 4.00
Orbitals   (num,l):  2        0    1
Real-space Grid (nr,dr,rmax): 1203    0.0066555740    8.0000000000
Spherical Bessel Basis (nsws,lmax,cutoff):   47    1  176.3951722778
Confining potential (l,width,scale):  0    3.0000000000  100.0000000000
Confining potential (l,width,scale):  1    3.0000000000  100.0000000000
  1         -1.8735052164   -7.5539365035   10.1554312477   -2.4512393157
  2        -16.0318313751   -3.1285771268   13.6395848164   -3.2358799643
  3        -15.9524020423   -3.0762819706   13.6967272503   -3.2536856837
  4        -15.8521515939   -3.0781493909   13.6951909330   -3.2561700440
  5        -15.8357139793   -3.0748501933   13.6988803334   -3.2580493133
  6        -15.8246052853   -3.0740779781   13.6997881576   -3.2588327446
  7        -15.8189019501   -3.0737449687   13.7001869911   -3.2592378801
  8        -15.8159785510   -3.0736026016   13.7003615168   -3.2594475790
  9        -15.8144776168   -3.0735437994   13.7004360379   -3.2595560735
 10        -15.8137058024   -3.0735207882   13.7004667348   -3.2596122456
 11        -15.8133083127   -3.0735125946   13.7004786868   -3.2596413656
 12        -15.8131032938   -3.0735102195   13.7004828997   -3.2596564858
 13        -15.8129973902   -3.0735099286   13.7004840891   -3.2596643505
 14        -15.8129426040   -3.0735102506   13.7004842061   -3.2596684489
 15        -15.8129142203   -3.0735106556   13.7004840157   -3.2596705887
 16        -15.8128994940   -3.0735109855   13.7004837906   -3.2596717080
 17        -15.8128918425   -3.0735112169   13.7004836103   -3.2596722946
 18        -15.8128878614   -3.0735113674   13.7004834848   -3.2596726026
 19        -15.8128857871   -3.0735114608   13.7004834035   -3.2596727646
 20        -15.8128847048   -3.0735115170   13.7004833533   -3.2596728500
 21        -15.8128841394   -3.0735115501   13.7004833231   -3.2596728951
 22        -15.8128838436   -3.0735115693   13.7004833054   -3.2596729190
 23        -15.8128836887   -3.0735115802   13.7004832951   -3.2596729316
 24        -15.8128836074   -3.0735115864   13.7004832893   -3.2596729383
Atom SCF converged after  24 iterations to a total energy of    -15.81288361

========================== Calculation in vacuum ==============================
= Adjusting the following parameters: 
= is_implicit_solvent: F
= is_include_apolar: F
= write_denskern: T
= write_tightbox_ngwfs: T
= restart read filename prefix: ""
= restart write filename prefix: "vacuum_"
===============================================================================

Determining parallel strategy ...
... using space-filling curve
... NGWF load balancing: max    110;  min    109;  average    109
... Projector load balancing: max     26;  min     21;  average     22
... done
Calculating direct Ion-Ion energy ...
Ion-Ion Energy        :    835047.57712523383088
======================= Empirical dispersion information =======================
Model : Elstner
Dispersion Correction Energy: -0.32798281E+01 Hartree
================================================================================
Basis initialisation ...... NGWF spheres initialised
... Projector spheres initialised
... NGWF tight boxes initialised
... Tight-boxes gathered
... NGWF basis size (local,global):    1030351  62336199
... Nonlocal pseudopotential projector initialisation
... done

========================== Sparse matrix information ===========================
                        Overlap matrix filling:   6.75%
                        Density kernel filling: 100.00%
              NGWF-Proj overlap matrix filling:   1.77%
                    Hamiltonian matrix filling:   7.62%
                  NGWF diagonal matrix filling:   0.05%
                             KS matrix filling: 100.00% 
                           KSKS matrix filling: 100.00% 
================================================================================

Sparse matrix initialisation ... done

Generating smeared ion density ... done
Smeared ion self correction:     -14517.010906
Smeared ion non-self correction: -834999.405441
NGWF initialisation ...... done
============ Calculation of NGWF S^-1 using Hotelling algorithm ================ 
         Iteration  |  Frobenius norm and Maximum abs value    (of I-S*S_n^-1)   
               1       0.78727593E+02     0.98281004E+00
               2       0.76892913E+02     0.96605551E+00
               3       0.73913645E+02     0.93377341E+00
               4       0.69664635E+02     0.87390146E+00
               5       0.64358941E+02     0.77120276E+00
               6       0.58386238E+02     0.70448218E+00
               7       0.52365599E+02     0.67077741E+00
               8       0.46799123E+02     0.64356040E+00
               9       0.40751082E+02     0.60209354E+00
              10       0.32529667E+02     0.52889875E+00
              11       0.21979552E+02     0.41665676E+00
              12       0.11327235E+02     0.27299130E+00
              13       0.37843390E+01     0.14484467E+00
              14       0.61608427E+00     0.48964914E-01
              15       0.34113508E-01     0.63621836E-02
              16       0.35925713E-03     0.11226385E-03
              17       0.99176632E-07     0.35194651E-07
              18       0.95077447E-13     0.63282712E-14
================================================================================
Calculating local pseudopotential in open BC on the fine real space grid ...
... done

MG BCs: +ve charge blocks (gridpoints):     20258 (   15911331).
MG BCs: -ve charge blocks (gridpoints):      8035 (    1079874).
MG BCs:     Elided blocks (gridpoints):    184030 (  182186676).
MG BCs: Computational effort saved:  99.9858%.
MG BCs: Charge after coarse-graining:           -9.0002213.
MG DL_MG: Calling solver with defect correction order = 8
MG DL_MG: Solver finished
MG Hartree energy from (\int phi*rho dr):              1471.583307
MG Hartree energy from (\int eps (grad phi)^2 dr):     1470.969470
MG Discrepancy due to finite box and discretization:     -0.613837 (  -0.04171%)
MG Correction to account for finite box:                  0.459518
MG Remaining discrepancy, due to discretization:         -0.154319 (  -0.01049%)
Up spin density kernel initialisation ... 
======= Optimisation of K by Palser-Manolopoulos canonical purification ======== 
         Iteration  |  Band structure energy |    c_n   
               1       -2590.99004440776071    0.5270114
               2       -2767.65927161146965    0.5171800
               3       -2948.87717419704040    0.5155109
               4       -3100.34424731833951    0.5289776
               5       -3193.73688596582633    0.5645977
               6       -3232.99241959132132    0.6094300
               7       -3246.38571179277278    0.6229071
               8       -3252.16697044878674    0.6262660
               9       -3254.92886643280781    0.6475242
              10       -3256.06210636626247    0.6732634
              11       -3256.52592498615468    0.6878353
              12       -3256.74158878015442    0.6756531
              13       -3256.86150825876211    0.6295597
              14       -3256.93756766658498    0.5657072
              15       -3256.97971054260870    0.5086559
              16       -3256.99381420901682    0.4818039
              17       -3256.99580334304846    0.4718538
              18       -3256.99658799227382    0.4712886
              19       -3256.99698426251507    0.4899824
              20       -3256.99725223824225    0.4993266
              21       -3256.99742731543074    0.4999973
              22       -3256.99748308179278    0.5000000
              23       -3256.99748718022784    0.5000002
              24       -3256.99748719999207    0.5000002
Termination criterion satisfied: band energy change below threshold.
Final occupancy bounds: [    0.00000000000000:    0.99999999999998]
Closest occupancy to 0.5:     1.00000000000000
================================================================================
... done

Writing density kernel to file "complex_21001.vacuum_dkn" ... done

>>> Optimising kernel for current NGWFs:
   Initial electron number for spin 1:    7228.00000000
     Final electron number for spin 1:    7228.00000000

=================== Penalty functional idempotency correction ==================
 RMS occupancy error at iteration   1:  0.000000 (step -0.5000 Ne1=   7228.0000)
            Final RMS occupancy error   :  0.000000 (Ne1=   7228.0000)
               Final occupancy bounds   : [  0.0000,  1.0000]
================================================================================

................................................................................
<<<<<<<<<<<<<< LNV (Original version) density kernel optimisation >>>>>>>>>>>>>>
~~~~~~~~~~~~~~~~~~~~~~~~~~~~~~~~~~~~~~~~~~~~~~~~~~~~~~~~~~~~~~~~~~~~~~~~~~~~~~~~
   iter  |      energy (Eh)       | rms gradient |  commutator  |   dE (Eh)
MG BCs: +ve charge blocks (gridpoints):     30551 (   17057575).
MG BCs: -ve charge blocks (gridpoints):      8323 (    1112255).
MG BCs:     Elided blocks (gridpoints):    173733 (  181008051).
MG BCs: Computational effort saved:  99.9805%.
MG BCs: Charge after coarse-graining:           -9.0009270.
MG DL_MG: Calling solver with defect correction order = 8
MG DL_MG: Solver finished
MG Hartree energy from (\int phi*rho dr):              1425.945999
MG Hartree energy from (\int eps (grad phi)^2 dr):     1425.287436
MG Discrepancy due to finite box and discretization:     -0.658563 (  -0.04618%)
MG Correction to account for finite box:                  0.460996
MG Remaining discrepancy, due to discretization:         -0.197567 (  -0.01386%)
      ideal mu1:      -0.717978314073
             Q0:  -11552.096322642406
             G0:    -141.729026604830
   RMS gradient:       0.001820058105
MG BCs: +ve charge blocks (gridpoints):     30589 (   17136570).
MG BCs: -ve charge blocks (gridpoints):      8235 (    1092508).
MG BCs:     Elided blocks (gridpoints):    173694 (  180948803).
MG BCs: Computational effort saved:  99.9805%.
MG BCs: Charge after coarse-graining:           -9.0009494.
MG DL_MG: Calling solver with defect correction order = 8
MG DL_MG: Solver finished
MG Hartree energy from (\int phi*rho dr):              1451.886386
MG Hartree energy from (\int eps (grad phi)^2 dr):     1451.243470
MG Discrepancy due to finite box and discretization:     -0.642916 (  -0.04428%)
MG Correction to account for finite box:                  0.461321
MG Remaining discrepancy, due to discretization:         -0.181595 (  -0.01251%)
     Trial step:       0.500000000000
             Q1:  -11563.050824646140
 Quadratic coef:      59.910011298682
 Linear coef   :     -70.864513302415
           Qmin:  -11573.051832150459
Quadratic minimum step length (  0.295712318218) accepted
    Initial Ne1:    7228.00000000
      Final Ne1:    7228.00000000

=================== Penalty functional idempotency correction ==================
 RMS occupancy error at iteration   1:  0.003300 (step -0.4888 Ne1=   7228.0000)
 RMS occupancy error at iteration   2:  0.000024 (step -0.5000 Ne1=   7228.0000)
            Final RMS occupancy error   :  0.000000 (Ne1=   7228.0000)
               Final occupancy bounds   : [  0.0000,  1.0000]
================================================================================

    1        -1.155209632264E+04     1.8201E-03     1.6471E-03
MG BCs: +ve charge blocks (gridpoints):     30560 (   17105749).
MG BCs: -ve charge blocks (gridpoints):      8274 (    1100884).
MG BCs:     Elided blocks (gridpoints):    173723 (  180971248).
MG BCs: Computational effort saved:  99.9805%.
MG BCs: Charge after coarse-graining:           -9.0009402.
MG DL_MG: Calling solver with defect correction order = 8
MG DL_MG: Solver finished
MG Hartree energy from (\int phi*rho dr):              1433.452517
MG Hartree energy from (\int eps (grad phi)^2 dr):     1432.804171
MG Discrepancy due to finite box and discretization:     -0.648346 (  -0.04523%)
MG Correction to account for finite box:                  0.461061
MG Remaining discrepancy, due to discretization:         -0.187285 (  -0.01307%)
      ideal mu1:      -0.757286856421
             Q0:  -11573.436224553268
             G0:     -11.577022671475
   RMS gradient:       0.000516752703
MG BCs: +ve charge blocks (gridpoints):     30577 (   17122124).
MG BCs: -ve charge blocks (gridpoints):      8250 (    1095868).
MG BCs:     Elided blocks (gridpoints):    173706 (  180959889).
MG BCs: Computational effort saved:  99.9805%.
MG BCs: Charge after coarse-graining:           -9.0009438.
MG DL_MG: Calling solver with defect correction order = 8
MG DL_MG: Solver finished
MG Hartree energy from (\int phi*rho dr):              1438.850973
MG Hartree energy from (\int eps (grad phi)^2 dr):     1438.205977
MG Discrepancy due to finite box and discretization:     -0.644996 (  -0.04483%)
MG Correction to account for finite box:                  0.460939
MG Remaining discrepancy, due to discretization:         -0.184058 (  -0.01279%)
     Trial step:       0.384520687492
             Q1:  -11576.158921243157
 Quadratic coef:       1.728908026853
 Linear coef   :      -4.451604716742
           Qmin:  -11576.301730445764
Quadratic minimum step length (  0.495033304125) accepted
    Initial Ne1:    7227.99991696
      Final Ne1:    7228.00000000

=================== Penalty functional idempotency correction ==================
 RMS occupancy error at iteration   1:  0.001734 (step -0.4935 Ne1=   7228.0000)
 RMS occupancy error at iteration   2:  0.000009 (step -0.5001 Ne1=   7228.0000)
            Final RMS occupancy error   :  0.000000 (Ne1=   7228.0000)
               Final occupancy bounds   : [  0.0000,  1.0000]
================================================================================

    2        -1.157343622455E+04     5.1675E-04     4.6764E-04    -2.1340E+01
MG BCs: +ve charge blocks (gridpoints):     30582 (   17126655).
MG BCs: -ve charge blocks (gridpoints):      8246 (    1094564).
MG BCs:     Elided blocks (gridpoints):    173701 (  180956662).
MG BCs: Computational effort saved:  99.9805%.
MG BCs: Charge after coarse-graining:           -9.0009450.
MG DL_MG: Calling solver with defect correction order = 8
MG DL_MG: Solver finished
MG Hartree energy from (\int phi*rho dr):              1440.442964
MG Hartree energy from (\int eps (grad phi)^2 dr):     1439.798851
MG Discrepancy due to finite box and discretization:     -0.644113 (  -0.04472%)
MG Correction to account for finite box:                  0.460920
MG Remaining discrepancy, due to discretization:         -0.183194 (  -0.01272%)
      ideal mu1:      -0.778302333754
             Q0:  -11576.335488092853
             G0:      -1.817718096052
   RMS gradient:       0.000204899032
MG BCs: +ve charge blocks (gridpoints):     30578 (   17126263).
MG BCs: -ve charge blocks (gridpoints):      8257 (    1095586).
MG BCs:     Elided blocks (gridpoints):    173705 (  180956032).
MG BCs: Computational effort saved:  99.9805%.
MG BCs: Charge after coarse-graining:           -9.0009445.
MG DL_MG: Calling solver with defect correction order = 8
MG DL_MG: Solver finished
MG Hartree energy from (\int phi*rho dr):              1438.281936
MG Hartree energy from (\int eps (grad phi)^2 dr):     1437.638095
MG Discrepancy due to finite box and discretization:     -0.643841 (  -0.04476%)
MG Correction to account for finite box:                  0.460819
MG Remaining discrepancy, due to discretization:         -0.183021 (  -0.01273%)
     Trial step:       0.436291813393
             Q1:  -11576.794060457731
 Quadratic coef:       0.334483159486
 Linear coef   :      -0.793055524363
           Qmin:  -11576.805569356204
Quadratic minimum step length (  0.517221305517) accepted
    Initial Ne1:    7227.99996585
      Final Ne1:    7228.00000000

=================== Penalty functional idempotency correction ==================
 RMS occupancy error at iteration   1:  0.000577 (step -0.4977 Ne1=   7228.0000)
 RMS occupancy error at iteration   2:  0.000001 (step -0.5000 Ne1=   7228.0000)
            Final RMS occupancy error   :  0.000000 (Ne1=   7228.0000)
               Final occupancy bounds   : [  0.0000,  1.0000]
================================================================================

    3        -1.157633548809E+04     2.0490E-04     1.8542E-04    -2.8993E+00
MG BCs: +ve charge blocks (gridpoints):     30578 (   17126211).
MG BCs: -ve charge blocks (gridpoints):      8258 (    1095742).
MG BCs:     Elided blocks (gridpoints):    173705 (  180955928).
MG BCs: Computational effort saved:  99.9805%.
MG BCs: Charge after coarse-graining:           -9.0009444.
MG DL_MG: Calling solver with defect correction order = 8
MG DL_MG: Solver finished
MG Hartree energy from (\int phi*rho dr):              1437.889116
MG Hartree energy from (\int eps (grad phi)^2 dr):     1437.245316
MG Discrepancy due to finite box and discretization:     -0.643799 (  -0.04477%)
MG Correction to account for finite box:                  0.460802
MG Remaining discrepancy, due to discretization:         -0.182998 (  -0.01273%)
      ideal mu1:      -0.779047485653
             Q0:  -11576.809746977291
             G0:      -0.420151402087
   RMS gradient:       0.000098610323
MG BCs: +ve charge blocks (gridpoints):     30575 (   17127187).
MG BCs: -ve charge blocks (gridpoints):      8258 (    1095481).
MG BCs:     Elided blocks (gridpoints):    173708 (  180955213).
MG BCs: Computational effort saved:  99.9805%.
MG BCs: Charge after coarse-graining:           -9.0009445.
MG DL_MG: Calling solver with defect correction order = 8
MG DL_MG: Solver finished
MG Hartree energy from (\int phi*rho dr):              1439.088692
MG Hartree energy from (\int eps (grad phi)^2 dr):     1438.444799
MG Discrepancy due to finite box and discretization:     -0.643892 (  -0.04474%)
MG Correction to account for finite box:                  0.460781
MG Remaining discrepancy, due to discretization:         -0.183112 (  -0.01272%)
     Trial step:       0.475036231575
             Q1:  -11576.906956929597
 Quadratic coef:       0.102377186433
 Linear coef   :      -0.199587138739
           Qmin:  -11576.907022130423
Quadratic minimum step length (  0.463048094799) accepted
    Initial Ne1:    7227.99999279
      Final Ne1:    7228.00000000

=================== Penalty functional idempotency correction ==================
 RMS occupancy error at iteration   1:  0.000184 (step -0.4992 Ne1=   7228.0000)
            Final RMS occupancy error   :  0.000000 (Ne1=   7228.0000)
               Final occupancy bounds   : [ -0.0000,  1.0000]
================================================================================

    4        -1.157680974698E+04     9.8610E-05     8.9238E-05    -4.7426E-01
MG BCs: +ve charge blocks (gridpoints):     30575 (   17127182).
MG BCs: -ve charge blocks (gridpoints):      8258 (    1095488).
MG BCs:     Elided blocks (gridpoints):    173708 (  180955211).
MG BCs: Computational effort saved:  99.9805%.
MG BCs: Charge after coarse-graining:           -9.0009445.
MG DL_MG: Calling solver with defect correction order = 8
MG DL_MG: Solver finished
MG Hartree energy from (\int phi*rho dr):              1439.058454
MG Hartree energy from (\int eps (grad phi)^2 dr):     1438.414564
MG Discrepancy due to finite box and discretization:     -0.643890 (  -0.04474%)
MG Correction to account for finite box:                  0.460781
MG Remaining discrepancy, due to discretization:         -0.183109 (  -0.01272%)
      ideal mu1:      -0.779331962718
             Q0:  -11576.907429291867
             G0:      -0.104011266093
   RMS gradient:       0.000049208045
MG BCs: +ve charge blocks (gridpoints):     30573 (   17127144).
MG BCs: -ve charge blocks (gridpoints):      8257 (    1095325).
MG BCs:     Elided blocks (gridpoints):    173710 (  180955412).
MG BCs: Computational effort saved:  99.9805%.
MG BCs: Charge after coarse-graining:           -9.0009446.
MG DL_MG: Calling solver with defect correction order = 8
MG DL_MG: Solver finished
MG Hartree energy from (\int phi*rho dr):              1439.416146
MG Hartree energy from (\int eps (grad phi)^2 dr):     1438.772127
MG Discrepancy due to finite box and discretization:     -0.644019 (  -0.04474%)
MG Correction to account for finite box:                  0.460768
MG Remaining discrepancy, due to discretization:         -0.183250 (  -0.01273%)
     Trial step:       0.469003861382
             Q1:  -11576.933216640493
 Quadratic coef:       0.022994336799
 Linear coef   :      -0.048781685425
           Qmin:  -11576.933301453930
Quadratic minimum step length (  0.497487686394) accepted
    Initial Ne1:    7228.00165428
      Final Ne1:    7228.00000000

=================== Penalty functional idempotency correction ==================
 RMS occupancy error at iteration   1:  0.000066 (step -0.4997 Ne1=   7228.0000)
            Final RMS occupancy error   :  0.000000 (Ne1=   7228.0000)
               Final occupancy bounds   : [ -0.0000,  1.0000]
================================================================================

    5        -1.157690742929E+04     4.9208E-05     4.4531E-05    -9.7682E-02
MG BCs: +ve charge blocks (gridpoints):     30573 (   17127151).
MG BCs: -ve charge blocks (gridpoints):      8257 (    1095328).
MG BCs:     Elided blocks (gridpoints):    173710 (  180955402).
MG BCs: Computational effort saved:  99.9805%.
MG BCs: Charge after coarse-graining:           -9.0009446.
MG DL_MG: Calling solver with defect correction order = 8
MG DL_MG: Solver finished
MG Hartree energy from (\int phi*rho dr):              1439.437892
MG Hartree energy from (\int eps (grad phi)^2 dr):     1438.793865
MG Discrepancy due to finite box and discretization:     -0.644027 (  -0.04474%)
MG Correction to account for finite box:                  0.460767
MG Remaining discrepancy, due to discretization:         -0.183259 (  -0.01273%)
      ideal mu1:      -0.779292058083
             Q0:  -11576.933351217769
             G0:      -0.032947513442
   RMS gradient:       0.000027715595
MG BCs: +ve charge blocks (gridpoints):     30575 (   17126859).
MG BCs: -ve charge blocks (gridpoints):      8257 (    1095534).
MG BCs:     Elided blocks (gridpoints):    173708 (  180955488).
MG BCs: Computational effort saved:  99.9805%.
MG BCs: Charge after coarse-graining:           -9.0009444.
MG DL_MG: Calling solver with defect correction order = 8
MG DL_MG: Solver finished
MG Hartree energy from (\int phi*rho dr):              1438.796506
MG Hartree energy from (\int eps (grad phi)^2 dr):     1438.152487
MG Discrepancy due to finite box and discretization:     -0.644019 (  -0.04476%)
MG Correction to account for finite box:                  0.460775
MG Remaining discrepancy, due to discretization:         -0.183243 (  -0.01274%)
     Trial step:       0.483035863999
             Q1:  -11576.943902923027
 Quadratic coef:       0.005363125363
 Linear coef   :      -0.015914830622
           Qmin:  -11576.945157851802
Quadratic minimum step length (  0.716693479955) accepted
    Initial Ne1:    7228.00110962
      Final Ne1:    7228.00000000

=================== Penalty functional idempotency correction ==================
 RMS occupancy error at iteration   1:  0.000045 (step -0.4997 Ne1=   7228.0000)
            Final RMS occupancy error   :  0.000000 (Ne1=   7228.0000)
               Final occupancy bounds   : [ -0.0000,  1.0000]
================================================================================

    6        -1.157693335122E+04     2.7716E-05     2.5081E-05    -2.5922E-02
MG BCs: +ve charge blocks (gridpoints):     30577 (   17126705).
MG BCs: -ve charge blocks (gridpoints):      8258 (    1095649).
MG BCs:     Elided blocks (gridpoints):    173706 (  180955527).
MG BCs: Computational effort saved:  99.9805%.
MG BCs: Charge after coarse-graining:           -9.0009443.
MG DL_MG: Calling solver with defect correction order = 8
MG DL_MG: Solver finished
MG Hartree energy from (\int phi*rho dr):              1438.485318
MG Hartree energy from (\int eps (grad phi)^2 dr):     1437.841303
MG Discrepancy due to finite box and discretization:     -0.644014 (  -0.04477%)
MG Correction to account for finite box:                  0.460779
MG Remaining discrepancy, due to discretization:         -0.183235 (  -0.01274%)
      ideal mu1:      -0.778991663522
             Q0:  -11576.945167375263
             G0:      -0.018361186671
   RMS gradient:       0.000020716015
MG BCs: +ve charge blocks (gridpoints):     30575 (   17127183).
MG BCs: -ve charge blocks (gridpoints):      8257 (    1095392).
MG BCs:     Elided blocks (gridpoints):    173708 (  180955306).
MG BCs: Computational effort saved:  99.9805%.
MG BCs: Charge after coarse-graining:           -9.0009445.
MG DL_MG: Calling solver with defect correction order = 8
MG DL_MG: Solver finished
MG Hartree energy from (\int phi*rho dr):              1439.182652
MG Hartree energy from (\int eps (grad phi)^2 dr):     1438.538663
MG Discrepancy due to finite box and discretization:     -0.643989 (  -0.04475%)
MG Correction to account for finite box:                  0.460769
MG Remaining discrepancy, due to discretization:         -0.183220 (  -0.01273%)
     Trial step:       0.588377985917
             Q1:  -11576.950015812414
 Quadratic coef:       0.005954880882
 Linear coef   :      -0.010803318032
           Qmin:  -11576.950067207972
Quadratic minimum step length (  0.533716343858) accepted
    Initial Ne1:    7228.00027764
      Final Ne1:    7228.00000000

=================== Penalty functional idempotency correction ==================
 RMS occupancy error at iteration   1:  0.000003 (step -0.5000 Ne1=   7228.0000)
            Final RMS occupancy error   :  0.000000 (Ne1=   7228.0000)
               Final occupancy bounds   : [  0.0000,  1.0000]
================================================================================

    7        -1.157694516738E+04     2.0716E-05     1.8747E-05    -1.1816E-02
MG BCs: +ve charge blocks (gridpoints):     30575 (   17127131).
MG BCs: -ve charge blocks (gridpoints):      8257 (    1095421).
MG BCs:     Elided blocks (gridpoints):    173708 (  180955329).
MG BCs: Computational effort saved:  99.9805%.
MG BCs: Charge after coarse-graining:           -9.0009445.
MG DL_MG: Calling solver with defect correction order = 8
MG DL_MG: Solver finished
MG Hartree energy from (\int phi*rho dr):              1439.117776
MG Hartree energy from (\int eps (grad phi)^2 dr):     1438.473784
MG Discrepancy due to finite box and discretization:     -0.643991 (  -0.04475%)
MG Correction to account for finite box:                  0.460770
MG Remaining discrepancy, due to discretization:         -0.183221 (  -0.01273%)
      ideal mu1:      -0.779352024665
             Q0:  -11576.950067394995
             G0:      -0.011184842078
   RMS gradient:       0.000016169341
MG BCs: +ve charge blocks (gridpoints):     30575 (   17127241).
MG BCs: -ve charge blocks (gridpoints):      8257 (    1095387).
MG BCs:     Elided blocks (gridpoints):    173708 (  180955253).
MG BCs: Computational effort saved:  99.9805%.
MG BCs: Charge after coarse-graining:           -9.0009445.
MG DL_MG: Calling solver with defect correction order = 8
MG DL_MG: Solver finished
MG Hartree energy from (\int phi*rho dr):              1439.159664
MG Hartree energy from (\int eps (grad phi)^2 dr):     1438.515716
MG Discrepancy due to finite box and discretization:     -0.643948 (  -0.04474%)
MG Correction to account for finite box:                  0.460764
MG Remaining discrepancy, due to discretization:         -0.183184 (  -0.01273%)
     Trial step:       0.560381073423
             Q1:  -11576.954726445372
 Quadratic coef:       0.001608723433
 Linear coef   :      -0.006267773810
           Qmin:  -11576.956172389138
Quadratic minimum step length (  1.091654955869) accepted
    Initial Ne1:    7228.00034395
      Final Ne1:    7228.00000000

=================== Penalty functional idempotency correction ==================
 RMS occupancy error at iteration   1:  0.000034 (step -0.4990 Ne1=   7228.0000)
            Final RMS occupancy error   :  0.000000 (Ne1=   7228.0000)
               Final occupancy bounds   : [ -0.0000,  1.0000]
================================================================================

    8        -1.157695006739E+04     1.6169E-05     1.4632E-05    -4.9000E-03
MG BCs: +ve charge blocks (gridpoints):     30575 (   17127376).
MG BCs: -ve charge blocks (gridpoints):      8256 (    1095341).
MG BCs:     Elided blocks (gridpoints):    173708 (  180955164).
MG BCs: Computational effort saved:  99.9805%.
MG BCs: Charge after coarse-graining:           -9.0009445.
MG DL_MG: Calling solver with defect correction order = 8
MG DL_MG: Solver finished
MG Hartree energy from (\int phi*rho dr):              1439.196950
MG Hartree energy from (\int eps (grad phi)^2 dr):     1438.553043
MG Discrepancy due to finite box and discretization:     -0.643907 (  -0.04474%)
MG Correction to account for finite box:                  0.460758
MG Remaining discrepancy, due to discretization:         -0.183149 (  -0.01273%)
      ideal mu1:      -0.779350702629
             Q0:  -11576.956150433980
             G0:      -0.017480094457
   RMS gradient:       0.000020283758
MG BCs: +ve charge blocks (gridpoints):     30576 (   17127218).
MG BCs: -ve charge blocks (gridpoints):      8256 (    1095509).
MG BCs:     Elided blocks (gridpoints):    173707 (  180955154).
MG BCs: Computational effort saved:  99.9805%.
MG BCs: Charge after coarse-graining:           -9.0009445.
MG DL_MG: Calling solver with defect correction order = 8
MG DL_MG: Solver finished
MG Hartree energy from (\int phi*rho dr):              1438.813978
MG Hartree energy from (\int eps (grad phi)^2 dr):     1438.170135
MG Discrepancy due to finite box and discretization:     -0.643843 (  -0.04475%)
MG Correction to account for finite box:                  0.460753
MG Remaining discrepancy, due to discretization:         -0.183089 (  -0.01273%)
     Trial step:       0.782139869830
             Q1:  -11576.964667079854
 Quadratic coef:       0.005155232930
 Linear coef   :      -0.013671878803
           Qmin:  -11576.965215022939
Quadratic minimum step length (  1.037132720603) accepted
    Initial Ne1:    7228.00095856
      Final Ne1:    7228.00000000

=================== Penalty functional idempotency correction ==================
 RMS occupancy error at iteration   1:  0.000201 (step -0.4941 Ne1=   7228.0000)
 RMS occupancy error at iteration   2:  0.000001 (step -0.5000 Ne1=   7228.0000)
            Final RMS occupancy error   :  0.000000 (Ne1=   7228.0000)
               Final occupancy bounds   : [  0.0000,  1.0000]
================================================================================

    9        -1.157695615043E+04     2.0284E-05     1.8356E-05    -6.0830E-03
MG BCs: +ve charge blocks (gridpoints):     30576 (   17127176).
MG BCs: -ve charge blocks (gridpoints):      8256 (    1095563).
MG BCs:     Elided blocks (gridpoints):    173707 (  180955142).
MG BCs: Computational effort saved:  99.9805%.
MG BCs: Charge after coarse-graining:           -9.0009444.
MG DL_MG: Calling solver with defect correction order = 8
MG DL_MG: Solver finished
MG Hartree energy from (\int phi*rho dr):              1438.684685
MG Hartree energy from (\int eps (grad phi)^2 dr):     1438.040864
MG Discrepancy due to finite box and discretization:     -0.643821 (  -0.04475%)
MG Correction to account for finite box:                  0.460752
MG Remaining discrepancy, due to discretization:         -0.183069 (  -0.01272%)
      ideal mu1:      -0.778768938490
   10        -1.157696511746E+04     2.2901E-05     2.0724E-05    -8.9670E-03
Finished density kernel iterations (  10)

Writing density kernel to file "complex_21001.vacuum_dkn" ... done


>>> Density kernel optimised for the current NGWF basis:
     ~~~~~~~~~~~~~~~~~~~~~~~~~~~~~~~~~~~~~~~~~~~~~~~~~~~~~~~~~~~
     Total energy                =  -1.15769651174614E+04  Eh
     Estimated bandgap           =  -2.3620E-01  Eh
     RMS occupancy error         =   6.4367E-11
     [H,K] commutator            =   2.0724E-05
     Occupancy bounds            = [  0.000:  1.000]
     ~~~~~~~~~~~~~~~~~~~~~~~~~~~~~~~~~~~~~~~~~~~~~~~~~~~~~~~~~~~




################################################################################
########################### NGWF CG iteration  001 #############################
################################################################################
****** Reciprocal space K.E. preconditioning with k_zero =  3.5000 a0^-1 *******

>>> Checking for convergence of NGWFs:   NOT CONVERGED
  ========================================================================
         NGWF RMS gradient =  1.6008E-03 >  2.0000E-06  | above tolerance
  ========================================================================

>>> Improving NGWFs using line search:
============ Calculation of NGWF S^-1 using Hotelling algorithm ================ 
         Iteration  |  Frobenius norm and Maximum abs value    (of I-S*S_n^-1)   
               1       0.19812092E+00     0.52674283E-02
               2       0.90717821E-03     0.40197824E-04
               3       0.32603707E-07     0.23201410E-08
               4       0.12561818E-12     0.62172489E-14
================================================================================
MG BCs: +ve charge blocks (gridpoints):     30126 (   17073012).
MG BCs: -ve charge blocks (gridpoints):      8270 (    1095336).
MG BCs:     Elided blocks (gridpoints):    174158 (  181009533).
MG BCs: Computational effort saved:  99.9807%.
MG BCs: Charge after coarse-graining:           -9.0009489.
MG DL_MG: Calling solver with defect correction order = 8
MG DL_MG: Solver finished
MG Hartree energy from (\int phi*rho dr):              1406.644790
MG Hartree energy from (\int eps (grad phi)^2 dr):     1406.001741
MG Discrepancy due to finite box and discretization:     -0.643048 (  -0.04572%)
MG Correction to account for finite box:                  0.460740
MG Remaining discrepancy, due to discretization:         -0.182309 (  -0.01296%)
============ Calculation of NGWF S^-1 using Hotelling algorithm ================ 
         Iteration  |  Frobenius norm and Maximum abs value    (of I-S*S_n^-1)   
               1       0.18431163E+01     0.41224509E-01
               2       0.70325211E-01     0.22562137E-02
               3       0.13852759E-03     0.78412731E-05
               4       0.97570175E-09     0.11513068E-09
               5       0.11007251E-12     0.51070259E-14
================================================================================
------------------------------- NGWF line search -------------------------------
RMS gradient                =       0.00160076497005
Trial step length           =               0.122474
Gradient along search dir.  =       -278.70675733787
Functional at step 0        =  -11576.96511746139731
Functional at step 1        =  -11608.47674572654068
Functional predicted        =  -11688.02434491575150
Selected quadratic step     =               0.796961
--------------------------- NGWF line search finished --------------------------
                                               
Writing NGWFs to file "complex_21001.vacuum_tightbox_ngwfs"....  done

>>> Optimising kernel for current NGWFs:
   Initial electron number for spin 1:    7262.60288905
     Final electron number for spin 1:    7228.00000000

=================== Penalty functional idempotency correction ==================
 RMS occupancy error at iteration   1:  0.004298 (step -0.4856 Ne1=   7228.0000)
 RMS occupancy error at iteration   2:  0.000074 (step -0.5003 Ne1=   7228.0000)
            Final RMS occupancy error   :  0.000000 (Ne1=   7228.0000)
               Final occupancy bounds   : [  0.0000,  1.0000]
================================================================================

................................................................................
<<<<<<<<<<<<<< LNV (Original version) density kernel optimisation >>>>>>>>>>>>>>
~~~~~~~~~~~~~~~~~~~~~~~~~~~~~~~~~~~~~~~~~~~~~~~~~~~~~~~~~~~~~~~~~~~~~~~~~~~~~~~~
   iter  |      energy (Eh)       | rms gradient |  commutator  |   dE (Eh)
MG BCs: +ve charge blocks (gridpoints):     24393 (   16781147).
MG BCs: -ve charge blocks (gridpoints):      8408 (    1079444).
MG BCs:     Elided blocks (gridpoints):    179895 (  181317290).
MG BCs: Computational effort saved:  99.9835%.
MG BCs: Charge after coarse-graining:           -9.0006580.
MG DL_MG: Calling solver with defect correction order = 8
MG DL_MG: Solver finished
MG Hartree energy from (\int phi*rho dr):              1252.337998
MG Hartree energy from (\int eps (grad phi)^2 dr):     1251.694408
MG Discrepancy due to finite box and discretization:     -0.643590 (  -0.05139%)
MG Correction to account for finite box:                  0.460708
MG Remaining discrepancy, due to discretization:         -0.182883 (  -0.01460%)
      ideal mu1:      -0.718044968078
             Q0:  -11687.231632260024
             G0:      -9.789315266953
   RMS gradient:       0.000478334834
MG BCs: +ve charge blocks (gridpoints):     24448 (   16798533).
MG BCs: -ve charge blocks (gridpoints):      8383 (    1075184).
MG BCs:     Elided blocks (gridpoints):    179840 (  181304164).
MG BCs: Computational effort saved:  99.9835%.
MG BCs: Charge after coarse-graining:           -9.0006531.
MG DL_MG: Calling solver with defect correction order = 8
MG DL_MG: Solver finished
MG Hartree energy from (\int phi*rho dr):              1273.021071
MG Hartree energy from (\int eps (grad phi)^2 dr):     1272.370786
MG Discrepancy due to finite box and discretization:     -0.650284 (  -0.05108%)
MG Correction to account for finite box:                  0.459922
MG Remaining discrepancy, due to discretization:         -0.190362 (  -0.01495%)
     Trial step:       0.900656899762
             Q1:  -11684.045713246916
 Quadratic coef:      12.002733352232
 Linear coef   :      -8.816814339125
           Qmin:  -11688.850767935402
Quadratic minimum step length (  0.330796512570) accepted
    Initial Ne1:    7227.99953612
      Final Ne1:    7228.00000000

=================== Penalty functional idempotency correction ==================
 RMS occupancy error at iteration   1:  0.000355 (step -0.4986 Ne1=   7228.0000)
 RMS occupancy error at iteration   2:  0.000000 (step -0.5000 Ne1=   7228.0000)
            Final RMS occupancy error   :  0.000000 (Ne1=   7228.0000)
               Final occupancy bounds   : [  0.0000,  1.0000]
================================================================================

    1        -1.168723163226E+04     4.7833E-04     4.3287E-04
MG BCs: +ve charge blocks (gridpoints):     24416 (   16787731).
MG BCs: -ve charge blocks (gridpoints):      8394 (    1077973).
MG BCs:     Elided blocks (gridpoints):    179872 (  181312177).
MG BCs: Computational effort saved:  99.9835%.
MG BCs: Charge after coarse-graining:           -9.0006560.
MG DL_MG: Calling solver with defect correction order = 8
MG DL_MG: Solver finished
MG Hartree energy from (\int phi*rho dr):              1258.565796
MG Hartree energy from (\int eps (grad phi)^2 dr):     1257.919900
MG Discrepancy due to finite box and discretization:     -0.645896 (  -0.05132%)
MG Correction to account for finite box:                  0.460377
MG Remaining discrepancy, due to discretization:         -0.185519 (  -0.01474%)
      ideal mu1:      -0.724895854761
             Q0:  -11688.812526549445
             G0:      -0.982046687231
   RMS gradient:       0.000152797411
MG BCs: +ve charge blocks (gridpoints):     24420 (   16787448).
MG BCs: -ve charge blocks (gridpoints):      8397 (    1078806).
MG BCs:     Elided blocks (gridpoints):    179868 (  181311627).
MG BCs: Computational effort saved:  99.9835%.
MG BCs: Charge after coarse-graining:           -9.0006560.
MG DL_MG: Calling solver with defect correction order = 8
MG DL_MG: Solver finished
MG Hartree energy from (\int phi*rho dr):              1259.810525
MG Hartree energy from (\int eps (grad phi)^2 dr):     1259.164284
MG Discrepancy due to finite box and discretization:     -0.646242 (  -0.05130%)
MG Correction to account for finite box:                  0.460323
MG Remaining discrepancy, due to discretization:         -0.185919 (  -0.01476%)
     Trial step:       0.545833455793
             Q1:  -11689.002564088325
 Quadratic coef:       0.345996398162
 Linear coef   :      -0.536033937042
           Qmin:  -11689.020138813032
Quadratic minimum step length (  0.422815465467) accepted
    Initial Ne1:    7227.99993949
      Final Ne1:    7228.00000000

=================== Penalty functional idempotency correction ==================
 RMS occupancy error at iteration   1:  0.000141 (step -0.4994 Ne1=   7228.0000)
            Final RMS occupancy error   :  0.000000 (Ne1=   7228.0000)
               Final occupancy bounds   : [ -0.0000,  1.0000]
================================================================================

    2        -1.168881252655E+04     1.5280E-04     1.3827E-04    -1.5809E+00
MG BCs: +ve charge blocks (gridpoints):     24419 (   16787524).
MG BCs: -ve charge blocks (gridpoints):      8398 (    1078624).
MG BCs:     Elided blocks (gridpoints):    179869 (  181311733).
MG BCs: Computational effort saved:  99.9835%.
MG BCs: Charge after coarse-graining:           -9.0006560.
MG DL_MG: Calling solver with defect correction order = 8
MG DL_MG: Solver finished
MG Hartree energy from (\int phi*rho dr):              1259.529389
MG Hartree energy from (\int eps (grad phi)^2 dr):     1258.883229
MG Discrepancy due to finite box and discretization:     -0.646160 (  -0.05130%)
MG Correction to account for finite box:                  0.460335
MG Remaining discrepancy, due to discretization:         -0.185826 (  -0.01475%)
      ideal mu1:      -0.725872609206
             Q0:  -11689.020622719778
             G0:      -0.143859778513
   RMS gradient:       0.000057919815
MG BCs: +ve charge blocks (gridpoints):     24417 (   16786762).
MG BCs: -ve charge blocks (gridpoints):      8398 (    1079035).
MG BCs:     Elided blocks (gridpoints):    179871 (  181312084).
MG BCs: Computational effort saved:  99.9835%.
MG BCs: Charge after coarse-graining:           -9.0006560.
MG DL_MG: Calling solver with defect correction order = 8
MG DL_MG: Solver finished
MG Hartree energy from (\int phi*rho dr):              1259.025279
MG Hartree energy from (\int eps (grad phi)^2 dr):     1258.379169
MG Discrepancy due to finite box and discretization:     -0.646110 (  -0.05132%)
MG Correction to account for finite box:                  0.460308
MG Remaining discrepancy, due to discretization:         -0.185802 (  -0.01476%)
     Trial step:       0.480402775470
             Q1:  -11689.064660953591
 Quadratic coef:       0.025072403063
 Linear coef   :      -0.069110636876
           Qmin:  -11689.068247593603
Quadratic minimum step length (  0.662101308886) accepted
    Initial Ne1:    7228.00059127
      Final Ne1:    7228.00000000

=================== Penalty functional idempotency correction ==================
 RMS occupancy error at iteration   1:  0.000061 (step -0.4998 Ne1=   7228.0000)
            Final RMS occupancy error   :  0.000000 (Ne1=   7228.0000)
               Final occupancy bounds   : [ -0.0000,  1.0000]
================================================================================

    3        -1.168902062272E+04     5.7920E-05     5.2415E-05    -2.0810E-01
MG BCs: +ve charge blocks (gridpoints):     24419 (   16786485).
MG BCs: -ve charge blocks (gridpoints):      8398 (    1079219).
MG BCs:     Elided blocks (gridpoints):    179869 (  181312177).
MG BCs: Computational effort saved:  99.9835%.
MG BCs: Charge after coarse-graining:           -9.0006560.
MG DL_MG: Calling solver with defect correction order = 8
MG DL_MG: Solver finished
MG Hartree energy from (\int phi*rho dr):              1258.834655
MG Hartree energy from (\int eps (grad phi)^2 dr):     1258.188563
MG Discrepancy due to finite box and discretization:     -0.646091 (  -0.05132%)
MG Correction to account for finite box:                  0.460298
MG Remaining discrepancy, due to discretization:         -0.185793 (  -0.01476%)
      ideal mu1:      -0.724963159343
             Q0:  -11689.068331949878
             G0:      -0.033814572714
   RMS gradient:       0.000028073387
MG BCs: +ve charge blocks (gridpoints):     24417 (   16786286).
MG BCs: -ve charge blocks (gridpoints):      8399 (    1079259).
MG BCs:     Elided blocks (gridpoints):    179871 (  181312336).
MG BCs: Computational effort saved:  99.9835%.
MG BCs: Charge after coarse-graining:           -9.0006561.
MG DL_MG: Calling solver with defect correction order = 8
MG DL_MG: Solver finished
MG Hartree energy from (\int phi*rho dr):              1258.871326
MG Hartree energy from (\int eps (grad phi)^2 dr):     1258.225335
MG Discrepancy due to finite box and discretization:     -0.645991 (  -0.05132%)
MG Correction to account for finite box:                  0.460301
MG Remaining discrepancy, due to discretization:         -0.185690 (  -0.01475%)
     Trial step:       0.563981654339
             Q1:  -11689.076932904776
 Quadratic coef:       0.010469843763
 Linear coef   :      -0.019070798660
           Qmin:  -11689.077016304913
Quadratic minimum step length (  0.513645705789) accepted
    Initial Ne1:    7228.00021666
      Final Ne1:    7228.00000000

=================== Penalty functional idempotency correction ==================
 RMS occupancy error at iteration   1:  0.000017 (step -0.4999 Ne1=   7228.0000)
            Final RMS occupancy error   :  0.000000 (Ne1=   7228.0000)
               Final occupancy bounds   : [ -0.0000,  1.0000]
================================================================================

    4        -1.168906833195E+04     2.8073E-05     2.5405E-05    -4.7709E-02
MG BCs: +ve charge blocks (gridpoints):     24417 (   16786310).
MG BCs: -ve charge blocks (gridpoints):      8399 (    1079252).
MG BCs:     Elided blocks (gridpoints):    179871 (  181312319).
MG BCs: Computational effort saved:  99.9835%.
MG BCs: Charge after coarse-graining:           -9.0006561.
MG DL_MG: Calling solver with defect correction order = 8
MG DL_MG: Solver finished
MG Hartree energy from (\int phi*rho dr):              1258.867916
MG Hartree energy from (\int eps (grad phi)^2 dr):     1258.221916
MG Discrepancy due to finite box and discretization:     -0.646000 (  -0.05132%)
MG Correction to account for finite box:                  0.460300
MG Remaining discrepancy, due to discretization:         -0.185699 (  -0.01475%)
      ideal mu1:      -0.725029168675
             Q0:  -11689.077020818135
             G0:      -0.011294809127
   RMS gradient:       0.000016244677
MG BCs: +ve charge blocks (gridpoints):     24416 (   16786884).
MG BCs: -ve charge blocks (gridpoints):      8400 (    1079053).
MG BCs:     Elided blocks (gridpoints):    179872 (  181311944).
MG BCs: Computational effort saved:  99.9835%.
MG BCs: Charge after coarse-graining:           -9.0006559.
MG DL_MG: Calling solver with defect correction order = 8
MG DL_MG: Solver finished
MG Hartree energy from (\int phi*rho dr):              1259.276206
MG Hartree energy from (\int eps (grad phi)^2 dr):     1258.630238
MG Discrepancy due to finite box and discretization:     -0.645967 (  -0.05130%)
MG Correction to account for finite box:                  0.460299
MG Remaining discrepancy, due to discretization:         -0.185668 (  -0.01474%)
     Trial step:       0.538225561354
             Q1:  -11689.080162599334
 Quadratic coef:       0.002937373783
 Linear coef   :      -0.006079154983
           Qmin:  -11689.080166155436
Quadratic minimum step length (  0.556952714297) accepted
    Initial Ne1:    7228.00009056
      Final Ne1:    7228.00000000

=================== Penalty functional idempotency correction ==================
 RMS occupancy error at iteration   1:  0.000009 (step -0.5000 Ne1=   7228.0000)
            Final RMS occupancy error   :  0.000000 (Ne1=   7228.0000)
               Final occupancy bounds   : [ -0.0000,  1.0000]
================================================================================

    5        -1.168907702082E+04     1.6245E-05     1.4701E-05    -8.6889E-03
MG BCs: +ve charge blocks (gridpoints):     24416 (   16786907).
MG BCs: -ve charge blocks (gridpoints):      8400 (    1079043).
MG BCs:     Elided blocks (gridpoints):    179872 (  181311931).
MG BCs: Computational effort saved:  99.9835%.
MG BCs: Charge after coarse-graining:           -9.0006559.
MG DL_MG: Calling solver with defect correction order = 8
MG DL_MG: Solver finished
MG Hartree energy from (\int phi*rho dr):              1259.290428
MG Hartree energy from (\int eps (grad phi)^2 dr):     1258.644462
MG Discrepancy due to finite box and discretization:     -0.645966 (  -0.05130%)
MG Correction to account for finite box:                  0.460299
MG Remaining discrepancy, due to discretization:         -0.185667 (  -0.01474%)
      ideal mu1:      -0.725382144026
             Q0:  -11689.080167073174
             G0:      -0.003493941902
   RMS gradient:       0.000009035034
MG BCs: +ve charge blocks (gridpoints):     24417 (   16786842).
MG BCs: -ve charge blocks (gridpoints):      8400 (    1079084).
MG BCs:     Elided blocks (gridpoints):    179871 (  181311955).
MG BCs: Computational effort saved:  99.9835%.
MG BCs: Charge after coarse-graining:           -9.0006560.
MG DL_MG: Calling solver with defect correction order = 8
MG DL_MG: Solver finished
MG Hartree energy from (\int phi*rho dr):              1259.242958
MG Hartree energy from (\int eps (grad phi)^2 dr):     1258.596996
MG Discrepancy due to finite box and discretization:     -0.645962 (  -0.05130%)
MG Correction to account for finite box:                  0.460298
MG Remaining discrepancy, due to discretization:         -0.185664 (  -0.01474%)
     Trial step:       0.547509075085
             Q1:  -11689.081352922833
 Quadratic coef:       0.000727115241
 Linear coef   :      -0.001912964899
           Qmin:  -11689.081425276310
Quadratic minimum step length (  0.720219838462) accepted
    Initial Ne1:    7228.00004391
      Final Ne1:    7228.00000000

=================== Penalty functional idempotency correction ==================
 RMS occupancy error at iteration   1:  0.000006 (step -0.4999 Ne1=   7228.0000)
            Final RMS occupancy error   :  0.000000 (Ne1=   7228.0000)
               Final occupancy bounds   : [ -0.0000,  1.0000]
================================================================================

    6        -1.168908016707E+04     9.0350E-06     8.1763E-06    -3.1463E-03
MG BCs: +ve charge blocks (gridpoints):     24417 (   16786810).
MG BCs: -ve charge blocks (gridpoints):      8400 (    1079113).
MG BCs:     Elided blocks (gridpoints):    179871 (  181311958).
MG BCs: Computational effort saved:  99.9835%.
MG BCs: Charge after coarse-graining:           -9.0006560.
MG DL_MG: Calling solver with defect correction order = 8
MG DL_MG: Solver finished
MG Hartree energy from (\int phi*rho dr):              1259.227956
MG Hartree energy from (\int eps (grad phi)^2 dr):     1258.581996
MG Discrepancy due to finite box and discretization:     -0.645960 (  -0.05130%)
MG Correction to account for finite box:                  0.460298
MG Remaining discrepancy, due to discretization:         -0.185662 (  -0.01474%)
      ideal mu1:      -0.725343239492
             Q0:  -11689.081425361801
             G0:      -0.001866226236
   RMS gradient:       0.000006604470
MG BCs: +ve charge blocks (gridpoints):     24418 (   16786631).
MG BCs: -ve charge blocks (gridpoints):      8400 (    1079168).
MG BCs:     Elided blocks (gridpoints):    179870 (  181312082).
MG BCs: Computational effort saved:  99.9835%.
MG BCs: Charge after coarse-graining:           -9.0006560.
MG DL_MG: Calling solver with defect correction order = 8
MG DL_MG: Solver finished
MG Hartree energy from (\int phi*rho dr):              1259.138894
MG Hartree energy from (\int eps (grad phi)^2 dr):     1258.492919
MG Discrepancy due to finite box and discretization:     -0.645975 (  -0.05130%)
MG Correction to account for finite box:                  0.460303
MG Remaining discrepancy, due to discretization:         -0.185672 (  -0.01475%)
     Trial step:       0.627954534671
             Q1:  -11689.081834303564
 Quadratic coef:       0.000762963464
 Linear coef   :      -0.001171905228
           Qmin:  -11689.081875370854
Quadratic minimum step length (  0.482266344899) accepted
    Initial Ne1:    7228.00000806
      Final Ne1:    7228.00000000

=================== Penalty functional idempotency correction ==================
 RMS occupancy error at iteration   1:  0.000000 (step -0.5000 Ne1=   7228.0000)
            Final RMS occupancy error   :  0.000000 (Ne1=   7228.0000)
               Final occupancy bounds   : [  0.0000,  1.0000]
================================================================================

    7        -1.168908142536E+04     6.6045E-06     5.9767E-06    -1.2583E-03
MG BCs: +ve charge blocks (gridpoints):     24417 (   16786680).
MG BCs: -ve charge blocks (gridpoints):      8400 (    1079145).
MG BCs:     Elided blocks (gridpoints):    179871 (  181312056).
MG BCs: Computational effort saved:  99.9835%.
MG BCs: Charge after coarse-graining:           -9.0006560.
MG DL_MG: Calling solver with defect correction order = 8
MG DL_MG: Solver finished
MG Hartree energy from (\int phi*rho dr):              1259.159516
MG Hartree energy from (\int eps (grad phi)^2 dr):     1258.513544
MG Discrepancy due to finite box and discretization:     -0.645972 (  -0.05130%)
MG Correction to account for finite box:                  0.460302
MG Remaining discrepancy, due to discretization:         -0.185670 (  -0.01475%)
      ideal mu1:      -0.725254938958
             Q0:  -11689.081875360687
             G0:      -0.001108405779
   RMS gradient:       0.000005089707
MG BCs: +ve charge blocks (gridpoints):     24418 (   16786635).
MG BCs: -ve charge blocks (gridpoints):      8400 (    1079167).
MG BCs:     Elided blocks (gridpoints):    179870 (  181312079).
MG BCs: Computational effort saved:  99.9835%.
MG BCs: Charge after coarse-graining:           -9.0006560.
MG DL_MG: Calling solver with defect correction order = 8
MG DL_MG: Solver finished
MG Hartree energy from (\int phi*rho dr):              1259.118793
MG Hartree energy from (\int eps (grad phi)^2 dr):     1258.472810
MG Discrepancy due to finite box and discretization:     -0.645982 (  -0.05130%)
MG Correction to account for finite box:                  0.460306
MG Remaining discrepancy, due to discretization:         -0.185676 (  -0.01475%)
     Trial step:       0.550310219966
             Q1:  -11689.082345614443
 Quadratic coef:       0.000139713273
 Linear coef   :      -0.000609967028
           Qmin:  -11689.082541116646
Quadratic minimum step length (  1.201285613696) accepted
    Initial Ne1:    7228.00001189
      Final Ne1:    7228.00000000

=================== Penalty functional idempotency correction ==================
 RMS occupancy error at iteration   1:  0.000006 (step -0.4997 Ne1=   7228.0000)
            Final RMS occupancy error   :  0.000000 (Ne1=   7228.0000)
               Final occupancy bounds   : [ -0.0000,  1.0000]
================================================================================

    8        -1.168908187536E+04     5.0897E-06     4.6059E-06    -4.5000E-04
MG BCs: +ve charge blocks (gridpoints):     24418 (   16786564).
MG BCs: -ve charge blocks (gridpoints):      8399 (    1079182).
MG BCs:     Elided blocks (gridpoints):    179870 (  181312135).
MG BCs: Computational effort saved:  99.9835%.
MG BCs: Charge after coarse-graining:           -9.0006560.
MG DL_MG: Calling solver with defect correction order = 8
MG DL_MG: Solver finished
[...]
MG DL_MG: Solver finished
MG Hartree energy from (\int phi*rho dr):              1216.542835
MG Hartree energy from (\int eps (grad phi)^2 dr):     1216.351898
MG Discrepancy due to finite box and discretization:     -0.190937 (  -0.01570%)
MG Correction to account for finite box:                  0.006290
MG Remaining discrepancy, due to discretization:         -0.184647 (  -0.01518%)
             Q2:  -11723.448200739687
  Cubic LS coeff:       0.947774202304
Predicted energy:  -11723.448200739691
Cubic minimum step length accepted
    Initial Ne1:    7228.00000000
      Final Ne1:    7228.00000000

=================== Penalty functional idempotency correction ==================
 RMS occupancy error at iteration   1:  0.000000 (step -0.5000 Ne1=   7228.0000)
            Final RMS occupancy error   :  0.000000 (Ne1=   7228.0000)
               Final occupancy bounds   : [  0.0000,  1.0000]
================================================================================

    7        -1.172344820074E+04     8.0020E-09     7.2415E-09    -1.7462E-09

Reusing previously generated solute cavity.
MG BCs: +ve charge blocks (gridpoints):     28765 (   18955997).
MG BCs: -ve charge blocks (gridpoints):      8371 (    1047971).
MG BCs:     Elided blocks (gridpoints):    175523 (  179173913).
MG BCs: Computational effort saved:  99.9814%.
MG BCs: Charge after coarse-graining:           -9.0009372.
MG DL_MG: Calling solver with defect correction order = 8
MG DL_MG: Solver finished
MG Hartree energy from (\int phi*rho dr):              1216.542835
MG Hartree energy from (\int eps (grad phi)^2 dr):     1216.351898
MG Discrepancy due to finite box and discretization:     -0.190937 (  -0.01570%)
MG Correction to account for finite box:                  0.006290
MG Remaining discrepancy, due to discretization:         -0.184647 (  -0.01518%)
      ideal mu1:      -0.480618104395
             Q0:  -11723.448200739804
             G0:      -0.000000003367
   RMS gradient:       0.000000008754

Reusing previously generated solute cavity.
MG BCs: +ve charge blocks (gridpoints):     28765 (   18955998).
MG BCs: -ve charge blocks (gridpoints):      8371 (    1047971).
MG BCs:     Elided blocks (gridpoints):    175523 (  179173912).
MG BCs: Computational effort saved:  99.9814%.
MG BCs: Charge after coarse-graining:           -9.0009372.
MG DL_MG: Calling solver with defect correction order = 8
MG DL_MG: Solver finished
MG Hartree energy from (\int phi*rho dr):              1216.542802
MG Hartree energy from (\int eps (grad phi)^2 dr):     1216.351865
MG Discrepancy due to finite box and discretization:     -0.190937 (  -0.01570%)
MG Correction to account for finite box:                  0.006290
MG Remaining discrepancy, due to discretization:         -0.184647 (  -0.01518%)
     Trial step:       0.656367276479
             Q1:  -11723.448200740619
 Quadratic coef:       0.000000001395
 Linear coef   :      -0.000000002210
           Qmin:  -11723.448200740679
Quadratic minimum step length (  0.519830675792) accepted
    Initial Ne1:    7228.00000000
      Final Ne1:    7228.00000000

=================== Penalty functional idempotency correction ==================
 RMS occupancy error at iteration   1:  0.000000 (step -0.5000 Ne1=   7228.0000)
            Final RMS occupancy error   :  0.000000 (Ne1=   7228.0000)
               Final occupancy bounds   : [ -0.0000,  1.0000]
================================================================================

    8        -1.172344820074E+04     8.7544E-09     7.9223E-09    -3.6089E-09

Reusing previously generated solute cavity.
MG BCs: +ve charge blocks (gridpoints):     28765 (   18955998).
MG BCs: -ve charge blocks (gridpoints):      8371 (    1047971).
MG BCs:     Elided blocks (gridpoints):    175523 (  179173912).
MG BCs: Computational effort saved:  99.9814%.
MG BCs: Charge after coarse-graining:           -9.0009372.
MG DL_MG: Calling solver with defect correction order = 8
MG DL_MG: Solver finished
MG Hartree energy from (\int phi*rho dr):              1216.542809
MG Hartree energy from (\int eps (grad phi)^2 dr):     1216.351872
MG Discrepancy due to finite box and discretization:     -0.190937 (  -0.01570%)
MG Correction to account for finite box:                  0.006290
MG Remaining discrepancy, due to discretization:         -0.184647 (  -0.01518%)
      ideal mu1:      -0.480618075348
             Q0:  -11723.448200740619
             G0:      -0.000000001616
   RMS gradient:       0.000000005043

Reusing previously generated solute cavity.
MG BCs: +ve charge blocks (gridpoints):     28765 (   18955998).
MG BCs: -ve charge blocks (gridpoints):      8371 (    1047971).
MG BCs:     Elided blocks (gridpoints):    175523 (  179173912).
MG BCs: Computational effort saved:  99.9814%.
MG BCs: Charge after coarse-graining:           -9.0009372.
MG DL_MG: Calling solver with defect correction order = 8
MG DL_MG: Solver finished
MG Hartree energy from (\int phi*rho dr):              1216.542801
MG Hartree energy from (\int eps (grad phi)^2 dr):     1216.351864
MG Discrepancy due to finite box and discretization:     -0.190937 (  -0.01570%)
MG Correction to account for finite box:                  0.006290
MG Remaining discrepancy, due to discretization:         -0.184647 (  -0.01518%)
     Trial step:       0.584123141897
             Q1:  -11723.448200740037
 Quadratic coef:       0.000000001526
 Linear coef   :      -0.000000000944
           Qmin:  -11723.448200740764
Quadratic minimum step length (  0.180621198823) accepted
    Initial Ne1:    7228.00000000
      Final Ne1:    7228.00000000

=================== Penalty functional idempotency correction ==================
 RMS occupancy error at iteration   1:  0.000000 (step -0.5000 Ne1=   7228.0000)
            Final RMS occupancy error   :  0.000000 (Ne1=   7228.0000)
               Final occupancy bounds   : [  0.0000,  1.0000]
================================================================================

    9        -1.172344820074E+04     5.0427E-09     4.5634E-09    -8.1491E-10

Reusing previously generated solute cavity.
MG BCs: +ve charge blocks (gridpoints):     28765 (   18955998).
MG BCs: -ve charge blocks (gridpoints):      8371 (    1047971).
MG BCs:     Elided blocks (gridpoints):    175523 (  179173912).
MG BCs: Computational effort saved:  99.9814%.
MG BCs: Charge after coarse-graining:           -9.0009372.
MG DL_MG: Calling solver with defect correction order = 8
MG DL_MG: Solver finished
MG Hartree energy from (\int phi*rho dr):              1216.542807
MG Hartree energy from (\int eps (grad phi)^2 dr):     1216.351870
MG Discrepancy due to finite box and discretization:     -0.190937 (  -0.01570%)
MG Correction to account for finite box:                  0.006290
MG Remaining discrepancy, due to discretization:         -0.184647 (  -0.01518%)
      ideal mu1:      -0.480618070237
   10        -1.172344820074E+04     3.7958E-09     3.4350E-09     2.3283E-10
Finished density kernel iterations (  10)


>>> Density kernel optimised for the current NGWF basis:
     ~~~~~~~~~~~~~~~~~~~~~~~~~~~~~~~~~~~~~~~~~~~~~~~~~~~~~~~~~~~
     Total energy                =  -1.17234482007404E+04  Eh
     Estimated bandgap           =   9.5385E-02  Eh
     RMS occupancy error         =   3.3391E-16
     [H,K] commutator            =   3.4350E-09
     Occupancy bounds            = [  0.000:  1.000]
     ~~~~~~~~~~~~~~~~~~~~~~~~~~~~~~~~~~~~~~~~~~~~~~~~~~~~~~~~~~~




################################################################################
########################### NGWF CG iteration  004 #############################
################################################################################
****** Reciprocal space K.E. preconditioning with k_zero =  3.5000 a0^-1 *******

>>> Checking for convergence of NGWFs: 
           ........................................................
           |         *** NGWF optimisation converged ***          |
           | RMS NGWF gradient =    0.00000194119181              |
           | Criteria satisfied:                                  |
           | -> RMS NGWF gradient lower than set threshold.       |
           ========================================================

Reusing previously generated solute cavity.
MG BCs: +ve charge blocks (gridpoints):     28765 (   18955998).
MG BCs: -ve charge blocks (gridpoints):      8371 (    1047971).
MG BCs:     Elided blocks (gridpoints):    175523 (  179173912).
MG BCs: Computational effort saved:  99.9814%.
MG BCs: Charge after coarse-graining:           -9.0009372.
MG DL_MG: Calling solver with defect correction order = 8
MG DL_MG: Solver finished
MG Hartree energy from (\int phi*rho dr):              1216.542807
MG Hartree energy from (\int eps (grad phi)^2 dr):     1216.351870
MG Discrepancy due to finite box and discretization:     -0.190937 (  -0.01570%)
MG Correction to account for finite box:                  0.006290
MG Remaining discrepancy, due to discretization:         -0.184647 (  -0.01518%)

================================================================================
           ---------------- ENERGY COMPONENTS (Eh) ----------------
           | Kinetic                    :     8560.75853760209793 |
           | Pseudo. (local,OBC,corr'd) :    -5065.78856521062335 |
           | Pseudopotential (non-local):     1408.83997027139912 |
           | Hartree (molecular)        :     1216.54280653346200 |
           | Exchange-correlation       :    -3372.33815933618280 |
           | Ion-ion (open BC)          :   835047.57712523383088 |
           | Dispersion Correction      :       -3.27982814444258 |
           | Smeared ion non-self corr. :  -834999.40544071467593 |
           | Smeared ion self corr.     :   -14517.01090595763344 |
           | Solvent cavitation energy  :        2.33481804616651 |
           | Solute-solvent dis-rep en. :       -1.67855906384026 |
           | Total                      :   -11723.44820074028939 |
           --------------------------------------------------------
           ------ LOCAL ENERGY COMPONENTS FROM MATRIX TRACES ------
           | Pseudopotential (local)    :    -5065.78856521063426 |
           | Hartree                    :    -1998.64836237259738 |
           --------------------------------------------------------
           Integrated density           :     7227.99999999899410
           Integrated density tr(KS)    :     7228.00000000000091
================================================================================


                        <<<<< CALCULATION SUMMARY >>>>>                         
|ITER|    RMS GRADIENT   |     TOTAL ENERGY    |   step   |     Epredicted              
   0     0.00004063208574 -11723.38268850510940   0.630393 -11723.43928788412995        
   1     0.00000971967493 -11723.44768482609652   0.083498 -11723.44811381287036        
   2     0.00000431564821 -11723.44818284909707   0.015490 -11723.44819853832450        
   3     0.00000194119181 -11723.44820074038580  <-- CG                                 

=================== Finished the calculation in solvent ========================
= Adjusting the following parameters: 
= read_denskern: F
= read_tightbox_ngwfs: F
= maxit_pen: 0 (restored to user-specified value)
= restart read filename prefix: ""
= restart write filename prefix: ""
================================================================================

================================================================================
IS: Calculation in solvent completed (NGWFs converged).      

Individual components of total energy in solvent:     hartree           kcal/mol
- Usual non-electrostatic DFT terms:    -12940.64726625617368    -8120378.583912
- Electrostatic fixed charge energy:      1216.54280653346200      763392.120141
- Apolar cavitation energy:                  2.33481804616651        1465.120412
- Apolar dispersion-repulsion energy:       -1.67855906384026       -1053.311692
 -------------------------------------------------------------------------------
- Total energy in solvent:              -11723.44820074038580    -7356574.655051

Components of total energy in solvent:                hartree           kcal/mol
- Usual non-electrostatic DFT terms:    -12940.64726625617368    -8120378.583912
- Electrostatic energy:                   1216.54280653346200      763392.120141
- Apolar energy terms:                       0.65625898232625         411.808720
 -------------------------------------------------------------------------------
- Total energy in solvent:              -11723.44820074038580    -7356574.655051

Calculation of free energy of solvation:              hartree           kcal/mol
- Total energy in solvent:         (+)  -11723.44820074038580    -7356574.655051
- Total energy in vacuum:          (-)  -11719.49933710938785    -7354096.705764
 -------------------------------------------------------------------------------
- Total free energy of solvation:           -3.94886363099795       -2477.949286

Components of polar term in f.e. of solvation:        hartree           kcal/mol
- Electrostatic:                            -4.73165864441262       -2969.160563
- Change in nonelectrostatic DFT terms:      0.12653603108811          79.402557
 -------------------------------------------------------------------------------
- Polar term in f.e. of solvation:          -4.60512261332451       -2889.758006

Components of free energy of solvation:               hartree           kcal/mol
- Polar term in f.e. of solvation: (+)      -4.60512261332451       -2889.758006
- Apolar (cavitation, dis., rep.): (+)       0.65625898232625         411.808720
 -------------------------------------------------------------------------------
- Total free energy of solvation:           -3.94886363099826       -2477.949286
================================================================================


------------------------------ TIMING INFORMATION ------------------------------
AVERAGE TIME:   30031.012s on     60 node(s)                                    
TOTAL TIME:     30031.013s on     60 node(s)                                    
================= AVERAGE TIMINGS FROM ALL NODES (CUMULATIVE) ==================
|| TAG                                    #calls    cpu time   %total  Gflops ||
|| work_imbalance                       :     1        0.00s   0.000%  ------ ||
|| sparse_set_to_garbage                :   164        0.03s   0.000%  ------ ||
|| parallel_prepare_fd_halos_request    :  1827        0.03s   0.000%  ------ ||
|| ngwfs_initialise_from_radial         :     1        0.10s   0.000%  ------ ||
|| basis_extract_function_from_box      :  3379        0.15s   0.001%  ------ ||
|| parallel_prepare_fd_halos_satisfy    :  1827        0.63s   0.002%  ------ ||
|| parallel_prepare_fd_halos_alloc      :  1827        1.47s   0.005%  ------ ||
|| pseudopotentials_nonlocal_mat        :    28        2.05s   0.007%  ------ ||
|| openbc_locps_radial                  :     1        4.81s   0.016%  ------ ||
|| restart_ngwfs_tightbox_input         :     1        6.57s   0.022%  ------ ||
|| parallel_prepare_fd_halos_comms_imbal:  1827        9.19s   0.031%  ------ ||
|| density_init_guess_real              :     1       12.42s   0.041%  ------ ||
|| restart_kernel_read                  :     1       13.03s   0.043%  ------ ||
|| parallel_prepare_fd_halos_clear      :  1827       19.33s   0.064%  ------ ||
|| sparse_init                          :     2       23.61s   0.079%  ------ ||
|| projectors_func_ovlp_box             :    28       24.76s   0.082%  ------ ||
|| parallel_prepare_fd_halos_comms_wait :  1827       26.60s   0.089%  ------ ||
|| function_ops_brappd_ketppd           :    28       27.61s   0.092%  ------ ||
|| projectors_init_fftbox_recip         :   133       29.82s   0.099%  ------ ||
|| palser_mano_kernel_optimise          :     1       33.38s   0.111%  ------ ||
|| basis_copy_function_to_box           : 54508       38.66s   0.129%  ------ ||
|| ngwf_gradient_coeffs                 :    15       46.90s   0.156%  ------ ||
|| fourier_apply_box_pair               :  4810       49.57s   0.165% 561.810 ||
|| parallel_prepare_fd_halos            :  1827       57.27s   0.191%  ------ ||
|| pseudo_make_structure_factor         :     2       62.11s   0.207%  ------ ||
|| restart_kernel_write                 :    12       71.13s   0.237%  ------ ||
|| sparse_embed_hotelling_invert_embed  :    28       75.51s   0.251%  ------ ||
|| integrals_kinetic                    :    28      137.30s   0.457%  ------ ||
|| projectors_gradient_batch            :   105      141.18s   0.470%  ------ ||
|| basis_dot_function_with_box          : 8.395M     167.34s   0.557%  ------ ||
|| fourier_apply_cell_backward          :  1219      169.59s   0.565% 101.959 ||
|| finite_difference_derivative         :  1827      177.75s   0.592%  ------ ||
|| sparse_trace                         :  4866      178.71s   0.595%  ------ ||
|| fourier_apply_cell_forward           :  1217      220.47s   0.734%  78.301 ||
|| openbc_locps_on_grid                 :     2      276.32s   0.920%  ------ ||
|| kernel_purify                        :   464      285.47s   0.951%  ------ ||
|| basis_add_function_to_box            : 17.46M     400.82s   1.335%  ------ ||
|| lnv_gradient_norm                    :   150      410.17s   1.366%  ------ ||
|| xc_energy_potential                  :   304      452.32s   1.506%  ------ ||
|| kernel_fix                           :   150      482.99s   1.608%  ------ ||
|| hamiltonian_energy_components        :     4      504.49s   1.680%  ------ ||
|| integrals_locpot_mat_els_batch       :  1113      710.96s   2.367%  ------ ||
|| ngwf_gradient_build_batch            :   105      716.96s   2.387%  ------ ||
|| restart_ngwfs_tightbox_output        :    10      769.41s   2.562%  ------ ||
|| ngwf_gradient_batch                  :   105     1001.06s   3.333%  ------ ||
|| density_batch_row_sums               :  2121     1009.37s   3.361%  ------ ||
|| ngwf_gradient_lnv                    :    15     1146.74s   3.819%  ------ ||
|| cell_grid_deposit_box_real           : 35200     1321.95s   4.402%  ------ ||
|| cell_grid_extract_box_real           : 38596     1500.38s   4.996%  ------ ||
|| sparse_product                       :  6173     1747.98s   5.821%  ------ ||
|| density_fftbox_deposit_to_cell       : 33330     1960.69s   6.529%  ------ ||
|| density_fftbox_interpolate_multiply  : 33330     3418.97s  11.385%  ------ ||
|| potential_apply_to_ngwf_batch        :  1113     3520.48s  11.723%  ------ ||
|| fourier_apply_box                    : 114.7k    4233.83s  14.098% 760.432 ||
|| integrals_locpot_dbl_grid            :   159     4249.67s  14.151%  ------ ||
|| multigrid_prepare_bound_cond         :   304     4298.42s  14.313%  ------ ||
|| density_batch_interp_deposit         :  2121     6294.47s  20.960%  ------ ||
|| density_on_dbl_grid                  :   303     7675.29s  25.558%  ------ ||
|| dl_mg_solver_calls                   :   304     7696.01s  25.627%  ------ ||
|| multigrid_calculate_hartree          :   304    12226.61s  40.713%  ------ ||
|| hamiltonian_lhxc_calculate           :   299    20263.85s  67.476%  ------ ||
|| lnv_denskernel_optimise_cg           :    15    25311.65s  84.285%  ------ ||
|| ngwf_cg_optimise                     :     2    28984.39s  96.515%  ------ ||
|| total_time                           :     1    30031.01s 100.000%  ------ ||
================================================================================
Overhead of generating timer report: 
- 0 ms averaging over threads,
- 15 ms ensuring consistency across MPI ranks,
- 0 ms printing in order.

Job completed: 05-06-2020 02:31 (+0100)

Application 40747427 resources: utime ~6297955s, stime ~207945s, Rss ~3683516, inblocks ~320406207, outblocks ~48676812
