 +---------------------------------------------------------------+
 |                                                               |
 |        ####### #     # ####### ####### ####### ######         |
 |        #     # ##    # #          #    #       #     #        |
 |        #     # # #   # #          #    #       #     #        |
 |        #     # #  #  # #####      #    #####   ######         |
 |        #     # #   # # #          #    #       #              |
 |        #     # #    ## #          #    #       #              |
 |        ####### #     # #######    #    ####### #              |
 |                                                               |
 |        Linear-Scaling Ab Initio Total Energy Program          |
 |                                                               |
 |          Release for academic collaborators of ODG            |
 |                                             Version 5.3.2.6.  |
 |                                                               |
 +---------------------------------------------------------------+
 |                                                               |
 |  Authors:                                                     |
 |  Jacek Dziedzic, Peter D. Haynes, Nicholas D. M. Hine,        |
 |  Arash. A. Mostofi, Mike C. Payne and Chris-Kriton Skylaris   |
 |                                                               |
 |  Contributors:                                                |
 |  J. Aarons, L. Andrinopoulos, P. W. Avraam, R. A. Bell,       |
 |  A. Bhandari, G. A. Bramley, R. J. Charlton, S. J. Clark,     |
 |  R. J. Clements, G. C. Constantinescu, F. Corsetti,           |
 |  N. Corsini, O. Dieguez, S. M. M. Dubois, K. K. B. Duff,      |
 |  J. M. Escartin, A. Greco, H. Helal, Q. O. Hill, L. P. Lee,   |
 |  J.-H. Li, E. B. Linscott, G. Moynihan, D. D. O`Regan,        |
 |  O. K. Okan, M. J. S. Phipps, C. J. Pickard,                  |
 |  J. C. A. Prentice, M. I. J. Probert, L. E. Ratcliff,         |
 |  M. Robinson, A. Ruiz Serrano, J. S. Spencer, E. W. Tait,     |
 |  G. Teobaldi, D. Turban, V. Vitale, K. A. Wilkinson,          |
 |  C. Weber, J. C. Womack, N. Yeung and T. J. Zuehlsdorff       |
 |                                                               |
 |                                   Copyright (c) 2004-2019     |
 |                                                               |
 |  Please cite:                                                 |
 |  "Introducing ONETEP: Linear-scaling density functional       |
 |   simulations on parallel computers".                         |
 |   C.-K. Skylaris, P. D. Haynes, A. A. Mostofi, M. C. Payne.   |
 |   J. Chem. Phys. 122 084119 (2005).                           |
 |                                                               |
 |          in all publications arising from your use of ONETEP. |
 |                                                               |
 +---------------------------------------------------------------+
 |                                                               |
 |   ONETEP is based on developments described in the following  |
 |   publications:                                               |
 |                                                               |
 |  "Nonorthogonal generalized Wannier function pseudopotential  |
 |   plane-wave method".                                         |
 |   C.-K. Skylaris, A. A. Mostofi, P. D. Haynes, O. Dieguez,    |
 |   M. C. Payne.                                                |
 |   Phys. Rev. B 66 035119 (2002).                              |
 |                                                               |
 |  "Preconditioned iterative minimization for linear-scaling    |
 |   electronic structure calculations".                         |
 |   A. A. Mostofi, P. D. Haynes, C.-K. Skylaris, M. C. Payne.   |
 |   J. Chem. Phys. 119(17), pp.8842-8848 (2003).                |
 |                                                               |
 |  "Total-energy calculations on a real space grid with         |
 |   localized functions and a plane-wave basis".                |
 |   A. A. Mostofi, C.-K. Skylaris, P. D. Haynes, M. C. Payne.   |
 |   Comput. Phys. Commun. 147, pp.788-802 (2002).               |
 |                                                               |
 |  "Accurate kinetic energy evaluation in electronic structure  |
 |   calculations with localized functions on real space grids"  |
 |   C.-K. Skylaris, A. A. Mostofi, P. D. Haynes, C. J. Pickard, |
 |   M. C. Payne.                                                |
 |   Comput. Phys. Commun. 140, pp.315-322 (2001).               |
 |                                                               |
 |  "Accurate ionic forces and geometry optimization in linear-  |
 |   scaling density-functional theory with local orbitals"      |
 |   N. D. M. Hine, M. Robinson, P. D. Haynes, C.-K. Skylaris,   |
 |   M. C. Payne, and A. A. Mostofi.                             |
 |   Phys. Rev. B 83 195102 (2011).                              |
 |                                                               |
 +---------------------------------------------------------------+

Job started: 22-06-2020 20:05 (+0100)
 
Reading parameters from file "host_11501.dat" ...... done

If your calculation crashes here, before "Checking processes and threads..."
is displayed, then your stack size is insufficient.
If so, use "ulimit -s unlimited" at runtime.
You can disable this check with "check_stack_size F".

Checking processes and threads...
   Determining the default number of threads...
      No default threads set at compilation time: defaulting to 1.
      OpenMP library call suggests 4 threads.
      Hybrid MPI-OpenMP compilation detected.
      Number of MPI processes > 1.
      OMP_NUM_THREADS environment variable present and
      its value matches the one obtained from the OpenMP library call.
      Using this value as default.
      Default threads: 4
      Default applies to threads_max and threads_num_fftboxes.
      Settings in the input file override this default.
   ... done

   Running with 60 MPI processes.
   There are 6 MPI processes running on the same node as the root process.
   Each MPI process is using: 
               1 threads for simulation cell FFTs.
               1 threads for parallel FFT box operations.
               4 threads for loops over batched FFT box operations.
               4 threads in other parallel regions.
... done

Basic input checks...... done

Reading geometry and species blocks from file "host_11501.dat" ...
  <species_atomic_set> block not found: NGWF initialisation set to SOLVE
IS: Dielectric excluded regions:
    - NONE.
    
  Number of PPD points along a3 set to 1.  This is 
  the default value, it may have been provided also in the input file.
... done
 Writing xyz coordinates to file "host_11501.xyz" ... done


--------------------------------------------------------------------------------
---------------------------------- INPUT FILE ----------------------------------
--------------------------------------------------------------------------------

cutoff_energy       : 800 eV                                                    
xc_functional PBE                                                               
task SINGLEPOINT                                                                
write_xyz true                                                                  
output_detail VERBOSE                                                           
ngwf_threshold_orig : 0.000002                                                  
kernel_cutoff       : 1000                                                      
k_zero              : 3.5                                                       
elec_cg_max 0                                                                   
occ_mix 1.0                                                                     
dispersion 1                                                                    
maxit_ngwf_cg 40                                                                
minit_lnv 10                                                                    
maxit_lnv 10                                                                    
write_denskern F                                                                
write_tightbox_ngwfs F                                                          
charge 9                                                                        
is_implicit_solvent T                                                           
is_auto_solvation T                                                             
is_include_apolar T                                                             
is_smeared_ion_rep T                                                            
is_solvent_surf_tension 4.7624E-5 Ha/bohr**2                                    
is_apolar_scaling_factor 0.281075                                               
is_solvation_beta 1.3                                                           
is_density_threshold 0.00035                                                    
is_bulk_permittivity 78.54                                                      
is_dielectric_model fix_initial                                                 
is_smeared_ion_width 0.8                                                        
mg_defco_fd_order 8                                                             
is_bc_coarseness 10                                                             
is_bc_surface_coarseness 1                                                      
fine_grid_scale 2.0                                                             
%block species                                                                  
N   N   7 4 8.0                                                                 
H   H   1 1 8.0                                                                 
C   C   6 4 8.0                                                                 
S   S  16 9 8.0                                                                 
O   O   8 4 8.0                                                                 
%endblock species                                                               
%block species_pot                                                              
N   N_00.recpot                                                                 
H   H_04.recpot                                                                 
C   C_01.recpot                                                                 
S   S_00.recpot                                                                 
O   O_02.recpot                                                                 
%endblock species_pot                                                           
%block lattice_cart                                                             
140.777   0.000   0.000                                                         
0.000 144.511   0.000                                                           
0.000   0.000   162.462                                                         
%endblock lattice_cart                                                          
%block positions_abs                                                            
     Hash =  -000003982365216747316713
%endblock positions_abs                                                         

--------------------------------------------------------------------------------
-------------------------------- END INPUT FILE --------------------------------
--------------------------------------------------------------------------------


 
 ESDF WARNING(1): "kernelcutoff" (esdf_physical) has no units. Assume "bohr".
 ESDF WARNING(2): "kzero" (esdf_physical) has no units. Assume "1/bohr".
 ESDF WARNING(3
 ): "issmearedionwidth" (esdf_physical) has no units. Assume "bohr".
<<<<<<<<<<<<<<<<<<<<<<<<<<<<<<<<< Full system >>>>>>>>>>>>>>>>>>>>>>>>>>>>>>>>>>
<<<<<<<<<<<<<<<<<<<<<<<<< Pseudopotential information >>>>>>>>>>>>>>>>>>>>>>>>>>
File: N_00.recpot [ 2001 points up to Gmax=  52.9 (1/bohr)]
  Atomic number:  7;  ionic charge:  5.000000
    Shell 1: l = 0; rc = 1.48 bohr
File: H_04.recpot [ 2001 points up to Gmax=  52.9 (1/bohr)]
  Atomic number:  1;  ionic charge:  1.000000
    Local potential
File: C_01.recpot [ 2001 points up to Gmax=  52.9 (1/bohr)]
  Atomic number:  6;  ionic charge:  4.000000
    Shell 1: l = 0; rc = 1.48 bohr
File: S_00.recpot [ 2001 points up to Gmax=  52.9 (1/bohr)]
  Atomic number: 16;  ionic charge:  6.000000
    Shell 1: l = 0; rc = 1.90 bohr
    Shell 2: l = 2; rc = 1.84 bohr
File: O_02.recpot [ 2001 points up to Gmax=  52.9 (1/bohr)]
  Atomic number:  8;  ionic charge:  6.000000
    Shell 1: l = 0; rc = 1.31 bohr
<<<<<<<<<<<<<<<<<<<<<<<<<<<<<<<<<<<<<<<<>>>>>>>>>>>>>>>>>>>>>>>>>>>>>>>>>>>>>>>>

-------------------------- Atom counting information ---------------------------
Symbol    Natoms    Nngwfs    Nprojs
  N        236       944       236
  H       1311      1311         0
  C        810      3240       810
  S          6        54        36
  O        239       956       239
.......   ......    ......    ......
Totals:   2602      6505      1321
--------------------------------------------------------------------------------

=============================== PSINC grid sizes ===============================
                      Simulation cell:  280 x 286 x 320
                              FFT-box:   99 x  99 x  99
                                  PPD:    5 x  11 x   1
Grid space d1=  0.502775000000a0 (KE cutoff=  30.05084Eh = 817.72503eV)
Grid space d2=  0.505283216783a0 (KE cutoff=  29.75324Eh = 809.62684eV)
Grid space d3=  0.507693750000a0 (KE cutoff=  29.47137Eh = 801.95686eV)
================================================================================

********************* Fourier parallelisation information **********************
       Coarse grid (whole simulation cell) dimensions:    280   286   320
          Real-space ('12') slabs/node (min max mean):      5     6     5
         Recip-space ('23') slabs/node (min max mean):      2     3     2
********************************************************************************

********************* Fourier parallelisation information **********************
       Double grid (whole simulation cell) dimensions:    560   572   640
          Real-space ('12') slabs/node (min max mean):     10    11    10
         Recip-space ('23') slabs/node (min max mean):      4     5     4
********************************************************************************
ONETEP fine grid is 560 x 572 x 640 gridpoints, 140.7770 x 144.5110 x 162.4620 bohr.
FD multigrid is     553 x 569 x 633 gridpoints, 139.0173 x 143.7531 x 160.6851 bohr.


Calculating local pseudopotential in open BC on a radial grid ...
Discrepancy between calculated realspace psloc and -Z/x on [5a0,259.028a0]:
max |rel. diff| # avg |rel. diff| #  avg rel. diff #  f # pseudopotential file
 0.000261578119    0.000004844123   0.000000072210   55  'N_00.recpot'
 0.000419583258    0.000017514079  -0.000000069370   55  'H_04.recpot'
 0.000363553651    0.000016734795   0.000000141192   55  'C_01.recpot'
 0.000449990737    0.000019382085   0.000000449342   55  'S_00.recpot'
 0.000706973137    0.000028359832   0.000000146371   55  'O_02.recpot'
... done

Atom SCF Calculation for N  : Z (AE atom) =   7 : Z (PS atom) =   5
Config String:
Orbitals (num,occ):  2     2.00 3.00
Orbitals   (num,l):  2        0    1
Real-space Grid (nr,dr,rmax): 1203    0.0066555740    8.0000000000
Spherical Bessel Basis (nsws,lmax,cutoff):   47    1  176.3951722778
Confining potential (l,width,scale):  0    3.0000000000  100.0000000000
Confining potential (l,width,scale):  1    3.0000000000  100.0000000000
  1         -4.7312375307   -3.4155304497    7.0523828109   -1.9351020946
  2         -9.7309464766   -2.0532547791    8.2966052865   -2.2494486027
  3         -9.6627394379   -2.1124926340    8.2327997121   -2.2369778124
  4         -9.6814993499   -2.1215521045    8.2229805960   -2.2365178421
  5         -9.6843326483   -2.1250939529    8.2191374534   -2.2362718126
  6         -9.6859628709   -2.1267894855    8.2172963573   -2.2362066344
  7         -9.6867347035   -2.1276425665    8.2163697352   -2.2361903369
  8         -9.6870802100   -2.1280764625    8.2158983890   -2.2361891460
  9         -9.6872290423   -2.1282977424    8.2156580222   -2.2361920435
 10         -9.6872901988   -2.1284107021    8.2155353368   -2.2361953393
 11         -9.6873135296   -2.1284684031    8.2154726809   -2.2361979819
 12         -9.6873212476   -2.1284978948    8.2154406648   -2.2361998431
 13         -9.6873229586   -2.1285129774    8.2154242957   -2.2362010676
 14         -9.6873226456   -2.1285206957    8.2154159216   -2.2362018403
 15         -9.6873218534   -2.1285246479    8.2154116349   -2.2362023142
 16         -9.6873212599   -2.1285262679    8.2154098784   -2.2362025420
 17         -9.6873207834   -2.1285272564    8.2154088068   -2.2362026955
 18         -9.6873204210   -2.1285278596    8.2154081529   -2.2362027982
 19         -9.6873201550   -2.1285282280    8.2154077538   -2.2362028667
 20         -9.6873199645   -2.1285284529    8.2154075102   -2.2362029121
 21         -9.6873198305   -2.1285285903    8.2154073614   -2.2362029421
 22         -9.6873197377   -2.1285286742    8.2154072705   -2.2362029618
Atom SCF converged after  22 iterations to a total energy of     -9.68731974

Atom SCF Calculation for H  : Z (AE atom) =   1 : Z (PS atom) =   1
Config String:
Orbitals (num,occ):  1     1.00
Orbitals   (num,l):  1        0
Real-space Grid (nr,dr,rmax): 1203    0.0066555740    8.0000000000
Spherical Bessel Basis (nsws,lmax,cutoff):   47    0  176.3951722778
Confining potential (l,width,scale):  0    3.0000000000  100.0000000000
  1         -0.3194257691   -0.2393854593    0.2820953124   -0.2424203209
  2         -0.3951823392   -0.2377116493    0.2886404059   -0.2475147891
  3         -0.4317044583   -0.2352244387    0.2921333887   -0.2514046172
  4         -0.4470703708   -0.2341892222    0.2934391879   -0.2531009782
  5         -0.4532132900   -0.2338556667    0.2938388426   -0.2537313520
  6         -0.4556579251   -0.2337612552    0.2939448584   -0.2539550462
  7         -0.4566418315   -0.2337377355    0.2939680120   -0.2540342273
  8         -0.4570437922   -0.2337331116    0.2939708287   -0.2540627372
  9         -0.4572102946   -0.2337328328    0.2939698291   -0.2540732650
 10         -0.4572800424   -0.2337332404    0.2939687193   -0.2540772588
 11         -0.4573095100   -0.2337335791    0.2939680317   -0.2540788122
 12         -0.4573220379   -0.2337337762    0.2939676699   -0.2540794294
 13         -0.4573273880   -0.2337338775    0.2939674931   -0.2540796787
 14         -0.4573296803   -0.2337339266    0.2939674099   -0.2540797808
 15         -0.4573306647   -0.2337339495    0.2939673718   -0.2540798230
 16         -0.4573310882   -0.2337339601    0.2939673545   -0.2540798406
 17         -0.4573312706   -0.2337339649    0.2939673467   -0.2540798479
 18         -0.4573313493   -0.2337339670    0.2939673433   -0.2540798510
Atom SCF converged after  18 iterations to a total energy of     -0.45733135

Atom SCF Calculation for C  : Z (AE atom) =   6 : Z (PS atom) =   4
Config String:
Orbitals (num,occ):  2     2.00 2.00
Orbitals   (num,l):  2        0    1
Real-space Grid (nr,dr,rmax): 1203    0.0066555740    8.0000000000
Spherical Bessel Basis (nsws,lmax,cutoff):   47    1  176.3951722778
Confining potential (l,width,scale):  0    3.0000000000  100.0000000000
Confining potential (l,width,scale):  1    3.0000000000  100.0000000000
  1         -5.2976922011   -1.3069684169    4.5135249990   -1.4493313817
  2         -5.3721716256   -1.3429755895    4.4750154450   -1.4361613026
  3         -5.3809959565   -1.3617365618    4.4541655428   -1.4305930207
  4         -5.3918938866   -1.3667928461    4.4484735100   -1.4294652294
  5         -5.3956096428   -1.3688539142    4.4461376126   -1.4290734646
  6         -5.3968271862   -1.3696852393    4.4451910874   -1.4289366866
  7         -5.3972028401   -1.3700178062    4.4448112275   -1.4288900460
  8         -5.3973067903   -1.3701500158    4.4446598370   -1.4288749220
  9         -5.3973286940   -1.3702023868    4.4445997329   -1.4288704293
 10         -5.3973289850   -1.3702230869    4.4445759233   -1.4288693188
 11         -5.3973254264   -1.3702312560    4.4445665049   -1.4288691775
 12         -5.3973224003   -1.3702344755    4.4445627836   -1.4288692549
 13         -5.3973208708   -1.3702354890    4.4445616088   -1.4288693270
 14         -5.3973198783   -1.3702360102    4.4445610034   -1.4288693814
 15         -5.3973192535   -1.3702362780    4.4445606917   -1.4288694190
 16         -5.3973188684   -1.3702364155    4.4445605313   -1.4288694437
 17         -5.3973186349   -1.3702364860    4.4445604489   -1.4288694595
 18         -5.3973184951   -1.3702365221    4.4445604065   -1.4288694693
 19         -5.3973184122   -1.3702365405    4.4445603848   -1.4288694753
Atom SCF converged after  19 iterations to a total energy of     -5.39731841

Atom SCF Calculation for S  : Z (AE atom) =  16 : Z (PS atom) =   6
Config String:
Orbitals (num,occ):  3     2.00 4.00 0.00
Orbitals   (num,l):  3        0    1    2
Real-space Grid (nr,dr,rmax): 1203    0.0066555740    8.0000000000
Spherical Bessel Basis (nsws,lmax,cutoff):   47    2  176.3951722778
Confining potential (l,width,scale):  0    3.0000000000  100.0000000000
Confining potential (l,width,scale):  1    3.0000000000  100.0000000000
Confining potential (l,width,scale):  2    3.0000000000  100.0000000000
  1        -12.4735062396   -1.0328741412   10.1554312477   -2.4512393157
  2         -9.9458301913   -2.4607392455    8.3041325857   -2.0306994528
  3        -10.1450417646   -2.2931184565    8.4831893826   -2.0812538287
  4        -10.1528335592   -2.2733105793    8.5050388867   -2.0896035179
  5        -10.1571940363   -2.2633716629    8.5160794258   -2.0939370707
  6        -10.1594380571   -2.2584938667    8.5215163935   -2.0961289008
  7        -10.1605856507   -2.2561081821    8.5241804044   -2.0972291378
  8        -10.1611799191   -2.2549395235    8.5254868240   -2.0977806248
  9        -10.1614918752   -2.2543658586    8.5261285885   -2.0980571586
 10        -10.1616572884   -2.2540839121    8.5264441898   -2.0981959233
 11        -10.1617455602   -2.2539453058    8.5265994231   -2.0982656006
 12        -10.1617928447   -2.2538772062    8.5266757320   -2.0983006047
 13        -10.1618182292   -2.2538437891    8.5267131983   -2.0983181961
 14        -10.1618318741   -2.2538274201    8.5267315620   -2.0983270391
 15        -10.1618392144   -2.2538194197    8.5267405433   -2.0983314852
 16        -10.1618431651   -2.2538155200    8.5267449245   -2.0983337210
 17        -10.1618452923   -2.2538136252    8.5267470551   -2.0983348455
 18        -10.1618464380   -2.2538127080    8.5267480875   -2.0983354110
 19        -10.1618470552   -2.2538122659    8.5267485856   -2.0983356955
 20        -10.1618473878   -2.2538120540    8.5267488248   -2.0983358386
 21        -10.1618475670   -2.2538119530    8.5267489389   -2.0983359106
 22        -10.1618476637   -2.2538119053    8.5267489929   -2.0983359468
Atom SCF converged after  22 iterations to a total energy of    -10.16184766

Atom SCF Calculation for O  : Z (AE atom) =   8 : Z (PS atom) =   6
Config String:
Orbitals (num,occ):  2     2.00 4.00
Orbitals   (num,l):  2        0    1
Real-space Grid (nr,dr,rmax): 1203    0.0066555740    8.0000000000
Spherical Bessel Basis (nsws,lmax,cutoff):   47    1  176.3951722778
Confining potential (l,width,scale):  0    3.0000000000  100.0000000000
Confining potential (l,width,scale):  1    3.0000000000  100.0000000000
  1         -1.8735052164   -7.5539365035   10.1554312477   -2.4512393157
  2        -16.0318313751   -3.1285771268   13.6395848164   -3.2358799643
  3        -15.9524020423   -3.0762819706   13.6967272503   -3.2536856837
  4        -15.8521515939   -3.0781493909   13.6951909330   -3.2561700440
  5        -15.8357139793   -3.0748501933   13.6988803334   -3.2580493133
  6        -15.8246052853   -3.0740779781   13.6997881576   -3.2588327446
  7        -15.8189019501   -3.0737449687   13.7001869911   -3.2592378801
  8        -15.8159785510   -3.0736026016   13.7003615168   -3.2594475790
  9        -15.8144776168   -3.0735437994   13.7004360379   -3.2595560735
 10        -15.8137058024   -3.0735207882   13.7004667348   -3.2596122456
 11        -15.8133083127   -3.0735125946   13.7004786868   -3.2596413656
 12        -15.8131032938   -3.0735102195   13.7004828997   -3.2596564858
 13        -15.8129973902   -3.0735099286   13.7004840891   -3.2596643505
 14        -15.8129426040   -3.0735102506   13.7004842061   -3.2596684489
 15        -15.8129142203   -3.0735106556   13.7004840157   -3.2596705887
 16        -15.8128994940   -3.0735109855   13.7004837906   -3.2596717080
 17        -15.8128918425   -3.0735112169   13.7004836103   -3.2596722946
 18        -15.8128878614   -3.0735113674   13.7004834848   -3.2596726026
 19        -15.8128857871   -3.0735114608   13.7004834035   -3.2596727646
 20        -15.8128847048   -3.0735115170   13.7004833533   -3.2596728500
 21        -15.8128841394   -3.0735115501   13.7004833231   -3.2596728951
 22        -15.8128838436   -3.0735115693   13.7004833054   -3.2596729190
 23        -15.8128836887   -3.0735115802   13.7004832951   -3.2596729316
 24        -15.8128836074   -3.0735115864   13.7004832893   -3.2596729383
Atom SCF converged after  24 iterations to a total energy of    -15.81288361

========================== Calculation in vacuum ==============================
= Adjusting the following parameters: 
= is_implicit_solvent: F
= is_include_apolar: F
= write_denskern: T
= write_tightbox_ngwfs: T
= restart read filename prefix: ""
= restart write filename prefix: "vacuum_"
===============================================================================

Determining parallel strategy ...
... using space-filling curve
... NGWF load balancing: max    109;  min    108;  average    108
... Projector load balancing: max     25;  min     21;  average     22
... done
Calculating direct Ion-Ion energy ...
Ion-Ion Energy        :    825562.11413445882499
======================= Empirical dispersion information =======================
Model : Elstner
Dispersion Correction Energy: -0.32248944E+01 Hartree
================================================================================
Basis initialisation ...... NGWF spheres initialised
... Projector spheres initialised
... NGWF tight boxes initialised
... Tight-boxes gathered
... NGWF basis size (local,global):    1031276  61995419
... Nonlocal pseudopotential projector initialisation
... done

========================== Sparse matrix information ===========================
                        Overlap matrix filling:   6.67%
                        Density kernel filling: 100.00%
              NGWF-Proj overlap matrix filling:   1.77%
                    Hamiltonian matrix filling:   7.53%
                  NGWF diagonal matrix filling:   0.05%
                             KS matrix filling: 100.00% 
                           KSKS matrix filling: 100.00% 
================================================================================

Sparse matrix initialisation ... done

Generating smeared ion density ... done
Smeared ion self correction:     -14457.169564
Smeared ion non-self correction: -825514.050618
NGWF initialisation ...... done
============ Calculation of NGWF S^-1 using Hotelling algorithm ================ 
         Iteration  |  Frobenius norm and Maximum abs value    (of I-S*S_n^-1)   
               1       0.78589271E+02     0.98335487E+00
               2       0.76816889E+02     0.96714139E+00
               3       0.73920243E+02     0.93592283E+00
               4       0.69755369E+02     0.87825926E+00
               5       0.64517012E+02     0.77885184E+00
               6       0.58583069E+02     0.70813664E+00
               7       0.52556312E+02     0.67371500E+00
               8       0.46985837E+02     0.64839434E+00
               9       0.41035479E+02     0.61069140E+00
              10       0.32984285E+02     0.54739092E+00
              11       0.22543845E+02     0.44452205E+00
              12       0.11815541E+02     0.29873597E+00
              13       0.40521452E+01     0.14430738E+00
              14       0.68499052E+00     0.38453712E-01
              15       0.38488613E-01     0.40649722E-02
              16       0.38350786E-03     0.64696673E-04
              17       0.89246867E-07     0.18420312E-07
              18       0.10229929E-12     0.51070259E-14
================================================================================
Calculating local pseudopotential in open BC on the fine real space grid ...
... done

MG BCs: +ve charge blocks (gridpoints):     20539 (   16132004).
MG BCs: -ve charge blocks (gridpoints):      8092 (    1073107).
MG BCs:     Elided blocks (gridpoints):    183749 (  181972770).
MG BCs: Computational effort saved:  99.9856%.
MG BCs: Charge after coarse-graining:           -9.0002284.
MG DL_MG: Calling solver with defect correction order = 8
MG DL_MG: Solver finished
MG Hartree energy from (\int phi*rho dr):              1462.166450
MG Hartree energy from (\int eps (grad phi)^2 dr):     1461.553587
MG Discrepancy due to finite box and discretization:     -0.612863 (  -0.04191%)
MG Correction to account for finite box:                  0.458901
MG Remaining discrepancy, due to discretization:         -0.153962 (  -0.01053%)
Up spin density kernel initialisation ... 
======= Optimisation of K by Palser-Manolopoulos canonical purification ======== 
         Iteration  |  Band structure energy |    c_n   
               1       -2580.31923047041528    0.5268506
               2       -2756.11540531083801    0.5170025
               3       -2936.29876531323225    0.5153523
               4       -3086.73943491614682    0.5288938
               5       -3179.18026929630923    0.5648187
               6       -3217.76792905858792    0.6097658
               7       -3230.85142214823782    0.6212869
               8       -3236.53196552904456    0.6189180
               9       -3239.29702593996899    0.6314199
              10       -3240.44767103443519    0.6546974
              11       -3240.89378941944460    0.6736120
              12       -3241.08281587987858    0.6790778
              13       -3241.17331037051554    0.6392662
              14       -3241.22872411114440    0.5516406
              15       -3241.26463845592752    0.4187552
              16       -3241.27447033880753    0.3152016
              17       -3241.27519596468937    0.3085631
              18       -3241.27552979206666    0.3374349
              19       -3241.27586764540183    0.3751175
              20       -3241.27622339699064    0.4179534
              21       -3241.27655493138673    0.4599435
              22       -3241.27678212442424    0.4892424
              23       -3241.27686114500921    0.4991579
              24       -3241.27686842441426    0.4999948
              25       -3241.27686848004396    0.4999948
Termination criterion satisfied: band energy change below threshold.
Final occupancy bounds: [    0.00000000000143:    0.99999999999992]
Closest occupancy to 0.5:     0.99999999999964
================================================================================
... done

Writing density kernel to file "host_11501.vacuum_dkn" ... done

>>> Optimising kernel for current NGWFs:
   Initial electron number for spin 1:    7192.00000000
     Final electron number for spin 1:    7192.00000000

=================== Penalty functional idempotency correction ==================
 RMS occupancy error at iteration   1:  0.000000 (step -0.5000 Ne1=   7192.0000)
            Final RMS occupancy error   :  0.000000 (Ne1=   7192.0000)
               Final occupancy bounds   : [  0.0000,  1.0000]
================================================================================

................................................................................
<<<<<<<<<<<<<< LNV (Original version) density kernel optimisation >>>>>>>>>>>>>>
~~~~~~~~~~~~~~~~~~~~~~~~~~~~~~~~~~~~~~~~~~~~~~~~~~~~~~~~~~~~~~~~~~~~~~~~~~~~~~~~
   iter  |      energy (Eh)       | rms gradient |  commutator  |   dE (Eh)
MG BCs: +ve charge blocks (gridpoints):     30546 (   17275684).
MG BCs: -ve charge blocks (gridpoints):      8361 (    1106009).
MG BCs:     Elided blocks (gridpoints):    173737 (  180796188).
MG BCs: Computational effort saved:  99.9805%.
MG BCs: Charge after coarse-graining:           -9.0009482.
MG DL_MG: Calling solver with defect correction order = 8
MG DL_MG: Solver finished
MG Hartree energy from (\int phi*rho dr):              1417.288824
MG Hartree energy from (\int eps (grad phi)^2 dr):     1416.620414
MG Discrepancy due to finite box and discretization:     -0.668410 (  -0.04716%)
MG Correction to account for finite box:                  0.470978
MG Remaining discrepancy, due to discretization:         -0.197432 (  -0.01393%)
      ideal mu1:      -0.699618051299
             Q0:  -11505.983847433585
             G0:    -144.413984225429
   RMS gradient:       0.001847384622
MG BCs: +ve charge blocks (gridpoints):     30558 (   17362478).
MG BCs: -ve charge blocks (gridpoints):      8286 (    1085729).
MG BCs:     Elided blocks (gridpoints):    173722 (  180729674).
MG BCs: Computational effort saved:  99.9805%.
MG BCs: Charge after coarse-graining:           -9.0009660.
MG DL_MG: Calling solver with defect correction order = 8
MG DL_MG: Solver finished
MG Hartree energy from (\int phi*rho dr):              1442.651211
MG Hartree energy from (\int eps (grad phi)^2 dr):     1441.999244
MG Discrepancy due to finite box and discretization:     -0.651968 (  -0.04519%)
MG Correction to account for finite box:                  0.470602
MG Remaining discrepancy, due to discretization:         -0.181365 (  -0.01257%)
     Trial step:       0.500000000000
             Q1:  -11517.553152912413
 Quadratic coef:      60.637686633887
 Linear coef   :     -72.206992112715
           Qmin:  -11527.479760286615
Quadratic minimum step length (  0.297698494621) accepted
    Initial Ne1:    7192.00000000
      Final Ne1:    7192.00000000

=================== Penalty functional idempotency correction ==================
 RMS occupancy error at iteration   1:  0.003401 (step -0.4885 Ne1=   7192.0000)
 RMS occupancy error at iteration   2:  0.000027 (step -0.5001 Ne1=   7192.0000)
            Final RMS occupancy error   :  0.000000 (Ne1=   7192.0000)
               Final occupancy bounds   : [  0.0000,  1.0000]
================================================================================

    1        -1.150598384743E+04     1.8474E-03     1.6709E-03
MG BCs: +ve charge blocks (gridpoints):     30560 (   17329596).
MG BCs: -ve charge blocks (gridpoints):      8327 (    1093851).
MG BCs:     Elided blocks (gridpoints):    173720 (  180754434).
MG BCs: Computational effort saved:  99.9805%.
MG BCs: Charge after coarse-graining:           -9.0009586.
MG DL_MG: Calling solver with defect correction order = 8
MG DL_MG: Solver finished
MG Hartree energy from (\int phi*rho dr):              1424.502090
MG Hartree energy from (\int eps (grad phi)^2 dr):     1423.844430
MG Discrepancy due to finite box and discretization:     -0.657660 (  -0.04617%)
MG Correction to account for finite box:                  0.470635
MG Remaining discrepancy, due to discretization:         -0.187026 (  -0.01313%)
      ideal mu1:      -0.742554395241
             Q0:  -11527.876780691789
             G0:     -12.163503024521
   RMS gradient:       0.000532570979
MG BCs: +ve charge blocks (gridpoints):     30561 (   17346117).
MG BCs: -ve charge blocks (gridpoints):      8295 (    1089016).
MG BCs:     Elided blocks (gridpoints):    173719 (  180742748).
MG BCs: Computational effort saved:  99.9805%.
MG BCs: Charge after coarse-graining:           -9.0009623.
MG DL_MG: Calling solver with defect correction order = 8
MG DL_MG: Solver finished
MG Hartree energy from (\int phi*rho dr):              1429.606135
MG Hartree energy from (\int eps (grad phi)^2 dr):     1428.952332
MG Discrepancy due to finite box and discretization:     -0.653803 (  -0.04573%)
MG Correction to account for finite box:                  0.469995
MG Remaining discrepancy, due to discretization:         -0.183808 (  -0.01286%)
     Trial step:       0.385809859011
             Q1:  -11530.726774573210
 Quadratic coef:       1.842805505554
 Linear coef   :      -4.692799386973
           Qmin:  -11530.864394688493
Quadratic minimum step length (  0.491242365079) accepted
    Initial Ne1:    7191.99989685
      Final Ne1:    7192.00000000

=================== Penalty functional idempotency correction ==================
 RMS occupancy error at iteration   1:  0.001807 (step -0.4931 Ne1=   7192.0000)
 RMS occupancy error at iteration   2:  0.000011 (step -0.5001 Ne1=   7192.0000)
            Final RMS occupancy error   :  0.000000 (Ne1=   7192.0000)
               Final occupancy bounds   : [  0.0000,  1.0000]
================================================================================

    2        -1.152787678069E+04     5.3257E-04     4.8170E-04    -2.1893E+01
MG BCs: +ve charge blocks (gridpoints):     30556 (   17350593).
MG BCs: -ve charge blocks (gridpoints):      8286 (    1087685).
MG BCs:     Elided blocks (gridpoints):    173724 (  180739603).
MG BCs: Computational effort saved:  99.9805%.
MG BCs: Charge after coarse-graining:           -9.0009634.
MG DL_MG: Calling solver with defect correction order = 8
MG DL_MG: Solver finished
MG Hartree energy from (\int phi*rho dr):              1431.050737
MG Hartree energy from (\int eps (grad phi)^2 dr):     1430.397913
MG Discrepancy due to finite box and discretization:     -0.652824 (  -0.04562%)
MG Correction to account for finite box:                  0.469833
MG Remaining discrepancy, due to discretization:         -0.182991 (  -0.01279%)
      ideal mu1:      -0.766514988620
             Q0:  -11530.901322761783
             G0:      -1.944203916892
   RMS gradient:       0.000212993550
MG BCs: +ve charge blocks (gridpoints):     30559 (   17349857).
MG BCs: -ve charge blocks (gridpoints):      8291 (    1088645).
MG BCs:     Elided blocks (gridpoints):    173721 (  180739379).
MG BCs: Computational effort saved:  99.9805%.
MG BCs: Charge after coarse-graining:           -9.0009632.
MG DL_MG: Calling solver with defect correction order = 8
MG DL_MG: Solver finished
MG Hartree energy from (\int phi*rho dr):              1428.790800
MG Hartree energy from (\int eps (grad phi)^2 dr):     1428.138513
MG Discrepancy due to finite box and discretization:     -0.652287 (  -0.04565%)
MG Correction to account for finite box:                  0.469501
MG Remaining discrepancy, due to discretization:         -0.182786 (  -0.01279%)
     Trial step:       0.435346009068
             Q1:  -11531.398070824100
 Quadratic coef:       0.349653353716
 Linear coef   :      -0.846401416033
           Qmin:  -11531.413541041295
Quadratic minimum step length (  0.526918267225) accepted
    Initial Ne1:    7191.99994076
      Final Ne1:    7192.00000000

=================== Penalty functional idempotency correction ==================
 RMS occupancy error at iteration   1:  0.000638 (step -0.4972 Ne1=   7192.0000)
 RMS occupancy error at iteration   2:  0.000002 (step -0.5000 Ne1=   7192.0000)
            Final RMS occupancy error   :  0.000000 (Ne1=   7192.0000)
               Final occupancy bounds   : [  0.0000,  1.0000]
================================================================================

    3        -1.153090132276E+04     2.1299E-04     1.9265E-04    -3.0245E+00
MG BCs: +ve charge blocks (gridpoints):     30558 (   17349755).
MG BCs: -ve charge blocks (gridpoints):      8292 (    1088849).
MG BCs:     Elided blocks (gridpoints):    173722 (  180739277).
MG BCs: Computational effort saved:  99.9805%.
MG BCs: Charge after coarse-graining:           -9.0009631.
MG DL_MG: Calling solver with defect correction order = 8
MG DL_MG: Solver finished
MG Hartree energy from (\int phi*rho dr):              1428.325130
MG Hartree energy from (\int eps (grad phi)^2 dr):     1427.672945
MG Discrepancy due to finite box and discretization:     -0.652185 (  -0.04566%)
MG Correction to account for finite box:                  0.469433
MG Remaining discrepancy, due to discretization:         -0.182753 (  -0.01279%)
      ideal mu1:      -0.767139281349
             Q0:  -11531.418347520288
             G0:      -0.514611944614
   RMS gradient:       0.000109712316
MG BCs: +ve charge blocks (gridpoints):     30562 (   17351082).
MG BCs: -ve charge blocks (gridpoints):      8295 (    1088512).
MG BCs:     Elided blocks (gridpoints):    173718 (  180738287).
MG BCs: Computational effort saved:  99.9805%.
MG BCs: Charge after coarse-graining:           -9.0009633.
MG DL_MG: Calling solver with defect correction order = 8
MG DL_MG: Solver finished
MG Hartree energy from (\int phi*rho dr):              1429.608379
MG Hartree energy from (\int eps (grad phi)^2 dr):     1428.956259
MG Discrepancy due to finite box and discretization:     -0.652121 (  -0.04562%)
MG Correction to account for finite box:                  0.469256
MG Remaining discrepancy, due to discretization:         -0.182865 (  -0.01279%)
     Trial step:       0.478948603444
             Q1:  -11531.547535013873
 Quadratic coef:       0.117285178603
 Linear coef   :      -0.246472672189
           Qmin:  -11531.547836981061
Quadratic minimum step length (  0.503250894691) accepted
    Initial Ne1:    7191.99998491
      Final Ne1:    7192.00000000

=================== Penalty functional idempotency correction ==================
 RMS occupancy error at iteration   1:  0.000282 (step -0.4970 Ne1=   7192.0000)
 RMS occupancy error at iteration   2:  0.000002 (step -0.5000 Ne1=   7192.0000)
            Final RMS occupancy error   :  0.000000 (Ne1=   7192.0000)
               Final occupancy bounds   : [  0.0000,  1.0000]
================================================================================

    4        -1.153141834752E+04     1.0971E-04     9.9232E-05    -5.1702E-01
MG BCs: +ve charge blocks (gridpoints):     30561 (   17351135).
MG BCs: -ve charge blocks (gridpoints):      8295 (    1088497).
MG BCs:     Elided blocks (gridpoints):    173719 (  180738249).
MG BCs: Computational effort saved:  99.9805%.
MG BCs: Charge after coarse-graining:           -9.0009633.
MG DL_MG: Calling solver with defect correction order = 8
MG DL_MG: Solver finished
MG Hartree energy from (\int phi*rho dr):              1429.674061
MG Hartree energy from (\int eps (grad phi)^2 dr):     1429.021943
MG Discrepancy due to finite box and discretization:     -0.652118 (  -0.04561%)
MG Correction to account for finite box:                  0.469247
MG Remaining discrepancy, due to discretization:         -0.182871 (  -0.01279%)
      ideal mu1:      -0.767973842030
             Q0:  -11531.548478288460
             G0:      -0.201753301919
   RMS gradient:       0.000068891750
MG BCs: +ve charge blocks (gridpoints):     30559 (   17351422).
MG BCs: -ve charge blocks (gridpoints):      8293 (    1088319).
MG BCs:     Elided blocks (gridpoints):    173721 (  180738140).
MG BCs: Computational effort saved:  99.9805%.
MG BCs: Charge after coarse-graining:           -9.0009632.
MG DL_MG: Calling solver with defect correction order = 8
MG DL_MG: Solver finished
MG Hartree energy from (\int phi*rho dr):              1430.116554
MG Hartree energy from (\int eps (grad phi)^2 dr):     1429.464266
MG Discrepancy due to finite box and discretization:     -0.652288 (  -0.04561%)
MG Correction to account for finite box:                  0.469258
MG Remaining discrepancy, due to discretization:         -0.183030 (  -0.01280%)
     Trial step:       0.490949399831
             Q1:  -11531.617687729653
 Quadratic coef:       0.029841221298
 Linear coef   :      -0.099050662491
           Qmin:  -11531.630671922912
Quadratic minimum step length (  0.814793449933) accepted
    Initial Ne1:    7191.99999030
      Final Ne1:    7192.00000000

=================== Penalty functional idempotency correction ==================
 RMS occupancy error at iteration   1:  0.000610 (step -0.4697 Ne1=   7192.0000)
 RMS occupancy error at iteration   2:  0.000016 (step -0.5001 Ne1=   7192.0000)
            Final RMS occupancy error   :  0.000000 (Ne1=   7192.0000)
               Final occupancy bounds   : [  0.0000,  1.0000]
================================================================================

    5        -1.153154847829E+04     6.8892E-05     6.2311E-05    -1.3013E-01
MG BCs: +ve charge blocks (gridpoints):     30558 (   17351557).
MG BCs: -ve charge blocks (gridpoints):      8292 (    1088270).
MG BCs:     Elided blocks (gridpoints):    173722 (  180738054).
MG BCs: Computational effort saved:  99.9805%.
MG BCs: Charge after coarse-graining:           -9.0009632.
MG DL_MG: Calling solver with defect correction order = 8
MG DL_MG: Solver finished
MG Hartree energy from (\int phi*rho dr):              1430.402293
MG Hartree energy from (\int eps (grad phi)^2 dr):     1429.749889
MG Discrepancy due to finite box and discretization:     -0.652404 (  -0.04561%)
MG Correction to account for finite box:                  0.469270
MG Remaining discrepancy, due to discretization:         -0.183134 (  -0.01280%)
      ideal mu1:      -0.767927008997
             Q0:  -11531.628545013489
             G0:      -0.283858643864
   RMS gradient:       0.000083403535
MG BCs: +ve charge blocks (gridpoints):     30559 (   17350831).
MG BCs: -ve charge blocks (gridpoints):      8292 (    1088726).
MG BCs:     Elided blocks (gridpoints):    173721 (  180738324).
MG BCs: Computational effort saved:  99.9805%.
MG BCs: Charge after coarse-graining:           -9.0009629.
MG DL_MG: Calling solver with defect correction order = 8
MG DL_MG: Solver finished
MG Hartree energy from (\int phi*rho dr):              1428.867129
MG Hartree energy from (\int eps (grad phi)^2 dr):     1428.214534
MG Discrepancy due to finite box and discretization:     -0.652595 (  -0.04567%)
MG Correction to account for finite box:                  0.469446
MG Remaining discrepancy, due to discretization:         -0.183149 (  -0.01282%)
     Trial step:       0.632473205148
             Q1:  -11531.766362774884
 Quadratic coef:       0.041715224899
 Linear coef   :      -0.179532986294
           Qmin:  -11531.821712455625
Quadratic minimum step length (  1.361011519720) accepted
    Initial Ne1:    7191.99978072
      Final Ne1:    7192.00000000

=================== Penalty functional idempotency correction ==================
 RMS occupancy error at iteration   1:  0.009719 (step -0.2296 Ne1=   7192.0000)
 RMS occupancy error at iteration   2:  0.001060 (step -0.4674 Ne1=   7192.0000)
 RMS occupancy error at iteration   3:  0.000084 (step -0.5044 Ne1=   7192.0000)
            Final RMS occupancy error   :  0.000000 (Ne1=   7192.0000)
               Final occupancy bounds   : [  0.0000,  1.0000]
================================================================================

    6        -1.153162854501E+04     8.3404E-05     7.5437E-05    -8.0067E-02
MG BCs: +ve charge blocks (gridpoints):     30559 (   17350187).
MG BCs: -ve charge blocks (gridpoints):      8296 (    1089230).
MG BCs:     Elided blocks (gridpoints):    173721 (  180738464).
MG BCs: Computational effort saved:  99.9805%.
MG BCs: Charge after coarse-graining:           -9.0009626.
MG DL_MG: Calling solver with defect correction order = 8
MG DL_MG: Solver finished
MG Hartree energy from (\int phi*rho dr):              1427.192923
MG Hartree energy from (\int eps (grad phi)^2 dr):     1426.540133
MG Discrepancy due to finite box and discretization:     -0.652790 (  -0.04574%)
MG Correction to account for finite box:                  0.469612
MG Remaining discrepancy, due to discretization:         -0.183178 (  -0.01283%)
      ideal mu1:      -0.767172505305
             Q0:  -11531.701955754543
             G0:      -0.822601725360
   RMS gradient:       0.000139427200
MG BCs: +ve charge blocks (gridpoints):     30565 (   17353334).
MG BCs: -ve charge blocks (gridpoints):      8290 (    1087615).
MG BCs:     Elided blocks (gridpoints):    173715 (  180736932).
MG BCs: Computational effort saved:  99.9805%.
MG BCs: Charge after coarse-graining:           -9.0009638.
MG DL_MG: Calling solver with defect correction order = 8
MG DL_MG: Solver finished
MG Hartree energy from (\int phi*rho dr):              1431.119762
MG Hartree energy from (\int eps (grad phi)^2 dr):     1430.467338
MG Discrepancy due to finite box and discretization:     -0.652424 (  -0.04559%)
MG Correction to account for finite box:                  0.469736
MG Remaining discrepancy, due to discretization:         -0.182688 (  -0.01277%)
     Trial step:       0.927794868557
             Q1:  -11531.886605123640
 Quadratic coef:       0.578556290558
 Linear coef   :      -0.763205659656
           Qmin:  -11531.953652472925
Quadratic minimum step length (  0.611952809293) accepted
    Initial Ne1:    7191.99498579
      Final Ne1:    7192.00000000

=================== Penalty functional idempotency correction ==================
 RMS occupancy error at iteration   1:  0.000310 (step -0.4799 Ne1=   7192.0000)
 RMS occupancy error at iteration   2:  0.000004 (step -0.5000 Ne1=   7192.0000)
            Final RMS occupancy error   :  0.000000 (Ne1=   7192.0000)
               Final occupancy bounds   : [  0.0000,  1.0000]
================================================================================

    7        -1.153170195575E+04     1.3943E-04     1.2611E-04    -7.3411E-02
MG BCs: +ve charge blocks (gridpoints):     30560 (   17352255).
MG BCs: -ve charge blocks (gridpoints):      8296 (    1088046).
MG BCs:     Elided blocks (gridpoints):    173720 (  180737580).
MG BCs: Computational effort saved:  99.9805%.
MG BCs: Charge after coarse-graining:           -9.0009635.
MG DL_MG: Calling solver with defect correction order = 8
MG DL_MG: Solver finished
MG Hartree energy from (\int phi*rho dr):              1429.775089
MG Hartree energy from (\int eps (grad phi)^2 dr):     1429.122549
MG Discrepancy due to finite box and discretization:     -0.652540 (  -0.04564%)
MG Correction to account for finite box:                  0.469690
MG Remaining discrepancy, due to discretization:         -0.182850 (  -0.01279%)
      ideal mu1:      -0.768976390641
             Q0:  -11531.954804585665
             G0:      -0.425480281646
   RMS gradient:       0.000100055690
MG BCs: +ve charge blocks (gridpoints):     30559 (   17352022).
MG BCs: -ve charge blocks (gridpoints):      8293 (    1088051).
MG BCs:     Elided blocks (gridpoints):    173721 (  180737808).
MG BCs: Computational effort saved:  99.9805%.
MG BCs: Charge after coarse-graining:           -9.0009635.
MG DL_MG: Calling solver with defect correction order = 8
MG DL_MG: Solver finished
MG Hartree energy from (\int phi*rho dr):              1429.628892
MG Hartree energy from (\int eps (grad phi)^2 dr):     1428.976104
MG Discrepancy due to finite box and discretization:     -0.652788 (  -0.04566%)
MG Correction to account for finite box:                  0.470153
MG Remaining discrepancy, due to discretization:         -0.182635 (  -0.01278%)
     Trial step:       0.753502937128
             Q1:  -11532.076038234634
 Quadratic coef:       0.199366992940
 Linear coef   :      -0.320600641910
           Qmin:  -11532.083693488083
Quadratic minimum step length (  0.605851354235) accepted
    Initial Ne1:    7191.99744119
      Final Ne1:    7192.00000000

=================== Penalty functional idempotency correction ==================
 RMS occupancy error at iteration   1:  0.000871 (step -0.4462 Ne1=   7192.0000)
 RMS occupancy error at iteration   2:  0.000026 (step -0.4993 Ne1=   7192.0000)
            Final RMS occupancy error   :  0.000000 (Ne1=   7192.0000)
               Final occupancy bounds   : [ -0.0000,  1.0000]
================================================================================

    8        -1.153195480459E+04     1.0006E-04     9.0498E-05    -2.5285E-01
MG BCs: +ve charge blocks (gridpoints):     30558 (   17352057).
MG BCs: -ve charge blocks (gridpoints):      8294 (    1088038).
MG BCs:     Elided blocks (gridpoints):    173722 (  180737786).
MG BCs: Computational effort saved:  99.9805%.
MG BCs: Charge after coarse-graining:           -9.0009635.
MG DL_MG: Calling solver with defect correction order = 8
MG DL_MG: Solver finished
MG Hartree energy from (\int phi*rho dr):              1429.652820
MG Hartree energy from (\int eps (grad phi)^2 dr):     1429.000081
MG Discrepancy due to finite box and discretization:     -0.652739 (  -0.04566%)
MG Correction to account for finite box:                  0.470063
MG Remaining discrepancy, due to discretization:         -0.182676 (  -0.01278%)
      ideal mu1:      -0.767943679093
             Q0:  -11532.085319658159
             G0:      -0.189165807757
   RMS gradient:       0.000066193297
MG BCs: +ve charge blocks (gridpoints):     30558 (   17351463).
MG BCs: -ve charge blocks (gridpoints):      8295 (    1088433).
MG BCs:     Elided blocks (gridpoints):    173722 (  180737985).
MG BCs: Computational effort saved:  99.9805%.
MG BCs: Charge after coarse-graining:           -9.0009632.
MG DL_MG: Calling solver with defect correction order = 8
MG DL_MG: Solver finished
MG Hartree energy from (\int phi*rho dr):              1428.863125
MG Hartree energy from (\int eps (grad phi)^2 dr):     1428.210119
MG Discrepancy due to finite box and discretization:     -0.653005 (  -0.04570%)
MG Correction to account for finite box:                  0.470359
MG Remaining discrepancy, due to discretization:         -0.182646 (  -0.01278%)
     Trial step:       0.675655810956
             Q1:  -11532.145286670770
 Quadratic coef:       0.067843964634
 Linear coef   :      -0.127810977245
           Qmin:  -11532.145515307073
Quadratic minimum step length (  0.636432657975) accepted
    Initial Ne1:    7191.99916789
      Final Ne1:    7192.00000000

=================== Penalty functional idempotency correction ==================
 RMS occupancy error at iteration   1:  0.000966 (step -0.4452 Ne1=   7192.0000)
 RMS occupancy error at iteration   2:  0.000027 (step -0.4994 Ne1=   7192.0000)
            Final RMS occupancy error   :  0.000000 (Ne1=   7192.0000)
               Final occupancy bounds   : [ -0.0000,  1.0000]
================================================================================

    9        -1.153208531966E+04     6.6193E-05     5.9870E-05    -1.3052E-01
MG BCs: +ve charge blocks (gridpoints):     30558 (   17351480).
MG BCs: -ve charge blocks (gridpoints):      8295 (    1088431).
MG BCs:     Elided blocks (gridpoints):    173722 (  180737970).
MG BCs: Computational effort saved:  99.9805%.
MG BCs: Charge after coarse-graining:           -9.0009633.
MG DL_MG: Calling solver with defect correction order = 8
MG DL_MG: Solver finished
MG Hartree energy from (\int phi*rho dr):              1428.909184
MG Hartree energy from (\int eps (grad phi)^2 dr):     1428.256190
MG Discrepancy due to finite box and discretization:     -0.652994 (  -0.04570%)
MG Correction to account for finite box:                  0.470347
MG Remaining discrepancy, due to discretization:         -0.182647 (  -0.01278%)
      ideal mu1:      -0.767314901320
   10        -1.153214683337E+04     4.5252E-05     4.0929E-05    -6.1514E-02
Finished density kernel iterations (  10)

Writing density kernel to file "host_11501.vacuum_dkn" ... done


>>> Density kernel optimised for the current NGWF basis:
     ~~~~~~~~~~~~~~~~~~~~~~~~~~~~~~~~~~~~~~~~~~~~~~~~~~~~~~~~~~~
     Total energy                =  -1.15321468333671E+04  Eh
     Estimated bandgap           =  -3.1942E-01  Eh
     RMS occupancy error         =   5.4118E-08
     [H,K] commutator            =   4.0929E-05
     Occupancy bounds            = [ -0.000:  1.000]
     ~~~~~~~~~~~~~~~~~~~~~~~~~~~~~~~~~~~~~~~~~~~~~~~~~~~~~~~~~~~




################################################################################
########################### NGWF CG iteration  001 #############################
################################################################################
****** Reciprocal space K.E. preconditioning with k_zero =  3.5000 a0^-1 *******

>>> Checking for convergence of NGWFs:   NOT CONVERGED
  ========================================================================
         NGWF RMS gradient =  1.6018E-03 >  2.0000E-06  | above tolerance
  ========================================================================

>>> Improving NGWFs using line search:
============ Calculation of NGWF S^-1 using Hotelling algorithm ================ 
         Iteration  |  Frobenius norm and Maximum abs value    (of I-S*S_n^-1)   
               1       0.19879059E+00     0.55988331E-02
               2       0.92839145E-03     0.46008268E-04
               3       0.35687088E-07     0.31623983E-08
               4       0.12569580E-12     0.68833828E-14
================================================================================
MG BCs: +ve charge blocks (gridpoints):     30120 (   17297068).
MG BCs: -ve charge blocks (gridpoints):      8310 (    1088366).
MG BCs:     Elided blocks (gridpoints):    174161 (  180792447).
MG BCs: Computational effort saved:  99.9807%.
MG BCs: Charge after coarse-graining:           -9.0009694.
MG DL_MG: Calling solver with defect correction order = 8
MG DL_MG: Solver finished
MG Hartree energy from (\int phi*rho dr):              1397.078598
MG Hartree energy from (\int eps (grad phi)^2 dr):     1396.426468
MG Discrepancy due to finite box and discretization:     -0.652131 (  -0.04668%)
MG Correction to account for finite box:                  0.470259
MG Remaining discrepancy, due to discretization:         -0.181872 (  -0.01302%)
============ Calculation of NGWF S^-1 using Hotelling algorithm ================ 
         Iteration  |  Frobenius norm and Maximum abs value    (of I-S*S_n^-1)   
               1       0.18419619E+01     0.44547704E-01
               2       0.70864093E-01     0.27293255E-02
               3       0.14635687E-03     0.11598336E-04
               4       0.12719285E-08     0.21465951E-09
               5       0.10965284E-12     0.59952043E-14
================================================================================
------------------------------- NGWF line search -------------------------------
RMS gradient                =       0.00160177554430
Trial step length           =               0.122474
Gradient along search dir.  =       -277.52289978616
Functional at step 0        =  -11532.14683336706366
Functional at step 1        =  -11563.52147174545098
Functional predicted        =  -11642.60158111908277
Selected quadratic step     =               0.796005
--------------------------- NGWF line search finished --------------------------
                                               
Writing NGWFs to file "host_11501.vacuum_tightbox_ngwfs"....  done

>>> Optimising kernel for current NGWFs:
   Initial electron number for spin 1:    7226.47366348
     Final electron number for spin 1:    7192.00000000

=================== Penalty functional idempotency correction ==================
 RMS occupancy error at iteration   1:  0.004298 (step -0.4858 Ne1=   7192.0000)
 RMS occupancy error at iteration   2:  0.000071 (step -0.5003 Ne1=   7192.0000)
            Final RMS occupancy error   :  0.000000 (Ne1=   7192.0000)
               Final occupancy bounds   : [  0.0000,  1.0000]
================================================================================

................................................................................
<<<<<<<<<<<<<< LNV (Original version) density kernel optimisation >>>>>>>>>>>>>>
~~~~~~~~~~~~~~~~~~~~~~~~~~~~~~~~~~~~~~~~~~~~~~~~~~~~~~~~~~~~~~~~~~~~~~~~~~~~~~~~
   iter  |      energy (Eh)       | rms gradient |  commutator  |   dE (Eh)
MG BCs: +ve charge blocks (gridpoints):     24701 (   17024213).
MG BCs: -ve charge blocks (gridpoints):      8428 (    1072144).
MG BCs:     Elided blocks (gridpoints):    179587 (  181081524).
MG BCs: Computational effort saved:  99.9834%.
MG BCs: Charge after coarse-graining:           -9.0006670.
MG DL_MG: Calling solver with defect correction order = 8
MG DL_MG: Solver finished
MG Hartree energy from (\int phi*rho dr):              1243.978606
MG Hartree energy from (\int eps (grad phi)^2 dr):     1243.326482
MG Discrepancy due to finite box and discretization:     -0.652125 (  -0.05242%)
MG Correction to account for finite box:                  0.469853
MG Remaining discrepancy, due to discretization:         -0.182272 (  -0.01465%)
      ideal mu1:      -0.707531760732
             Q0:  -11641.815697361599
             G0:     -10.002169304475
   RMS gradient:       0.000486183034
MG BCs: +ve charge blocks (gridpoints):     24739 (   17036758).
MG BCs: -ve charge blocks (gridpoints):      8424 (    1069420).
MG BCs:     Elided blocks (gridpoints):    179549 (  181071703).
MG BCs: Computational effort saved:  99.9834%.
MG BCs: Charge after coarse-graining:           -9.0006631.
MG DL_MG: Calling solver with defect correction order = 8
MG DL_MG: Solver finished
MG Hartree energy from (\int phi*rho dr):              1257.391353
MG Hartree energy from (\int eps (grad phi)^2 dr):     1256.734611
MG Discrepancy due to finite box and discretization:     -0.656742 (  -0.05223%)
MG Correction to account for finite box:                  0.469037
MG Remaining discrepancy, due to discretization:         -0.187705 (  -0.01493%)
     Trial step:       0.655751037851
             Q1:  -11641.835600297665
 Quadratic coef:       6.539029966107
 Linear coef   :      -6.558932902173
           Qmin:  -11643.460421465868
Quadratic minimum step length (  0.328873478183) accepted
    Initial Ne1:    7191.99958187
      Final Ne1:    7192.00000000

=================== Penalty functional idempotency correction ==================
 RMS occupancy error at iteration   1:  0.000356 (step -0.4986 Ne1=   7192.0000)
 RMS occupancy error at iteration   2:  0.000000 (step -0.5000 Ne1=   7192.0000)
            Final RMS occupancy error   :  0.000000 (Ne1=   7192.0000)
               Final occupancy bounds   : [  0.0000,  1.0000]
================================================================================

    1        -1.164181569736E+04     4.8618E-04     4.3974E-04
MG BCs: +ve charge blocks (gridpoints):     24724 (   17030615).
MG BCs: -ve charge blocks (gridpoints):      8429 (    1070709).
MG BCs:     Elided blocks (gridpoints):    179564 (  181076557).
MG BCs: Computational effort saved:  99.9834%.
MG BCs: Charge after coarse-graining:           -9.0006650.
MG DL_MG: Calling solver with defect correction order = 8
MG DL_MG: Solver finished
MG Hartree energy from (\int phi*rho dr):              1249.889958
MG Hartree energy from (\int eps (grad phi)^2 dr):     1249.235609
MG Discrepancy due to finite box and discretization:     -0.654349 (  -0.05235%)
MG Correction to account for finite box:                  0.469419
MG Remaining discrepancy, due to discretization:         -0.184930 (  -0.01480%)
      ideal mu1:      -0.714084909720
             Q0:  -11643.440346164163
             G0:      -0.995324386811
   RMS gradient:       0.000153782020
MG BCs: +ve charge blocks (gridpoints):     24725 (   17030470).
MG BCs: -ve charge blocks (gridpoints):      8434 (    1071574).
MG BCs:     Elided blocks (gridpoints):    179563 (  181075837).
MG BCs: Computational effort saved:  99.9834%.
MG BCs: Charge after coarse-graining:           -9.0006648.
MG DL_MG: Calling solver with defect correction order = 8
MG DL_MG: Solver finished
MG Hartree energy from (\int phi*rho dr):              1250.923461
MG Hartree energy from (\int eps (grad phi)^2 dr):     1250.268819
MG Discrepancy due to finite box and discretization:     -0.654642 (  -0.05233%)
MG Correction to account for finite box:                  0.469332
MG Remaining discrepancy, due to discretization:         -0.185310 (  -0.01481%)
     Trial step:       0.464391133249
             Q1:  -11643.653142896015
 Quadratic coef:       0.249423088089
 Linear coef   :      -0.462219819942
           Qmin:  -11643.654487488833
Quadratic minimum step length (  0.430294540167) accepted
    Initial Ne1:    7191.99994526
      Final Ne1:    7192.00000000

=================== Penalty functional idempotency correction ==================
 RMS occupancy error at iteration   1:  0.000147 (step -0.4994 Ne1=   7192.0000)
            Final RMS occupancy error   :  0.000000 (Ne1=   7192.0000)
               Final occupancy bounds   : [ -0.0000,  1.0000]
================================================================================

    2        -1.164344034616E+04     1.5378E-04     1.3909E-04    -1.6246E+00
MG BCs: +ve charge blocks (gridpoints):     24724 (   17030486).
MG BCs: -ve charge blocks (gridpoints):      8433 (    1071508).
MG BCs:     Elided blocks (gridpoints):    179564 (  181075887).
MG BCs: Computational effort saved:  99.9834%.
MG BCs: Charge after coarse-graining:           -9.0006648.
MG DL_MG: Calling solver with defect correction order = 8
MG DL_MG: Solver finished
MG Hartree energy from (\int phi*rho dr):              1250.847679
MG Hartree energy from (\int eps (grad phi)^2 dr):     1250.193060
MG Discrepancy due to finite box and discretization:     -0.654620 (  -0.05233%)
MG Correction to account for finite box:                  0.469339
MG Remaining discrepancy, due to discretization:         -0.185281 (  -0.01481%)
      ideal mu1:      -0.715023643026
             Q0:  -11643.654913855600
             G0:      -0.166493179369
   RMS gradient:       0.000062662241
MG BCs: +ve charge blocks (gridpoints):     24726 (   17029967).
MG BCs: -ve charge blocks (gridpoints):      8434 (    1071808).
MG BCs:     Elided blocks (gridpoints):    179562 (  181076106).
MG BCs: Computational effort saved:  99.9834%.
MG BCs: Charge after coarse-graining:           -9.0006649.
MG DL_MG: Calling solver with defect correction order = 8
MG DL_MG: Solver finished
MG Hartree energy from (\int phi*rho dr):              1250.420572
MG Hartree energy from (\int eps (grad phi)^2 dr):     1249.766047
MG Discrepancy due to finite box and discretization:     -0.654525 (  -0.05234%)
MG Correction to account for finite box:                  0.469258
MG Remaining discrepancy, due to discretization:         -0.185267 (  -0.01482%)
     Trial step:       0.447017862215
             Q1:  -11643.706449596910
 Quadratic coef:       0.022889683805
 Linear coef   :      -0.074425425115
           Qmin:  -11643.715412112704
Quadratic minimum step length (  0.726735561582) accepted
    Initial Ne1:    7192.00092591
      Final Ne1:    7192.00000000

=================== Penalty functional idempotency correction ==================
 RMS occupancy error at iteration   1:  0.000121 (step -0.4965 Ne1=   7192.0000)
 RMS occupancy error at iteration   2:  0.000001 (step -0.5000 Ne1=   7192.0000)
            Final RMS occupancy error   :  0.000000 (Ne1=   7192.0000)
               Final occupancy bounds   : [  0.0000,  1.0000]
================================================================================

    3        -1.164365491386E+04     6.2662E-05     5.6677E-05    -2.1457E-01
MG BCs: +ve charge blocks (gridpoints):     24724 (   17029542).
MG BCs: -ve charge blocks (gridpoints):      8435 (    1072102).
MG BCs:     Elided blocks (gridpoints):    179564 (  181076237).
MG BCs: Computational effort saved:  99.9834%.
MG BCs: Charge after coarse-graining:           -9.0006649.
MG DL_MG: Calling solver with defect correction order = 8
MG DL_MG: Solver finished
MG Hartree energy from (\int phi*rho dr):              1250.153069
MG Hartree energy from (\int eps (grad phi)^2 dr):     1249.498605
MG Discrepancy due to finite box and discretization:     -0.654464 (  -0.05235%)
MG Correction to account for finite box:                  0.469204
MG Remaining discrepancy, due to discretization:         -0.185259 (  -0.01482%)
      ideal mu1:      -0.714248080538
             Q0:  -11643.715512541588
             G0:      -0.062639755197
   RMS gradient:       0.000038421743
MG BCs: +ve charge blocks (gridpoints):     24724 (   17029288).
MG BCs: -ve charge blocks (gridpoints):      8434 (    1072156).
MG BCs:     Elided blocks (gridpoints):    179564 (  181076437).
MG BCs: Computational effort saved:  99.9834%.
MG BCs: Charge after coarse-graining:           -9.0006649.
MG DL_MG: Calling solver with defect correction order = 8
MG DL_MG: Solver finished
MG Hartree energy from (\int phi*rho dr):              1250.093504
MG Hartree energy from (\int eps (grad phi)^2 dr):     1249.439246
MG Discrepancy due to finite box and discretization:     -0.654258 (  -0.05234%)
MG Correction to account for finite box:                  0.469128
MG Remaining discrepancy, due to discretization:         -0.185130 (  -0.01481%)
     Trial step:       0.569968224670
             Q1:  -11643.737271796679
 Quadratic coef:       0.013943414973
 Linear coef   :      -0.035702670064
           Qmin:  -11643.738367069194
Quadratic minimum step length (  0.729713184006) accepted
    Initial Ne1:    7192.00034946
      Final Ne1:    7192.00000000

=================== Penalty functional idempotency correction ==================
 RMS occupancy error at iteration   1:  0.000181 (step -0.4899 Ne1=   7192.0000)
 RMS occupancy error at iteration   2:  0.000001 (step -0.5000 Ne1=   7192.0000)
            Final RMS occupancy error   :  0.000000 (Ne1=   7192.0000)
               Final occupancy bounds   : [  0.0000,  1.0000]
================================================================================

    4        -1.164371551254E+04     3.8422E-05     3.4752E-05    -6.0599E-02
MG BCs: +ve charge blocks (gridpoints):     24723 (   17029190).
MG BCs: -ve charge blocks (gridpoints):      8434 (    1072201).
MG BCs:     Elided blocks (gridpoints):    179565 (  181076490).
MG BCs: Computational effort saved:  99.9834%.
MG BCs: Charge after coarse-graining:           -9.0006649.
MG DL_MG: Calling solver with defect correction order = 8
MG DL_MG: Solver finished
MG Hartree energy from (\int phi*rho dr):              1250.077472
MG Hartree energy from (\int eps (grad phi)^2 dr):     1249.423275
MG Discrepancy due to finite box and discretization:     -0.654197 (  -0.05233%)
MG Correction to account for finite box:                  0.469104
MG Remaining discrepancy, due to discretization:         -0.185094 (  -0.01481%)
      ideal mu1:      -0.714308994059
             Q0:  -11643.738334292080
             G0:      -0.057282230608
   RMS gradient:       0.000036820746
MG BCs: +ve charge blocks (gridpoints):     24720 (   17030353).
MG BCs: -ve charge blocks (gridpoints):      8432 (    1071780).
MG BCs:     Elided blocks (gridpoints):    179568 (  181075748).
MG BCs: Computational effort saved:  99.9834%.
MG BCs: Charge after coarse-graining:           -9.0006647.
MG DL_MG: Calling solver with defect correction order = 8
MG DL_MG: Solver finished
MG Hartree energy from (\int phi*rho dr):              1250.819812
MG Hartree energy from (\int eps (grad phi)^2 dr):     1250.165937
MG Discrepancy due to finite box and discretization:     -0.653874 (  -0.05228%)
MG Correction to account for finite box:                  0.468854
MG Remaining discrepancy, due to discretization:         -0.185021 (  -0.01479%)
     Trial step:       0.644913426753
             Q1:  -11643.763035185169
 Quadratic coef:       0.012241186543
 Linear coef   :      -0.036942079633
           Qmin:  -11643.766205717020
Quadratic minimum step length (  0.973126382954) accepted
    Initial Ne1:    7192.00042776
      Final Ne1:    7192.00000000

=================== Penalty functional idempotency correction ==================
 RMS occupancy error at iteration   1:  0.000852 (step -0.4521 Ne1=   7192.0000)
 RMS occupancy error at iteration   2:  0.000016 (step -0.4997 Ne1=   7192.0000)
            Final RMS occupancy error   :  0.000000 (Ne1=   7192.0000)
               Final occupancy bounds   : [ -0.0000,  1.0000]
================================================================================

    5        -1.164373833429E+04     3.6821E-05     3.3304E-05    -2.2822E-02
MG BCs: +ve charge blocks (gridpoints):     24720 (   17030984).
MG BCs: -ve charge blocks (gridpoints):      8432 (    1071546).
MG BCs:     Elided blocks (gridpoints):    179568 (  181075351).
MG BCs: Computational effort saved:  99.9834%.
MG BCs: Charge after coarse-graining:           -9.0006646.
MG DL_MG: Calling solver with defect correction order = 8
MG DL_MG: Solver finished
MG Hartree energy from (\int phi*rho dr):              1251.199298
MG Hartree energy from (\int eps (grad phi)^2 dr):     1250.545594
MG Discrepancy due to finite box and discretization:     -0.653704 (  -0.05225%)
MG Correction to account for finite box:                  0.468721
MG Remaining discrepancy, due to discretization:         -0.184983 (  -0.01478%)
      ideal mu1:      -0.715782208515
             Q0:  -11643.765571178519
             G0:      -0.070162086623
   RMS gradient:       0.000041024893
MG BCs: +ve charge blocks (gridpoints):     24720 (   17031169).
MG BCs: -ve charge blocks (gridpoints):      8429 (    1071620).
MG BCs:     Elided blocks (gridpoints):    179568 (  181075092).
MG BCs: Computational effort saved:  99.9834%.
MG BCs: Charge after coarse-graining:           -9.0006645.
MG DL_MG: Calling solver with defect correction order = 8
MG DL_MG: Solver finished
MG Hartree energy from (\int phi*rho dr):              1251.045960
MG Hartree energy from (\int eps (grad phi)^2 dr):     1250.392803
MG Discrepancy due to finite box and discretization:     -0.653157 (  -0.05221%)
MG Correction to account for finite box:                  0.468175
MG Remaining discrepancy, due to discretization:         -0.184982 (  -0.01479%)
     Trial step:       0.792200902735
             Q1:  -11643.799241793691
 Quadratic coef:       0.021911853188
 Linear coef   :      -0.055582468361
           Qmin:  -11643.800819347200
Quadratic minimum step length (  1.004763979440) accepted
    Initial Ne1:    7192.00064636
      Final Ne1:    7192.00000000

=================== Penalty functional idempotency correction ==================
 RMS occupancy error at iteration   1:  0.003041 (step -0.3636 Ne1=   7192.0000)
 RMS occupancy error at iteration   2:  0.000142 (step -0.4956 Ne1=   7192.0000)
 RMS occupancy error at iteration   3:  0.000002 (step -0.5000 Ne1=   7192.0000)
            Final RMS occupancy error   :  0.000000 (Ne1=   7192.0000)
               Final occupancy bounds   : [  0.0000,  1.0000]
================================================================================

    6        -1.164376557118E+04     4.1025E-05     3.7106E-05    -2.7237E-02
MG BCs: +ve charge blocks (gridpoints):     24720 (   17031211).
MG BCs: -ve charge blocks (gridpoints):      8429 (    1071656).
MG BCs:     Elided blocks (gridpoints):    179568 (  181075014).
MG BCs: Computational effort saved:  99.9834%.
MG BCs: Charge after coarse-graining:           -9.0006645.
MG DL_MG: Calling solver with defect correction order = 8
MG DL_MG: Solver finished
MG Hartree energy from (\int phi*rho dr):              1251.010246
MG Hartree energy from (\int eps (grad phi)^2 dr):     1250.357176
MG Discrepancy due to finite box and discretization:     -0.653071 (  -0.05220%)
MG Correction to account for finite box:                  0.468089
MG Remaining discrepancy, due to discretization:         -0.184981 (  -0.01479%)
      ideal mu1:      -0.716141867337
             Q0:  -11643.800809251843
             G0:      -0.076211894704
   RMS gradient:       0.000042438896
MG BCs: +ve charge blocks (gridpoints):     24722 (   17029138).
MG BCs: -ve charge blocks (gridpoints):      8432 (    1072279).
MG BCs:     Elided blocks (gridpoints):    179566 (  181076464).
MG BCs: Computational effort saved:  99.9834%.
MG BCs: Charge after coarse-graining:           -9.0006649.
MG DL_MG: Calling solver with defect correction order = 8
MG DL_MG: Solver finished
MG Hartree energy from (\int phi*rho dr):              1249.820338
MG Hartree energy from (\int eps (grad phi)^2 dr):     1249.167165
MG Discrepancy due to finite box and discretization:     -0.653173 (  -0.05226%)
MG Correction to account for finite box:                  0.468105
MG Remaining discrepancy, due to discretization:         -0.185069 (  -0.01481%)
     Trial step:       0.892174271960
             Q1:  -11643.824799558264
 Quadratic coef:       0.044003985251
 Linear coef   :      -0.067994291672
           Qmin:  -11643.827075189312
Quadratic minimum step length (  0.689287087565) accepted
    Initial Ne1:    7191.99999946
      Final Ne1:    7192.00000000

=================== Penalty functional idempotency correction ==================
 RMS occupancy error at iteration   1:  0.000050 (step -0.4969 Ne1=   7192.0000)
            Final RMS occupancy error   :  0.000000 (Ne1=   7192.0000)
               Final occupancy bounds   : [ -0.0000,  1.0000]
================================================================================

    7        -1.164380080925E+04     4.2439E-05     3.8385E-05    -3.5238E-02
MG BCs: +ve charge blocks (gridpoints):     24722 (   17029649).
MG BCs: -ve charge blocks (gridpoints):      8431 (    1072117).
MG BCs:     Elided blocks (gridpoints):    179566 (  181076115).
MG BCs: Computational effort saved:  99.9834%.
MG BCs: Charge after coarse-graining:           -9.0006648.
MG DL_MG: Calling solver with defect correction order = 8
MG DL_MG: Solver finished
MG Hartree energy from (\int phi*rho dr):              1250.089257
MG Hartree energy from (\int eps (grad phi)^2 dr):     1249.436105
MG Discrepancy due to finite box and discretization:     -0.653151 (  -0.05225%)
MG Correction to account for finite box:                  0.468103
MG Remaining discrepancy, due to discretization:         -0.185049 (  -0.01480%)
      ideal mu1:      -0.715227783840
             Q0:  -11643.827085559838
             G0:      -0.065811380851
   RMS gradient:       0.000039427131
MG BCs: +ve charge blocks (gridpoints):     24724 (   17029709).
MG BCs: -ve charge blocks (gridpoints):      8434 (    1072128).
MG BCs:     Elided blocks (gridpoints):    179564 (  181076044).
MG BCs: Computational effort saved:  99.9834%.
MG BCs: Charge after coarse-graining:           -9.0006648.
MG DL_MG: Calling solver with defect correction order = 8
MG DL_MG: Solver finished
MG Hartree energy from (\int phi*rho dr):              1249.896673
MG Hartree energy from (\int eps (grad phi)^2 dr):     1249.243572
MG Discrepancy due to finite box and discretization:     -0.653101 (  -0.05225%)
MG Correction to account for finite box:                  0.467940
MG Remaining discrepancy, due to discretization:         -0.185162 (  -0.01481%)
     Trial step:       0.784196535009
             Q1:  -11643.856115821633
 Quadratic coef:       0.022578795033
 Linear coef   :      -0.051609056828
           Qmin:  -11643.856576668008
Quadratic minimum step length (  0.896231253265) accepted
[...]
MG Correction to account for finite box:                  0.006286
MG Remaining discrepancy, due to discretization:         -0.184502 (  -0.01527%)
     Trial step:       0.363529201870
             Q1:  -11678.599223786965
 Quadratic coef:       0.000000000928
 Linear coef   :      -0.000000000811
           Qmin:  -11678.599223787258
Quadratic minimum step length (  0.158883166759) accepted
    Initial Ne1:    7192.00000000
      Final Ne1:    7192.00000000

=================== Penalty functional idempotency correction ==================
 RMS occupancy error at iteration   1:  0.000000 (step -0.5000 Ne1=   7192.0000)
            Final RMS occupancy error   :  0.000000 (Ne1=   7192.0000)
               Final occupancy bounds   : [  0.0000,  1.0000]
================================================================================

    7        -1.167859922379E+04     7.2605E-09     6.5670E-09    -2.3283E-10

Reusing previously generated solute cavity.
MG BCs: +ve charge blocks (gridpoints):     28953 (   19230443).
MG BCs: -ve charge blocks (gridpoints):      8407 (    1041424).
MG BCs:     Elided blocks (gridpoints):    175335 (  178906014).
MG BCs: Computational effort saved:  99.9812%.
MG BCs: Charge after coarse-graining:           -9.0009461.
MG DL_MG: Calling solver with defect correction order = 8
MG DL_MG: Solver finished
MG Hartree energy from (\int phi*rho dr):              1208.202109
MG Hartree energy from (\int eps (grad phi)^2 dr):     1208.011321
MG Discrepancy due to finite box and discretization:     -0.190788 (  -0.01579%)
MG Correction to account for finite box:                  0.006286
MG Remaining discrepancy, due to discretization:         -0.184502 (  -0.01527%)
      ideal mu1:      -0.481734409250
             Q0:  -11678.599223787081
             G0:      -0.000000002354
   RMS gradient:       0.000000005629

Reusing previously generated solute cavity.
MG BCs: +ve charge blocks (gridpoints):     28953 (   19230443).
MG BCs: -ve charge blocks (gridpoints):      8407 (    1041424).
MG BCs:     Elided blocks (gridpoints):    175335 (  178906014).
MG BCs: Computational effort saved:  99.9812%.
MG BCs: Charge after coarse-graining:           -9.0009461.
MG DL_MG: Calling solver with defect correction order = 8
MG DL_MG: Solver finished
MG Hartree energy from (\int phi*rho dr):              1208.202107
MG Hartree energy from (\int eps (grad phi)^2 dr):     1208.011319
MG Discrepancy due to finite box and discretization:     -0.190788 (  -0.01579%)
MG Correction to account for finite box:                  0.006286
MG Remaining discrepancy, due to discretization:         -0.184502 (  -0.01527%)
     Trial step:       0.240330336833
             Q1:  -11678.599223786849
 Quadratic coef:       0.000000000799
 Linear coef   :      -0.000000000566
           Qmin:  -11678.599223787181
Quadratic minimum step length (  0.085116650589) accepted
    Initial Ne1:    7192.00000000
      Final Ne1:    7192.00000000

=================== Penalty functional idempotency correction ==================
 RMS occupancy error at iteration   1:  0.000000 (step -0.5000 Ne1=   7192.0000)
            Final RMS occupancy error   :  0.000000 (Ne1=   7192.0000)
               Final occupancy bounds   : [ -0.0000,  1.0000]
================================================================================

    8        -1.167859922379E+04     5.6286E-09     5.0909E-09     0.0000E+00

Reusing previously generated solute cavity.
MG BCs: +ve charge blocks (gridpoints):     28953 (   19230443).
MG BCs: -ve charge blocks (gridpoints):      8407 (    1041424).
MG BCs:     Elided blocks (gridpoints):    175335 (  178906014).
MG BCs: Computational effort saved:  99.9812%.
MG BCs: Charge after coarse-graining:           -9.0009461.
MG DL_MG: Calling solver with defect correction order = 8
MG DL_MG: Solver finished
MG Hartree energy from (\int phi*rho dr):              1208.202108
MG Hartree energy from (\int eps (grad phi)^2 dr):     1208.011320
MG Discrepancy due to finite box and discretization:     -0.190788 (  -0.01579%)
MG Correction to account for finite box:                  0.006286
MG Remaining discrepancy, due to discretization:         -0.184502 (  -0.01527%)
      ideal mu1:      -0.481734407915
             Q0:  -11678.599223786965
             G0:      -0.000000002276
   RMS gradient:       0.000000004718

Reusing previously generated solute cavity.
MG BCs: +ve charge blocks (gridpoints):     28953 (   19230443).
MG BCs: -ve charge blocks (gridpoints):      8407 (    1041424).
MG BCs:     Elided blocks (gridpoints):    175335 (  178906014).
MG BCs: Computational effort saved:  99.9812%.
MG BCs: Charge after coarse-graining:           -9.0009461.
MG DL_MG: Calling solver with defect correction order = 8
MG DL_MG: Solver finished
MG Hartree energy from (\int phi*rho dr):              1208.202107
MG Hartree energy from (\int eps (grad phi)^2 dr):     1208.011319
MG Discrepancy due to finite box and discretization:     -0.190788 (  -0.01579%)
MG Correction to account for finite box:                  0.006286
MG Remaining discrepancy, due to discretization:         -0.184502 (  -0.01527%)
     Trial step:       0.143024869537
             Q1:  -11678.599223786732
 Quadratic coef:       0.000000000558
 Linear coef   :      -0.000000000326
           Qmin:  -11678.599223787012
Quadratic minimum step length (  0.041688104900) accepted
    Initial Ne1:    7192.00000000
      Final Ne1:    7192.00000000

=================== Penalty functional idempotency correction ==================
 RMS occupancy error at iteration   1:  0.000000 (step -0.5000 Ne1=   7192.0000)
            Final RMS occupancy error   :  0.000000 (Ne1=   7192.0000)
               Final occupancy bounds   : [ -0.0000,  1.0000]
================================================================================

    9        -1.167859922379E+04     4.7176E-09     4.2670E-09     1.1642E-10

Reusing previously generated solute cavity.
MG BCs: +ve charge blocks (gridpoints):     28953 (   19230443).
MG BCs: -ve charge blocks (gridpoints):      8407 (    1041424).
MG BCs:     Elided blocks (gridpoints):    175335 (  178906014).
MG BCs: Computational effort saved:  99.9812%.
MG BCs: Charge after coarse-graining:           -9.0009461.
MG DL_MG: Calling solver with defect correction order = 8
MG DL_MG: Solver finished
MG Hartree energy from (\int phi*rho dr):              1208.202108
MG Hartree energy from (\int eps (grad phi)^2 dr):     1208.011320
MG Discrepancy due to finite box and discretization:     -0.190788 (  -0.01579%)
MG Correction to account for finite box:                  0.006286
MG Remaining discrepancy, due to discretization:         -0.184502 (  -0.01527%)
      ideal mu1:      -0.481734406931
   10        -1.167859922379E+04     4.2916E-09     3.8817E-09     0.0000E+00
Finished density kernel iterations (  10)


>>> Density kernel optimised for the current NGWF basis:
     ~~~~~~~~~~~~~~~~~~~~~~~~~~~~~~~~~~~~~~~~~~~~~~~~~~~~~~~~~~~
     Total energy                =  -1.16785992237870E+04  Eh
     Estimated bandgap           =   8.1893E-02  Eh
     RMS occupancy error         =   4.0577E-16
     [H,K] commutator            =   3.8817E-09
     Occupancy bounds            = [ -0.000:  1.000]
     ~~~~~~~~~~~~~~~~~~~~~~~~~~~~~~~~~~~~~~~~~~~~~~~~~~~~~~~~~~~




################################################################################
########################### NGWF CG iteration  005 #############################
################################################################################
****** Reciprocal space K.E. preconditioning with k_zero =  3.5000 a0^-1 *******

>>> Checking for convergence of NGWFs: 
           ........................................................
           |         *** NGWF optimisation converged ***          |
           | RMS NGWF gradient =    0.00000092627063              |
           | Criteria satisfied:                                  |
           | -> RMS NGWF gradient lower than set threshold.       |
           ========================================================

Reusing previously generated solute cavity.
MG BCs: +ve charge blocks (gridpoints):     28953 (   19230443).
MG BCs: -ve charge blocks (gridpoints):      8407 (    1041424).
MG BCs:     Elided blocks (gridpoints):    175335 (  178906014).
MG BCs: Computational effort saved:  99.9812%.
MG BCs: Charge after coarse-graining:           -9.0009461.
MG DL_MG: Calling solver with defect correction order = 8
MG DL_MG: Solver finished
MG Hartree energy from (\int phi*rho dr):              1208.202108
MG Hartree energy from (\int eps (grad phi)^2 dr):     1208.011320
MG Discrepancy due to finite box and discretization:     -0.190788 (  -0.01579%)
MG Correction to account for finite box:                  0.006286
MG Remaining discrepancy, due to discretization:         -0.184502 (  -0.01527%)

================================================================================
           ---------------- ENERGY COMPONENTS (Eh) ----------------
           | Kinetic                    :     8530.69561899998371 |
           | Pseudo. (local,OBC,corr'd) :    -5051.10283850907126 |
           | Pseudopotential (non-local):     1403.37953301103198 |
           | Hartree (molecular)        :     1208.20210779108470 |
           | Exchange-correlation       :    -3358.11063177300002 |
           | Ion-ion (open BC)          :   825562.11413445882499 |
           | Dispersion Correction      :       -3.22489444388964 |
           | Smeared ion non-self corr. :  -825514.05061839916743 |
           | Smeared ion self corr.     :   -14457.16956389741972 |
           | Solvent cavitation energy  :        2.37633718625955 |
           | Solute-solvent dis-rep en. :       -1.70840821163164 |
           | Total                      :   -11678.59922378695956 |
           --------------------------------------------------------
           ------ LOCAL ENERGY COMPONENTS FROM MATRIX TRACES ------
           | Pseudopotential (local)    :    -5051.10283850907126 |
           | Hartree                    :    -1992.81478283510410 |
           --------------------------------------------------------
           Integrated density           :     7191.99999999898046
           Integrated density tr(KS)    :     7192.00000000000000
================================================================================


                        <<<<< CALCULATION SUMMARY >>>>>                         
|ITER|    RMS GRADIENT   |     TOTAL ENERGY    |   step   |     Epredicted              
   0     0.00004194703417 -11678.52887773117982   0.639193 -11678.58970524147662        
   1     0.00000954791669 -11678.59875019628089   0.079093 -11678.59914015545655        
   2     0.00000435760476 -11678.59920474560931   0.015518 -11678.59922068220840        
   3     0.00000201223927 -11678.59922291862313   0.003360 -11678.59922365443708        
   4     0.00000092627063 -11678.59922378696501  <-- CG                                 

=================== Finished the calculation in solvent ========================
= Adjusting the following parameters: 
= read_denskern: F
= read_tightbox_ngwfs: F
= maxit_pen: 0 (restored to user-specified value)
= restart read filename prefix: ""
= restart write filename prefix: ""
================================================================================

================================================================================
IS: Calculation in solvent completed (NGWFs converged).      

Individual components of total energy in solvent:     hartree           kcal/mol
- Usual non-electrostatic DFT terms:    -12887.46926055267795    -8087008.882245
- Electrostatic fixed charge energy:      1208.20210779108470      758158.252774
- Apolar cavitation energy:                  2.37633718625955        1491.174066
- Apolar dispersion-repulsion energy:       -1.70840821163164       -1072.042315
 -------------------------------------------------------------------------------
- Total energy in solvent:              -11678.59922378696501    -7328431.497721

Components of total energy in solvent:                hartree           kcal/mol
- Usual non-electrostatic DFT terms:    -12887.46926055267795    -8087008.882245
- Electrostatic energy:                   1208.20210779108470      758158.252774
- Apolar energy terms:                       0.66792897462790         419.131750
 -------------------------------------------------------------------------------
- Total energy in solvent:              -11678.59922378696501    -7328431.497721

Calculation of free energy of solvation:              hartree           kcal/mol
- Total energy in solvent:         (+)  -11678.59922378696501    -7328431.497721
- Total energy in vacuum:          (-)  -11674.64252280781511    -7325948.630425
 -------------------------------------------------------------------------------
- Total free energy of solvation:           -3.95670097914990       -2482.867297

Components of polar term in f.e. of solvation:        hartree           kcal/mol
- Electrostatic:                            -4.72811747983292       -2966.938449
- Change in nonelectrostatic DFT terms:      0.10348752605387          64.939402
 -------------------------------------------------------------------------------
- Polar term in f.e. of solvation:          -4.62462995377905       -2901.999047

Components of free energy of solvation:               hartree           kcal/mol
- Polar term in f.e. of solvation: (+)      -4.62462995377905       -2901.999047
- Apolar (cavitation, dis., rep.): (+)       0.66792897462790         419.131750
 -------------------------------------------------------------------------------
- Total free energy of solvation:           -3.95670097915115       -2482.867297
================================================================================


------------------------------ TIMING INFORMATION ------------------------------
AVERAGE TIME:   32731.888s on     60 node(s)                                    
TOTAL TIME:     32734.077s on     60 node(s)                                    
================= AVERAGE TIMINGS FROM ALL NODES (CUMULATIVE) ==================
|| TAG                                    #calls    cpu time   %total  Gflops ||
|| work_imbalance                       :     1        0.00s   0.000%  ------ ||
|| sparse_set_to_garbage                :   194        0.03s   0.000%  ------ ||
|| parallel_prepare_fd_halos_request    :  2067        0.03s   0.000%  ------ ||
|| ngwfs_initialise_from_radial         :     1        0.10s   0.000%  ------ ||
|| basis_extract_function_from_box      :  3794        0.17s   0.001%  ------ ||
|| parallel_prepare_fd_halos_satisfy    :  2067        0.70s   0.002%  ------ ||
|| parallel_prepare_fd_halos_alloc      :  2067        1.58s   0.005%  ------ ||
|| pseudopotentials_nonlocal_mat        :    33        2.05s   0.006%  ------ ||
|| restart_kernel_read                  :     1        4.26s   0.013%  ------ ||
|| restart_ngwfs_tightbox_input         :     1        7.91s   0.024%  ------ ||
|| parallel_prepare_fd_halos_comms_imbal:  2067       10.78s   0.033%  ------ ||
|| density_init_guess_real              :     1       12.77s   0.039%  ------ ||
|| openbc_locps_radial                  :     1       21.58s   0.066%  ------ ||
|| parallel_prepare_fd_halos_clear      :  2067       21.82s   0.067%  ------ ||
|| sparse_init                          :     2       22.07s   0.067%  ------ ||
|| projectors_func_ovlp_box             :    33       29.19s   0.089%  ------ ||
|| parallel_prepare_fd_halos_comms_wait :  2067       29.92s   0.091%  ------ ||
|| function_ops_brappd_ketppd           :    33       31.63s   0.097%  ------ ||
|| palser_mano_kernel_optimise          :     1       32.90s   0.101%  ------ ||
|| projectors_init_fftbox_recip         :   152       33.56s   0.103%  ------ ||
|| basis_copy_function_to_box           : 61363       43.83s   0.134%  ------ ||
|| ngwf_gradient_coeffs                 :    17       53.37s   0.163%  ------ ||
|| pseudo_make_structure_factor         :     2       55.10s   0.168%  ------ ||
|| fourier_apply_box_pair               :  5481       56.59s   0.173% 560.781 ||
|| restart_kernel_write                 :    13       63.53s   0.194%  ------ ||
|| parallel_prepare_fd_halos            :  2067       64.86s   0.198%  ------ ||
|| sparse_embed_hotelling_invert_embed  :    33       82.36s   0.252%  ------ ||
|| projectors_gradient_batch            :   119      158.71s   0.485%  ------ ||
|| integrals_kinetic                    :    33      160.18s   0.489%  ------ ||
|| finite_difference_derivative         :  2067      164.23s   0.502%  ------ ||
|| basis_dot_function_with_box          : 9.277M     184.51s   0.564%  ------ ||
|| fourier_apply_cell_backward          :  1379      191.85s   0.586% 101.959 ||
|| sparse_trace                         :  5711      208.30s   0.636%  ------ ||
|| fourier_apply_cell_forward           :  1377      270.98s   0.828%  72.082 ||
|| openbc_locps_on_grid                 :     2      275.07s   0.840%  ------ ||
|| kernel_purify                        :   526      319.53s   0.976%  ------ ||
|| basis_add_function_to_box            : 19.32M     445.70s   1.362%  ------ ||
|| lnv_gradient_norm                    :   170      476.84s   1.457%  ------ ||
|| hamiltonian_energy_components        :     4      480.09s   1.467%  ------ ||
|| xc_energy_potential                  :   344      533.01s   1.628%  ------ ||
|| kernel_fix                           :   170      577.82s   1.765%  ------ ||
|| ngwf_gradient_build_batch            :   119      804.73s   2.459%  ------ ||
|| integrals_locpot_mat_els_batch       :  1253      813.57s   2.486%  ------ ||
|| restart_ngwfs_tightbox_output        :    11      885.89s   2.707%  ------ ||
|| ngwf_gradient_batch                  :   119     1134.90s   3.467%  ------ ||
|| density_batch_row_sums               :  2401     1156.87s   3.534%  ------ ||
|| ngwf_gradient_lnv                    :    17     1297.10s   3.963%  ------ ||
|| cell_grid_deposit_box_real           : 39497     1392.50s   4.254%  ------ ||
|| cell_grid_extract_box_real           : 43559     1608.02s   4.913%  ------ ||
|| sparse_product                       :  7116     1995.43s   6.096%  ------ ||
|| density_fftbox_deposit_to_cell       : 37387     2001.33s   6.114%  ------ ||
|| potential_apply_to_ngwf_batch        :  1253     3766.30s  11.507%  ------ ||
|| density_fftbox_interpolate_multiply  : 37387     3907.28s  11.937%  ------ ||
|| integrals_locpot_dbl_grid            :   179     4600.28s  14.054%  ------ ||
|| fourier_apply_box                    : 128.8k    4807.58s  14.688% 751.506 ||
|| multigrid_prepare_bound_cond         :   344     4871.41s  14.883%  ------ ||
|| density_batch_interp_deposit         :  2401     6843.14s  20.907%  ------ ||
|| dl_mg_solver_calls                   :   344     8017.97s  24.496%  ------ ||
|| density_on_dbl_grid                  :   343     8444.55s  25.799%  ------ ||
|| multigrid_calculate_hartree          :   344    13114.44s  40.066%  ------ ||
|| hamiltonian_lhxc_calculate           :   339    22068.23s  67.421%  ------ ||
|| lnv_denskernel_optimise_cg           :    17    27592.63s  84.299%  ------ ||
|| ngwf_cg_optimise                     :     2    31712.94s  96.887%  ------ ||
|| total_time                           :     1    32731.89s 100.000%  ------ ||
================================================================================
Overhead of generating timer report: 
- 0 ms averaging over threads,
- 15 ms ensuring consistency across MPI ranks,
- 0 ms printing in order.

Job completed: 23-06-2020 05:11 (+0100)

Application 40912162 network throttled: 10 nodes throttled, 00:03:20 node-seconds
Application 40912162 resources: utime ~6909705s, stime ~223662s, Rss ~3709344, inblocks ~365345894, outblocks ~52611215
