 +---------------------------------------------------------------+
 |                                                               |
 |        ####### #     # ####### ####### ####### ######         |
 |        #     # ##    # #          #    #       #     #        |
 |        #     # # #   # #          #    #       #     #        |
 |        #     # #  #  # #####      #    #####   ######         |
 |        #     # #   # # #          #    #       #              |
 |        #     # #    ## #          #    #       #              |
 |        ####### #     # #######    #    ####### #              |
 |                                                               |
 |        Linear-Scaling Ab Initio Total Energy Program          |
 |                                                               |
 |          Release for academic collaborators of ODG            |
 |                                             Version 5.3.2.6.  |
 |                                                               |
 +---------------------------------------------------------------+
 |                                                               |
 |  Authors:                                                     |
 |  Jacek Dziedzic, Peter D. Haynes, Nicholas D. M. Hine,        |
 |  Arash. A. Mostofi, Mike C. Payne and Chris-Kriton Skylaris   |
 |                                                               |
 |  Contributors:                                                |
 |  J. Aarons, L. Andrinopoulos, P. W. Avraam, R. A. Bell,       |
 |  A. Bhandari, G. A. Bramley, R. J. Charlton, S. J. Clark,     |
 |  R. J. Clements, G. C. Constantinescu, F. Corsetti,           |
 |  N. Corsini, O. Dieguez, S. M. M. Dubois, K. K. B. Duff,      |
 |  J. M. Escartin, A. Greco, H. Helal, Q. O. Hill, L. P. Lee,   |
 |  J.-H. Li, E. B. Linscott, G. Moynihan, D. D. O`Regan,        |
 |  O. K. Okan, M. J. S. Phipps, C. J. Pickard,                  |
 |  J. C. A. Prentice, M. I. J. Probert, L. E. Ratcliff,         |
 |  M. Robinson, A. Ruiz Serrano, J. S. Spencer, E. W. Tait,     |
 |  G. Teobaldi, D. Turban, V. Vitale, K. A. Wilkinson,          |
 |  C. Weber, J. C. Womack, N. Yeung and T. J. Zuehlsdorff       |
 |                                                               |
 |                                   Copyright (c) 2004-2019     |
 |                                                               |
 |  Please cite:                                                 |
 |  "Introducing ONETEP: Linear-scaling density functional       |
 |   simulations on parallel computers".                         |
 |   C.-K. Skylaris, P. D. Haynes, A. A. Mostofi, M. C. Payne.   |
 |   J. Chem. Phys. 122 084119 (2005).                           |
 |                                                               |
 |          in all publications arising from your use of ONETEP. |
 |                                                               |
 +---------------------------------------------------------------+
 |                                                               |
 |   ONETEP is based on developments described in the following  |
 |   publications:                                               |
 |                                                               |
 |  "Nonorthogonal generalized Wannier function pseudopotential  |
 |   plane-wave method".                                         |
 |   C.-K. Skylaris, A. A. Mostofi, P. D. Haynes, O. Dieguez,    |
 |   M. C. Payne.                                                |
 |   Phys. Rev. B 66 035119 (2002).                              |
 |                                                               |
 |  "Preconditioned iterative minimization for linear-scaling    |
 |   electronic structure calculations".                         |
 |   A. A. Mostofi, P. D. Haynes, C.-K. Skylaris, M. C. Payne.   |
 |   J. Chem. Phys. 119(17), pp.8842-8848 (2003).                |
 |                                                               |
 |  "Total-energy calculations on a real space grid with         |
 |   localized functions and a plane-wave basis".                |
 |   A. A. Mostofi, C.-K. Skylaris, P. D. Haynes, M. C. Payne.   |
 |   Comput. Phys. Commun. 147, pp.788-802 (2002).               |
 |                                                               |
 |  "Accurate kinetic energy evaluation in electronic structure  |
 |   calculations with localized functions on real space grids"  |
 |   C.-K. Skylaris, A. A. Mostofi, P. D. Haynes, C. J. Pickard, |
 |   M. C. Payne.                                                |
 |   Comput. Phys. Commun. 140, pp.315-322 (2001).               |
 |                                                               |
 |  "Accurate ionic forces and geometry optimization in linear-  |
 |   scaling density-functional theory with local orbitals"      |
 |   N. D. M. Hine, M. Robinson, P. D. Haynes, C.-K. Skylaris,   |
 |   M. C. Payne, and A. A. Mostofi.                             |
 |   Phys. Rev. B 83 195102 (2011).                              |
 |                                                               |
 +---------------------------------------------------------------+

Job started: 19-06-2020 02:09 (+0100)
 
Reading parameters from file "host_14921.dat" ...... done

If your calculation crashes here, before "Checking processes and threads..."
is displayed, then your stack size is insufficient.
If so, use "ulimit -s unlimited" at runtime.
You can disable this check with "check_stack_size F".

Checking processes and threads...
   Determining the default number of threads...
      No default threads set at compilation time: defaulting to 1.
      OpenMP library call suggests 4 threads.
      Hybrid MPI-OpenMP compilation detected.
      Number of MPI processes > 1.
      OMP_NUM_THREADS environment variable present and
      its value matches the one obtained from the OpenMP library call.
      Using this value as default.
      Default threads: 4
      Default applies to threads_max and threads_num_fftboxes.
      Settings in the input file override this default.
   ... done

   Running with 40 MPI processes.
   There are 10 MPI processes running on the same node as the root process.
   Each MPI process is using: 
               1 threads for simulation cell FFTs.
               1 threads for parallel FFT box operations.
               4 threads for loops over batched FFT box operations.
               4 threads in other parallel regions.
... done

Basic input checks...... done

Reading geometry and species blocks from file "host_14921.dat" ...
  <species_atomic_set> block not found: NGWF initialisation set to SOLVE
IS: Dielectric excluded regions:
    - NONE.
    
  Number of PPD points along a3 set to 1.  This is 
  the default value, it may have been provided also in the input file.
... done
 Writing xyz coordinates to file "host_14921.xyz" ... done


--------------------------------------------------------------------------------
---------------------------------- INPUT FILE ----------------------------------
--------------------------------------------------------------------------------

cutoff_energy       : 800 eV                                                    
xc_functional PBE                                                               
task SINGLEPOINT                                                                
write_xyz true                                                                  
output_detail VERBOSE                                                           
ngwf_threshold_orig : 0.000002                                                  
kernel_cutoff       : 1000                                                      
k_zero              : 3.5                                                       
elec_cg_max 0                                                                   
occ_mix 1.0                                                                     
dispersion 1                                                                    
maxit_ngwf_cg 40                                                                
minit_lnv 10                                                                    
maxit_lnv 10                                                                    
write_denskern F                                                                
write_tightbox_ngwfs F                                                          
charge 9                                                                        
is_implicit_solvent T                                                           
is_auto_solvation T                                                             
is_include_apolar T                                                             
is_smeared_ion_rep T                                                            
is_solvent_surf_tension 4.7624E-5 Ha/bohr**2                                    
is_apolar_scaling_factor 0.281075                                               
is_solvation_beta 1.3                                                           
is_density_threshold 0.00035                                                    
is_bulk_permittivity 78.54                                                      
is_dielectric_model fix_initial                                                 
is_smeared_ion_width 0.8                                                        
mg_defco_fd_order 8                                                             
is_bc_coarseness 10                                                             
is_bc_surface_coarseness 1                                                      
fine_grid_scale 2.0                                                             
%block species                                                                  
N   N   7 4 8.0                                                                 
H   H   1 1 8.0                                                                 
C   C   6 4 8.0                                                                 
S   S  16 9 8.0                                                                 
O   O   8 4 8.0                                                                 
%endblock species                                                               
%block species_pot                                                              
N   N_00.recpot                                                                 
H   H_04.recpot                                                                 
C   C_01.recpot                                                                 
S   S_00.recpot                                                                 
O   O_02.recpot                                                                 
%endblock species_pot                                                           
%block lattice_cart                                                             
140.777   0.000   0.000                                                         
0.000 144.511   0.000                                                           
0.000   0.000   162.462                                                         
%endblock lattice_cart                                                          
%block positions_abs                                                            
     Hash =  -000000843302037631564361
%endblock positions_abs                                                         

--------------------------------------------------------------------------------
-------------------------------- END INPUT FILE --------------------------------
--------------------------------------------------------------------------------


 
 ESDF WARNING(1): "kernelcutoff" (esdf_physical) has no units. Assume "bohr".
 ESDF WARNING(2): "kzero" (esdf_physical) has no units. Assume "1/bohr".
 ESDF WARNING(3
 ): "issmearedionwidth" (esdf_physical) has no units. Assume "bohr".
<<<<<<<<<<<<<<<<<<<<<<<<<<<<<<<<< Full system >>>>>>>>>>>>>>>>>>>>>>>>>>>>>>>>>>
<<<<<<<<<<<<<<<<<<<<<<<<< Pseudopotential information >>>>>>>>>>>>>>>>>>>>>>>>>>
File: N_00.recpot [ 2001 points up to Gmax=  52.9 (1/bohr)]
  Atomic number:  7;  ionic charge:  5.000000
    Shell 1: l = 0; rc = 1.48 bohr
File: H_04.recpot [ 2001 points up to Gmax=  52.9 (1/bohr)]
  Atomic number:  1;  ionic charge:  1.000000
    Local potential
File: C_01.recpot [ 2001 points up to Gmax=  52.9 (1/bohr)]
  Atomic number:  6;  ionic charge:  4.000000
    Shell 1: l = 0; rc = 1.48 bohr
File: S_00.recpot [ 2001 points up to Gmax=  52.9 (1/bohr)]
  Atomic number: 16;  ionic charge:  6.000000
    Shell 1: l = 0; rc = 1.90 bohr
    Shell 2: l = 2; rc = 1.84 bohr
File: O_02.recpot [ 2001 points up to Gmax=  52.9 (1/bohr)]
  Atomic number:  8;  ionic charge:  6.000000
    Shell 1: l = 0; rc = 1.31 bohr
<<<<<<<<<<<<<<<<<<<<<<<<<<<<<<<<<<<<<<<<>>>>>>>>>>>>>>>>>>>>>>>>>>>>>>>>>>>>>>>>

-------------------------- Atom counting information ---------------------------
Symbol    Natoms    Nngwfs    Nprojs
  N        236       944       236
  H       1311      1311         0
  C        810      3240       810
  S          6        54        36
  O        239       956       239
.......   ......    ......    ......
Totals:   2602      6505      1321
--------------------------------------------------------------------------------

=============================== PSINC grid sizes ===============================
                      Simulation cell:  280 x 286 x 320
                              FFT-box:   99 x  99 x  99
                                  PPD:    5 x  11 x   1
Grid space d1=  0.502775000000a0 (KE cutoff=  30.05084Eh = 817.72503eV)
Grid space d2=  0.505283216783a0 (KE cutoff=  29.75324Eh = 809.62684eV)
Grid space d3=  0.507693750000a0 (KE cutoff=  29.47137Eh = 801.95686eV)
================================================================================

********************* Fourier parallelisation information **********************
       Coarse grid (whole simulation cell) dimensions:    280   286   320
          Real-space ('12') slabs/node (min max mean):      8     8     8
         Recip-space ('23') slabs/node (min max mean):      3     4     3
********************************************************************************

********************* Fourier parallelisation information **********************
       Double grid (whole simulation cell) dimensions:    560   572   640
          Real-space ('12') slabs/node (min max mean):     16    16    16
         Recip-space ('23') slabs/node (min max mean):      7     8     7
********************************************************************************
ONETEP fine grid is 560 x 572 x 640 gridpoints, 140.7770 x 144.5110 x 162.4620 bohr.
FD multigrid is     553 x 569 x 633 gridpoints, 139.0173 x 143.7531 x 160.6851 bohr.


Calculating local pseudopotential in open BC on a radial grid ...
Discrepancy between calculated realspace psloc and -Z/x on [5a0,259.028a0]:
max |rel. diff| # avg |rel. diff| #  avg rel. diff #  f # pseudopotential file
 0.000261578119    0.000004844123   0.000000072210   55  'N_00.recpot'
 0.000419583258    0.000017514079  -0.000000069370   55  'H_04.recpot'
 0.000363553651    0.000016734795   0.000000141192   55  'C_01.recpot'
 0.000449990737    0.000019382085   0.000000449342   55  'S_00.recpot'
 0.000706973137    0.000028359832   0.000000146371   55  'O_02.recpot'
... done

Atom SCF Calculation for N  : Z (AE atom) =   7 : Z (PS atom) =   5
Config String:
Orbitals (num,occ):  2     2.00 3.00
Orbitals   (num,l):  2        0    1
Real-space Grid (nr,dr,rmax): 1203    0.0066555740    8.0000000000
Spherical Bessel Basis (nsws,lmax,cutoff):   47    1  176.3951722778
Confining potential (l,width,scale):  0    3.0000000000  100.0000000000
Confining potential (l,width,scale):  1    3.0000000000  100.0000000000
  1         -4.7312375307   -3.4155304497    7.0523828109   -1.9351020946
  2         -9.7309464766   -2.0532547791    8.2966052865   -2.2494486027
  3         -9.6627394379   -2.1124926340    8.2327997121   -2.2369778124
  4         -9.6814993499   -2.1215521045    8.2229805960   -2.2365178421
  5         -9.6843326483   -2.1250939529    8.2191374534   -2.2362718126
  6         -9.6859628709   -2.1267894855    8.2172963573   -2.2362066344
  7         -9.6867347035   -2.1276425665    8.2163697352   -2.2361903369
  8         -9.6870802100   -2.1280764625    8.2158983890   -2.2361891460
  9         -9.6872290423   -2.1282977424    8.2156580222   -2.2361920435
 10         -9.6872901988   -2.1284107021    8.2155353368   -2.2361953393
 11         -9.6873135296   -2.1284684031    8.2154726809   -2.2361979819
 12         -9.6873212476   -2.1284978948    8.2154406648   -2.2361998431
 13         -9.6873229586   -2.1285129774    8.2154242957   -2.2362010676
 14         -9.6873226456   -2.1285206957    8.2154159216   -2.2362018403
 15         -9.6873218534   -2.1285246479    8.2154116349   -2.2362023142
 16         -9.6873212599   -2.1285262679    8.2154098784   -2.2362025420
 17         -9.6873207834   -2.1285272564    8.2154088068   -2.2362026955
 18         -9.6873204210   -2.1285278597    8.2154081529   -2.2362027982
 19         -9.6873201550   -2.1285282280    8.2154077538   -2.2362028667
 20         -9.6873199645   -2.1285284529    8.2154075102   -2.2362029121
 21         -9.6873198305   -2.1285285903    8.2154073614   -2.2362029421
 22         -9.6873197377   -2.1285286742    8.2154072705   -2.2362029618
Atom SCF converged after  22 iterations to a total energy of     -9.68731974

Atom SCF Calculation for H  : Z (AE atom) =   1 : Z (PS atom) =   1
Config String:
Orbitals (num,occ):  1     1.00
Orbitals   (num,l):  1        0
Real-space Grid (nr,dr,rmax): 1203    0.0066555740    8.0000000000
Spherical Bessel Basis (nsws,lmax,cutoff):   47    0  176.3951722778
Confining potential (l,width,scale):  0    3.0000000000  100.0000000000
  1         -0.3194257691   -0.2393854593    0.2820953124   -0.2424203209
  2         -0.3951823392   -0.2377116493    0.2886404059   -0.2475147891
  3         -0.4317044583   -0.2352244387    0.2921333887   -0.2514046172
  4         -0.4470703708   -0.2341892222    0.2934391879   -0.2531009782
  5         -0.4532132900   -0.2338556667    0.2938388426   -0.2537313520
  6         -0.4556579251   -0.2337612552    0.2939448584   -0.2539550462
  7         -0.4566418315   -0.2337377355    0.2939680120   -0.2540342273
  8         -0.4570437922   -0.2337331116    0.2939708287   -0.2540627372
  9         -0.4572102946   -0.2337328328    0.2939698291   -0.2540732650
 10         -0.4572800424   -0.2337332404    0.2939687193   -0.2540772588
 11         -0.4573095100   -0.2337335791    0.2939680317   -0.2540788122
 12         -0.4573220379   -0.2337337762    0.2939676699   -0.2540794294
 13         -0.4573273880   -0.2337338775    0.2939674931   -0.2540796787
 14         -0.4573296803   -0.2337339266    0.2939674099   -0.2540797808
 15         -0.4573306647   -0.2337339495    0.2939673718   -0.2540798230
 16         -0.4573310882   -0.2337339601    0.2939673545   -0.2540798406
 17         -0.4573312706   -0.2337339649    0.2939673467   -0.2540798479
 18         -0.4573313493   -0.2337339670    0.2939673433   -0.2540798510
Atom SCF converged after  18 iterations to a total energy of     -0.45733135

Atom SCF Calculation for C  : Z (AE atom) =   6 : Z (PS atom) =   4
Config String:
Orbitals (num,occ):  2     2.00 2.00
Orbitals   (num,l):  2        0    1
Real-space Grid (nr,dr,rmax): 1203    0.0066555740    8.0000000000
Spherical Bessel Basis (nsws,lmax,cutoff):   47    1  176.3951722778
Confining potential (l,width,scale):  0    3.0000000000  100.0000000000
Confining potential (l,width,scale):  1    3.0000000000  100.0000000000
  1         -5.2976922011   -1.3069684169    4.5135249990   -1.4493313817
  2         -5.3721716256   -1.3429755895    4.4750154450   -1.4361613026
  3         -5.3809959565   -1.3617365618    4.4541655428   -1.4305930207
  4         -5.3918938866   -1.3667928461    4.4484735100   -1.4294652294
  5         -5.3956096428   -1.3688539142    4.4461376126   -1.4290734646
  6         -5.3968271862   -1.3696852393    4.4451910874   -1.4289366866
  7         -5.3972028401   -1.3700178062    4.4448112275   -1.4288900460
  8         -5.3973067903   -1.3701500158    4.4446598370   -1.4288749220
  9         -5.3973286940   -1.3702023868    4.4445997329   -1.4288704293
 10         -5.3973289850   -1.3702230869    4.4445759233   -1.4288693188
 11         -5.3973254264   -1.3702312560    4.4445665049   -1.4288691775
 12         -5.3973224003   -1.3702344755    4.4445627836   -1.4288692549
 13         -5.3973208708   -1.3702354890    4.4445616088   -1.4288693270
 14         -5.3973198783   -1.3702360102    4.4445610034   -1.4288693814
 15         -5.3973192535   -1.3702362780    4.4445606917   -1.4288694190
 16         -5.3973188684   -1.3702364155    4.4445605313   -1.4288694437
 17         -5.3973186349   -1.3702364860    4.4445604489   -1.4288694595
 18         -5.3973184951   -1.3702365221    4.4445604065   -1.4288694693
 19         -5.3973184122   -1.3702365405    4.4445603848   -1.4288694753
Atom SCF converged after  19 iterations to a total energy of     -5.39731841

Atom SCF Calculation for S  : Z (AE atom) =  16 : Z (PS atom) =   6
Config String:
Orbitals (num,occ):  3     2.00 4.00 0.00
Orbitals   (num,l):  3        0    1    2
Real-space Grid (nr,dr,rmax): 1203    0.0066555740    8.0000000000
Spherical Bessel Basis (nsws,lmax,cutoff):   47    2  176.3951722778
Confining potential (l,width,scale):  0    3.0000000000  100.0000000000
Confining potential (l,width,scale):  1    3.0000000000  100.0000000000
Confining potential (l,width,scale):  2    3.0000000000  100.0000000000
  1        -12.4735062396   -1.0328741412   10.1554312477   -2.4512393157
  2         -9.9458301913   -2.4607392455    8.3041325857   -2.0306994528
  3        -10.1450417646   -2.2931184565    8.4831893826   -2.0812538287
  4        -10.1528335592   -2.2733105793    8.5050388867   -2.0896035179
  5        -10.1571940363   -2.2633716629    8.5160794258   -2.0939370707
  6        -10.1594380571   -2.2584938667    8.5215163935   -2.0961289008
  7        -10.1605856507   -2.2561081821    8.5241804044   -2.0972291378
  8        -10.1611799191   -2.2549395235    8.5254868240   -2.0977806248
  9        -10.1614918752   -2.2543658586    8.5261285885   -2.0980571586
 10        -10.1616572884   -2.2540839121    8.5264441898   -2.0981959233
 11        -10.1617455602   -2.2539453058    8.5265994231   -2.0982656006
 12        -10.1617928447   -2.2538772062    8.5266757320   -2.0983006047
 13        -10.1618182292   -2.2538437891    8.5267131983   -2.0983181961
 14        -10.1618318741   -2.2538274201    8.5267315620   -2.0983270391
 15        -10.1618392144   -2.2538194197    8.5267405433   -2.0983314852
 16        -10.1618431651   -2.2538155200    8.5267449245   -2.0983337210
 17        -10.1618452923   -2.2538136252    8.5267470551   -2.0983348455
 18        -10.1618464380   -2.2538127080    8.5267480875   -2.0983354110
 19        -10.1618470552   -2.2538122659    8.5267485856   -2.0983356955
 20        -10.1618473878   -2.2538120540    8.5267488248   -2.0983358386
 21        -10.1618475670   -2.2538119530    8.5267489389   -2.0983359106
 22        -10.1618476637   -2.2538119053    8.5267489929   -2.0983359468
Atom SCF converged after  22 iterations to a total energy of    -10.16184766

Atom SCF Calculation for O  : Z (AE atom) =   8 : Z (PS atom) =   6
Config String:
Orbitals (num,occ):  2     2.00 4.00
Orbitals   (num,l):  2        0    1
Real-space Grid (nr,dr,rmax): 1203    0.0066555740    8.0000000000
Spherical Bessel Basis (nsws,lmax,cutoff):   47    1  176.3951722778
Confining potential (l,width,scale):  0    3.0000000000  100.0000000000
Confining potential (l,width,scale):  1    3.0000000000  100.0000000000
  1         -1.8735052164   -7.5539365035   10.1554312477   -2.4512393157
  2        -16.0318313751   -3.1285771268   13.6395848164   -3.2358799643
  3        -15.9524020423   -3.0762819706   13.6967272503   -3.2536856837
  4        -15.8521515939   -3.0781493909   13.6951909330   -3.2561700440
  5        -15.8357139793   -3.0748501933   13.6988803334   -3.2580493133
  6        -15.8246052853   -3.0740779781   13.6997881576   -3.2588327446
  7        -15.8189019501   -3.0737449687   13.7001869911   -3.2592378801
  8        -15.8159785510   -3.0736026016   13.7003615168   -3.2594475790
  9        -15.8144776168   -3.0735437994   13.7004360379   -3.2595560735
 10        -15.8137058024   -3.0735207882   13.7004667348   -3.2596122456
 11        -15.8133083127   -3.0735125946   13.7004786868   -3.2596413656
 12        -15.8131032938   -3.0735102195   13.7004828997   -3.2596564858
 13        -15.8129973902   -3.0735099286   13.7004840891   -3.2596643505
 14        -15.8129426040   -3.0735102506   13.7004842061   -3.2596684489
 15        -15.8129142203   -3.0735106556   13.7004840157   -3.2596705887
 16        -15.8128994940   -3.0735109855   13.7004837906   -3.2596717080
 17        -15.8128918425   -3.0735112169   13.7004836103   -3.2596722946
 18        -15.8128878614   -3.0735113674   13.7004834848   -3.2596726026
 19        -15.8128857871   -3.0735114608   13.7004834035   -3.2596727646
 20        -15.8128847048   -3.0735115170   13.7004833533   -3.2596728500
 21        -15.8128841394   -3.0735115501   13.7004833231   -3.2596728951
 22        -15.8128838436   -3.0735115693   13.7004833054   -3.2596729190
 23        -15.8128836887   -3.0735115802   13.7004832951   -3.2596729316
 24        -15.8128836074   -3.0735115864   13.7004832893   -3.2596729383
Atom SCF converged after  24 iterations to a total energy of    -15.81288361

========================== Calculation in vacuum ==============================
= Adjusting the following parameters: 
= is_implicit_solvent: F
= is_include_apolar: F
= write_denskern: T
= write_tightbox_ngwfs: T
= restart read filename prefix: ""
= restart write filename prefix: "vacuum_"
===============================================================================

Determining parallel strategy ...
... using space-filling curve
... NGWF load balancing: max    163;  min    162;  average    163
... Projector load balancing: max     36;  min     32;  average     33
... done
Calculating direct Ion-Ion energy ...
Ion-Ion Energy        :    822170.39789914246649
======================= Empirical dispersion information =======================
Model : Elstner
Dispersion Correction Energy: -0.32213321E+01 Hartree
================================================================================
Basis initialisation ...... NGWF spheres initialised
... Projector spheres initialised
... NGWF tight boxes initialised
... Tight-boxes gathered
... NGWF basis size (local,global):    1267617  50628595
... Nonlocal pseudopotential projector initialisation
... done

========================== Sparse matrix information ===========================
                        Overlap matrix filling:   6.65%
                        Density kernel filling: 100.00%
              NGWF-Proj overlap matrix filling:   1.77%
                    Hamiltonian matrix filling:   7.51%
                  NGWF diagonal matrix filling:   0.05%
                             KS matrix filling: 100.00% 
                           KSKS matrix filling: 100.00% 
================================================================================

Sparse matrix initialisation ... done

Generating smeared ion density ... done
Smeared ion self correction:     -14457.169564
Smeared ion non-self correction: -822122.220509
NGWF initialisation ...... done
============ Calculation of NGWF S^-1 using Hotelling algorithm ================ 
         Iteration  |  Frobenius norm and Maximum abs value    (of I-S*S_n^-1)   
               1       0.78530642E+02     0.98307261E+00
               2       0.76715710E+02     0.96654921E+00
               3       0.73764148E+02     0.93465283E+00
               4       0.69546812E+02     0.87508521E+00
               5       0.64271369E+02     0.77257710E+00
               6       0.58322432E+02     0.70394816E+00
               7       0.52313786E+02     0.67046452E+00
               8       0.46760095E+02     0.64525311E+00
               9       0.40752019E+02     0.60607328E+00
              10       0.32590578E+02     0.53883727E+00
              11       0.22086384E+02     0.43068358E+00
              12       0.11435014E+02     0.28723696E+00
              13       0.38538580E+01     0.13537272E+00
              14       0.63359086E+00     0.35127593E-01
              15       0.32256377E-01     0.27726506E-02
              16       0.19822338E-03     0.23068923E-04
              17       0.13309466E-07     0.21328190E-08
              18       0.98045624E-13     0.51070259E-14
================================================================================
Calculating local pseudopotential in open BC on the fine real space grid ...
... done

MG BCs: +ve charge blocks (gridpoints):     20538 (   16159027).
MG BCs: -ve charge blocks (gridpoints):      7975 (    1073627).
MG BCs:     Elided blocks (gridpoints):    183750 (  181945227).
MG BCs: Computational effort saved:  99.9857%.
MG BCs: Charge after coarse-graining:           -9.0002287.
MG DL_MG: Calling solver with defect correction order = 8
MG DL_MG: Solver finished
MG Hartree energy from (\int phi*rho dr):              1462.341141
MG Hartree energy from (\int eps (grad phi)^2 dr):     1461.728102
MG Discrepancy due to finite box and discretization:     -0.613040 (  -0.04192%)
MG Correction to account for finite box:                  0.459159
MG Remaining discrepancy, due to discretization:         -0.153881 (  -0.01052%)
Up spin density kernel initialisation ... 
======= Optimisation of K by Palser-Manolopoulos canonical purification ======== 
         Iteration  |  Band structure energy |    c_n   
               1       -2579.64535231809396    0.5265018
               2       -2755.52898160650784    0.5168595
               3       -2935.30540735056820    0.5155046
               4       -3084.79678147076720    0.5292853
               5       -3176.20449203010048    0.5653236
               6       -3214.22304406685134    0.6094509
               7       -3227.15492801682512    0.6196483
               8       -3232.80247901169787    0.6167984
               9       -3235.53314035596668    0.6274249
              10       -3236.66268994598704    0.6448022
              11       -3237.10151194921491    0.6437500
              12       -3237.29513986067468    0.6077626
              13       -3237.39436251142615    0.5275993
              14       -3237.44433742863930    0.4212993
              15       -3237.45228189762247    0.4117882
              16       -3237.45381081508594    0.4395772
              17       -3237.45506848661125    0.4545812
              18       -3237.45600575342360    0.4564919
              19       -3237.45656646400221    0.4752309
              20       -3237.45684704924861    0.4952399
              21       -3237.45692391845978    0.4998404
              22       -3237.45692865853744    0.5000002
              23       -3237.45692867548132    0.5000002
Termination criterion satisfied: band energy change below threshold.
Final occupancy bounds: [    0.00000000000000:    1.00000000000000]
Closest occupancy to 0.5:     1.00000000000000
================================================================================
... done

Writing density kernel to file "host_14921.vacuum_dkn" ... done

>>> Optimising kernel for current NGWFs:
   Initial electron number for spin 1:    7192.00000000
     Final electron number for spin 1:    7192.00000000

=================== Penalty functional idempotency correction ==================
 RMS occupancy error at iteration   1:  0.000000 (step -0.5000 Ne1=   7192.0000)
            Final RMS occupancy error   :  0.000000 (Ne1=   7192.0000)
               Final occupancy bounds   : [  0.0000,  1.0000]
================================================================================

................................................................................
<<<<<<<<<<<<<< LNV (Original version) density kernel optimisation >>>>>>>>>>>>>>
~~~~~~~~~~~~~~~~~~~~~~~~~~~~~~~~~~~~~~~~~~~~~~~~~~~~~~~~~~~~~~~~~~~~~~~~~~~~~~~~
   iter  |      energy (Eh)       | rms gradient |  commutator  |   dE (Eh)
MG BCs: +ve charge blocks (gridpoints):     31126 (   17319697).
MG BCs: -ve charge blocks (gridpoints):      8322 (    1106940).
MG BCs:     Elided blocks (gridpoints):    173155 (  180751244).
MG BCs: Computational effort saved:  99.9802%.
MG BCs: Charge after coarse-graining:           -9.0009487.
MG DL_MG: Calling solver with defect correction order = 8
MG DL_MG: Solver finished
MG Hartree energy from (\int phi*rho dr):              1417.177812
MG Hartree energy from (\int eps (grad phi)^2 dr):     1416.502166
MG Discrepancy due to finite box and discretization:     -0.675646 (  -0.04768%)
MG Correction to account for finite box:                  0.477667
MG Remaining discrepancy, due to discretization:         -0.197979 (  -0.01397%)
      ideal mu1:      -0.690102538591
             Q0:  -11505.756694759591
             G0:    -144.386350812352
   RMS gradient:       0.001847207866
MG BCs: +ve charge blocks (gridpoints):     31127 (   17405869).
MG BCs: -ve charge blocks (gridpoints):      8223 (    1086725).
MG BCs:     Elided blocks (gridpoints):    173153 (  180685287).
MG BCs: Computational effort saved:  99.9802%.
MG BCs: Charge after coarse-graining:           -9.0009699.
MG DL_MG: Calling solver with defect correction order = 8
MG DL_MG: Solver finished
MG Hartree energy from (\int phi*rho dr):              1442.402856
MG Hartree energy from (\int eps (grad phi)^2 dr):     1441.745477
MG Discrepancy due to finite box and discretization:     -0.657378 (  -0.04558%)
MG Correction to account for finite box:                  0.475676
MG Remaining discrepancy, due to discretization:         -0.181703 (  -0.01260%)
     Trial step:       0.500000000000
             Q1:  -11517.266752920812
 Quadratic coef:      60.683117244957
 Linear coef   :     -72.193175406176
           Qmin:  -11527.228295148001
Quadratic minimum step length (  0.297418700142) accepted
    Initial Ne1:    7192.00000000
      Final Ne1:    7192.00000000

=================== Penalty functional idempotency correction ==================
 RMS occupancy error at iteration   1:  0.003399 (step -0.4885 Ne1=   7192.0000)
 RMS occupancy error at iteration   2:  0.000027 (step -0.5001 Ne1=   7192.0000)
            Final RMS occupancy error   :  0.000000 (Ne1=   7192.0000)
               Final occupancy bounds   : [  0.0000,  1.0000]
================================================================================

    1        -1.150575669476E+04     1.8472E-03     1.6708E-03
MG BCs: +ve charge blocks (gridpoints):     31143 (   17372281).
MG BCs: -ve charge blocks (gridpoints):      8258 (    1095234).
MG BCs:     Elided blocks (gridpoints):    173138 (  180710366).
MG BCs: Computational effort saved:  99.9802%.
MG BCs: Charge after coarse-graining:           -9.0009617.
MG DL_MG: Calling solver with defect correction order = 8
MG DL_MG: Solver finished
MG Hartree energy from (\int phi*rho dr):              1424.288491
MG Hartree energy from (\int eps (grad phi)^2 dr):     1423.624679
MG Discrepancy due to finite box and discretization:     -0.663812 (  -0.04661%)
MG Correction to account for finite box:                  0.476381
MG Remaining discrepancy, due to discretization:         -0.187431 (  -0.01316%)
      ideal mu1:      -0.734762785379
             Q0:  -11527.627141900710
             G0:     -12.206393062417
   RMS gradient:       0.000533488277
MG BCs: +ve charge blocks (gridpoints):     31149 (   17390107).
MG BCs: -ve charge blocks (gridpoints):      8243 (    1089745).
MG BCs:     Elided blocks (gridpoints):    173130 (  180698029).
MG BCs: Computational effort saved:  99.9802%.
MG BCs: Charge after coarse-graining:           -9.0009652.
MG DL_MG: Calling solver with defect correction order = 8
MG DL_MG: Solver finished
MG Hartree energy from (\int phi*rho dr):              1429.482364
MG Hartree energy from (\int eps (grad phi)^2 dr):     1428.823119
MG Discrepancy due to finite box and discretization:     -0.659245 (  -0.04612%)
MG Correction to account for finite box:                  0.475061
MG Remaining discrepancy, due to discretization:         -0.184184 (  -0.01288%)
     Trial step:       0.385628513042
             Q1:  -11530.482783947489
 Quadratic coef:       1.851491159485
 Linear coef   :      -4.707133206264
           Qmin:  -11530.618933531474
Quadratic minimum step length (  0.490200768641) accepted
    Initial Ne1:    7191.99989598
      Final Ne1:    7192.00000000

=================== Penalty functional idempotency correction ==================
 RMS occupancy error at iteration   1:  0.001811 (step -0.4930 Ne1=   7192.0000)
 RMS occupancy error at iteration   2:  0.000012 (step -0.5002 Ne1=   7192.0000)
            Final RMS occupancy error   :  0.000000 (Ne1=   7192.0000)
               Final occupancy bounds   : [  0.0000,  1.0000]
================================================================================

    2        -1.152762714190E+04     5.3349E-04     4.8253E-04    -2.1870E+01
MG BCs: +ve charge blocks (gridpoints):     31149 (   17394636).
MG BCs: -ve charge blocks (gridpoints):      8239 (    1088339).
MG BCs:     Elided blocks (gridpoints):    173130 (  180694906).
MG BCs: Computational effort saved:  99.9802%.
MG BCs: Charge after coarse-graining:           -9.0009664.
MG DL_MG: Calling solver with defect correction order = 8
MG DL_MG: Solver finished
MG Hartree energy from (\int phi*rho dr):              1430.940415
MG Hartree energy from (\int eps (grad phi)^2 dr):     1430.282332
MG Discrepancy due to finite box and discretization:     -0.658083 (  -0.04599%)
MG Correction to account for finite box:                  0.474720
MG Remaining discrepancy, due to discretization:         -0.183363 (  -0.01281%)
      ideal mu1:      -0.760379220542
             Q0:  -11530.656283823308
             G0:      -1.945287216818
   RMS gradient:       0.000213032662
MG BCs: +ve charge blocks (gridpoints):     31146 (   17393867).
MG BCs: -ve charge blocks (gridpoints):      8244 (    1089441).
MG BCs:     Elided blocks (gridpoints):    173133 (  180694573).
MG BCs: Computational effort saved:  99.9802%.
MG BCs: Charge after coarse-graining:           -9.0009661.
MG DL_MG: Calling solver with defect correction order = 8
MG DL_MG: Solver finished
MG Hartree energy from (\int phi*rho dr):              1428.691749
MG Hartree energy from (\int eps (grad phi)^2 dr):     1428.034280
MG Discrepancy due to finite box and discretization:     -0.657469 (  -0.04602%)
MG Correction to account for finite box:                  0.474314
MG Remaining discrepancy, due to discretization:         -0.183156 (  -0.01282%)
     Trial step:       0.434782006876
             Q1:  -11531.150632371544
 Quadratic coef:       0.351427331841
 Linear coef   :      -0.845775880078
           Qmin:  -11531.165163451120
Quadratic minimum step length (  0.523192280720) accepted
    Initial Ne1:    7191.99992939
      Final Ne1:    7192.00000000

=================== Penalty functional idempotency correction ==================
 RMS occupancy error at iteration   1:  0.000634 (step -0.4972 Ne1=   7192.0000)
 RMS occupancy error at iteration   2:  0.000002 (step -0.5000 Ne1=   7192.0000)
            Final RMS occupancy error   :  0.000000 (Ne1=   7192.0000)
               Final occupancy bounds   : [  0.0000,  1.0000]
================================================================================

    3        -1.153065628382E+04     2.1303E-04     1.9268E-04    -3.0291E+00
MG BCs: +ve charge blocks (gridpoints):     31144 (   17393739).
MG BCs: -ve charge blocks (gridpoints):      8247 (    1089673).
MG BCs:     Elided blocks (gridpoints):    173135 (  180694469).
MG BCs: Computational effort saved:  99.9802%.
MG BCs: Charge after coarse-graining:           -9.0009660.
MG DL_MG: Calling solver with defect correction order = 8
MG DL_MG: Solver finished
MG Hartree energy from (\int phi*rho dr):              1428.243953
MG Hartree energy from (\int eps (grad phi)^2 dr):     1427.586598
MG Discrepancy due to finite box and discretization:     -0.657355 (  -0.04603%)
MG Correction to account for finite box:                  0.474232
MG Remaining discrepancy, due to discretization:         -0.183123 (  -0.01282%)
      ideal mu1:      -0.761913490082
             Q0:  -11531.169958243729
             G0:      -0.514749159589
   RMS gradient:       0.000109723365
MG BCs: +ve charge blocks (gridpoints):     31148 (   17394815).
MG BCs: -ve charge blocks (gridpoints):      8245 (    1089533).
MG BCs:     Elided blocks (gridpoints):    173131 (  180693533).
MG BCs: Computational effort saved:  99.9802%.
MG BCs: Charge after coarse-graining:           -9.0009661.
MG DL_MG: Calling solver with defect correction order = 8
MG DL_MG: Solver finished
MG Hartree energy from (\int phi*rho dr):              1429.464796
MG Hartree energy from (\int eps (grad phi)^2 dr):     1428.807478
MG Discrepancy due to finite box and discretization:     -0.657318 (  -0.04598%)
MG Correction to account for finite box:                  0.474077
MG Remaining discrepancy, due to discretization:         -0.183241 (  -0.01282%)
     Trial step:       0.476942962830
             Q1:  -11531.295876774471
 Quadratic coef:       0.119587458546
 Linear coef   :      -0.245505989289
           Qmin:  -11531.295960567695
Quadratic minimum step length (  0.489567866678) accepted
    Initial Ne1:    7191.99998234
      Final Ne1:    7192.00000000

=================== Penalty functional idempotency correction ==================
 RMS occupancy error at iteration   1:  0.000274 (step -0.4972 Ne1=   7192.0000)
 RMS occupancy error at iteration   2:  0.000002 (step -0.5000 Ne1=   7192.0000)
            Final RMS occupancy error   :  0.000000 (Ne1=   7192.0000)
               Final occupancy bounds   : [  0.0000,  1.0000]
================================================================================

    4        -1.153116995824E+04     1.0972E-04     9.9242E-05    -5.1367E-01
MG BCs: +ve charge blocks (gridpoints):     31148 (   17394864).
MG BCs: -ve charge blocks (gridpoints):      8245 (    1089516).
MG BCs:     Elided blocks (gridpoints):    173131 (  180693501).
MG BCs: Computational effort saved:  99.9802%.
MG BCs: Charge after coarse-graining:           -9.0009661.
MG DL_MG: Calling solver with defect correction order = 8
MG DL_MG: Solver finished
MG Hartree energy from (\int phi*rho dr):              1429.497601
MG Hartree energy from (\int eps (grad phi)^2 dr):     1428.840284
MG Discrepancy due to finite box and discretization:     -0.657317 (  -0.04598%)
MG Correction to account for finite box:                  0.474073
MG Remaining discrepancy, due to discretization:         -0.183244 (  -0.01282%)
      ideal mu1:      -0.762120420350
             Q0:  -11531.296605546726
             G0:      -0.188457752898
   RMS gradient:       0.000066568896
MG BCs: +ve charge blocks (gridpoints):     31150 (   17395066).
MG BCs: -ve charge blocks (gridpoints):      8245 (    1089295).
MG BCs:     Elided blocks (gridpoints):    173129 (  180693520).
MG BCs: Computational effort saved:  99.9802%.
MG BCs: Charge after coarse-graining:           -9.0009661.
MG DL_MG: Calling solver with defect correction order = 8
MG DL_MG: Solver finished
MG Hartree energy from (\int phi*rho dr):              1429.971431
MG Hartree energy from (\int eps (grad phi)^2 dr):     1429.313969
MG Discrepancy due to finite box and discretization:     -0.657461 (  -0.04598%)
MG Correction to account for finite box:                  0.474059
MG Remaining discrepancy, due to discretization:         -0.183403 (  -0.01283%)
     Trial step:       0.483214185263
             Q1:  -11531.355409971671
 Quadratic coef:       0.032261034577
 Linear coef   :      -0.091065459523
           Qmin:  -11531.360869743665
Quadratic minimum step length (  0.682001095213) accepted
    Initial Ne1:    7191.99999062
      Final Ne1:    7192.00000000

=================== Penalty functional idempotency correction ==================
 RMS occupancy error at iteration   1:  0.000403 (step -0.4813 Ne1=   7192.0000)
 RMS occupancy error at iteration   2:  0.000007 (step -0.5001 Ne1=   7192.0000)
            Final RMS occupancy error   :  0.000000 (Ne1=   7192.0000)
               Final occupancy bounds   : [  0.0000,  1.0000]
================================================================================

    5        -1.153129660555E+04     6.6569E-05     6.0210E-05    -1.2665E-01
MG BCs: +ve charge blocks (gridpoints):     31152 (   17395160).
MG BCs: -ve charge blocks (gridpoints):      8243 (    1089232).
MG BCs:     Elided blocks (gridpoints):    173127 (  180693489).
MG BCs: Computational effort saved:  99.9802%.
MG BCs: Charge after coarse-graining:           -9.0009661.
MG DL_MG: Calling solver with defect correction order = 8
MG DL_MG: Solver finished
MG Hartree energy from (\int phi*rho dr):              1430.165404
MG Hartree energy from (\int eps (grad phi)^2 dr):     1429.507882
MG Discrepancy due to finite box and discretization:     -0.657522 (  -0.04598%)
MG Correction to account for finite box:                  0.474054
MG Remaining discrepancy, due to discretization:         -0.183468 (  -0.01283%)
      ideal mu1:      -0.762263038819
             Q0:  -11531.360499140690
             G0:      -0.165860846945
   RMS gradient:       0.000062891732
MG BCs: +ve charge blocks (gridpoints):     31152 (   17394544).
MG BCs: -ve charge blocks (gridpoints):      8244 (    1089653).
MG BCs:     Elided blocks (gridpoints):    173127 (  180693684).
MG BCs: Computational effort saved:  99.9802%.
MG BCs: Charge after coarse-graining:           -9.0009657.
MG DL_MG: Calling solver with defect correction order = 8
MG DL_MG: Solver finished
MG Hartree energy from (\int phi*rho dr):              1428.950831
MG Hartree energy from (\int eps (grad phi)^2 dr):     1428.293259
MG Discrepancy due to finite box and discretization:     -0.657572 (  -0.04602%)
MG Correction to account for finite box:                  0.474100
MG Remaining discrepancy, due to discretization:         -0.183472 (  -0.01284%)
     Trial step:       0.574066723972
             Q1:  -11531.434227238526
 Quadratic coef:       0.021487095206
 Linear coef   :      -0.095215193041
           Qmin:  -11531.465980278310
Quadratic minimum step length (  1.271923296700) accepted
    Initial Ne1:    7191.99993418
      Final Ne1:    7192.00000000

=================== Penalty functional idempotency correction ==================
 RMS occupancy error at iteration   1:  0.003500 (step -0.3507 Ne1=   7192.0000)
 RMS occupancy error at iteration   2:  0.000215 (step -0.4963 Ne1=   7192.0000)
 RMS occupancy error at iteration   3:  0.000003 (step -0.5000 Ne1=   7192.0000)
            Final RMS occupancy error   :  0.000000 (Ne1=   7192.0000)
               Final occupancy bounds   : [  0.0000,  1.0000]
================================================================================

    6        -1.153136049914E+04     6.2892E-05     5.6884E-05    -6.3894E-02
MG BCs: +ve charge blocks (gridpoints):     31153 (   17393701).
MG BCs: -ve charge blocks (gridpoints):      8247 (    1090202).
MG BCs:     Elided blocks (gridpoints):    173126 (  180693978).
MG BCs: Computational effort saved:  99.9802%.
MG BCs: Charge after coarse-graining:           -9.0009654.
MG DL_MG: Calling solver with defect correction order = 8
MG DL_MG: Solver finished
MG Hartree energy from (\int phi*rho dr):              1427.477410
MG Hartree energy from (\int eps (grad phi)^2 dr):     1426.819799
MG Discrepancy due to finite box and discretization:     -0.657611 (  -0.04607%)
MG Correction to account for finite box:                  0.474137
MG Remaining discrepancy, due to discretization:         -0.183474 (  -0.01285%)
      ideal mu1:      -0.762716892208
             Q0:  -11531.445495294640
             G0:      -0.354887355073
   RMS gradient:       0.000091579435
MG BCs: +ve charge blocks (gridpoints):     31145 (   17396598).
MG BCs: -ve charge blocks (gridpoints):      8240 (    1088762).
MG BCs:     Elided blocks (gridpoints):    173134 (  180692521).
MG BCs: Computational effort saved:  99.9802%.
MG BCs: Charge after coarse-graining:           -9.0009664.
MG DL_MG: Calling solver with defect correction order = 8
MG DL_MG: Solver finished
MG Hartree energy from (\int phi*rho dr):              1430.971872
MG Hartree energy from (\int eps (grad phi)^2 dr):     1430.314474
MG Discrepancy due to finite box and discretization:     -0.657398 (  -0.04594%)
MG Correction to account for finite box:                  0.474149
MG Remaining discrepancy, due to discretization:         -0.183249 (  -0.01281%)
     Trial step:       0.854499175003
             Q1:  -11531.519057205762
 Quadratic coef:       0.229689041007
 Linear coef   :      -0.303250952129
           Qmin:  -11531.545588380888
Quadratic minimum step length (  0.564083700461) accepted
    Initial Ne1:    7191.99999889
      Final Ne1:    7192.00000000

=================== Penalty functional idempotency correction ==================
 RMS occupancy error at iteration   1:  0.000155 (step -0.4894 Ne1=   7192.0000)
 RMS occupancy error at iteration   2:  0.000001 (step -0.5000 Ne1=   7192.0000)
            Final RMS occupancy error   :  0.000000 (Ne1=   7192.0000)
               Final occupancy bounds   : [  0.0000,  1.0000]
================================================================================

    7        -1.153144549529E+04     9.1579E-05     8.2832E-05    -8.4996E-02
MG BCs: +ve charge blocks (gridpoints):     31146 (   17395624).
MG BCs: -ve charge blocks (gridpoints):      8245 (    1089264).
MG BCs:     Elided blocks (gridpoints):    173133 (  180692993).
MG BCs: Computational effort saved:  99.9802%.
MG BCs: Charge after coarse-graining:           -9.0009661.
MG DL_MG: Calling solver with defect correction order = 8
MG DL_MG: Solver finished
MG Hartree energy from (\int phi*rho dr):              1429.777181
MG Hartree energy from (\int eps (grad phi)^2 dr):     1429.119715
MG Discrepancy due to finite box and discretization:     -0.657466 (  -0.04598%)
MG Correction to account for finite box:                  0.474143
MG Remaining discrepancy, due to discretization:         -0.183323 (  -0.01282%)
      ideal mu1:      -0.763822924177
             Q0:  -11531.545924792532
             G0:      -0.248878631789
   RMS gradient:       0.000076608357
MG BCs: +ve charge blocks (gridpoints):     31147 (   17395827).
MG BCs: -ve charge blocks (gridpoints):      8241 (    1088990).
MG BCs:     Elided blocks (gridpoints):    173132 (  180693064).
MG BCs: Computational effort saved:  99.9802%.
MG BCs: Charge after coarse-graining:           -9.0009663.
MG DL_MG: Calling solver with defect correction order = 8
MG DL_MG: Solver finished
MG Hartree energy from (\int phi*rho dr):              1430.076690
MG Hartree energy from (\int eps (grad phi)^2 dr):     1429.419181
MG Discrepancy due to finite box and discretization:     -0.657509 (  -0.04598%)
MG Correction to account for finite box:                  0.474340
MG Remaining discrepancy, due to discretization:         -0.183169 (  -0.01281%)
     Trial step:       0.694268720796
             Q1:  -11531.649387805373
 Quadratic coef:       0.069325636485
 Linear coef   :      -0.172788649326
           Qmin:  -11531.653590292806
Quadratic minimum step length (  0.865204855073) accepted
    Initial Ne1:    7191.99999864
      Final Ne1:    7192.00000000

=================== Penalty functional idempotency correction ==================
 RMS occupancy error at iteration   1:  0.001500 (step -0.4094 Ne1=   7192.0000)
 RMS occupancy error at iteration   2:  0.000061 (step -0.4968 Ne1=   7192.0000)
 RMS occupancy error at iteration   3:  0.000000 (step -0.5000 Ne1=   7192.0000)
            Final RMS occupancy error   :  0.000000 (Ne1=   7192.0000)
               Final occupancy bounds   : [  0.0000,  1.0000]
================================================================================

    8        -1.153154592479E+04     7.6608E-05     6.9291E-05    -1.0043E-01
MG BCs: +ve charge blocks (gridpoints):     31148 (   17395853).
MG BCs: -ve charge blocks (gridpoints):      8241 (    1088923).
MG BCs:     Elided blocks (gridpoints):    173131 (  180693105).
MG BCs: Computational effort saved:  99.9802%.
MG BCs: Charge after coarse-graining:           -9.0009664.
MG DL_MG: Calling solver with defect correction order = 8
MG DL_MG: Solver finished
MG Hartree energy from (\int phi*rho dr):              1430.155976
MG Hartree energy from (\int eps (grad phi)^2 dr):     1429.498458
MG Discrepancy due to finite box and discretization:     -0.657518 (  -0.04598%)
MG Correction to account for finite box:                  0.474385
MG Remaining discrepancy, due to discretization:         -0.183133 (  -0.01281%)
      ideal mu1:      -0.763708971865
             Q0:  -11531.649655377259
             G0:      -0.282466497094
   RMS gradient:       0.000083508377
MG BCs: +ve charge blocks (gridpoints):     31149 (   17394834).
MG BCs: -ve charge blocks (gridpoints):      8244 (    1089471).
MG BCs:     Elided blocks (gridpoints):    173130 (  180693576).
MG BCs: Computational effort saved:  99.9802%.
MG BCs: Charge after coarse-graining:           -9.0009661.
MG DL_MG: Calling solver with defect correction order = 8
MG DL_MG: Solver finished
MG Hartree energy from (\int phi*rho dr):              1428.459597
MG Hartree energy from (\int eps (grad phi)^2 dr):     1427.801720
MG Discrepancy due to finite box and discretization:     -0.657877 (  -0.04605%)
MG Correction to account for finite box:                  0.474893
MG Remaining discrepancy, due to discretization:         -0.182984 (  -0.01281%)
     Trial step:       0.775038494501
             Q1:  -11531.717169501469
 Quadratic coef:       0.151408284444
 Linear coef   :      -0.218922408655
           Qmin:  -11531.728790777921
Quadratic minimum step length (  0.560317074589) accepted
    Initial Ne1:    7191.99999895
      Final Ne1:    7192.00000000

=================== Penalty functional idempotency correction ==================
 RMS occupancy error at iteration   1:  0.003231 (step -0.3404 Ne1=   7192.0000)
 RMS occupancy error at iteration   2:  0.000218 (step -0.4871 Ne1=   7192.0000)
 RMS occupancy error at iteration   3:  0.000003 (step -0.5000 Ne1=   7192.0000)
            Final RMS occupancy error   :  0.000000 (Ne1=   7192.0000)
               Final occupancy bounds   : [  0.0000,  1.0000]
================================================================================

    9        -1.153164965538E+04     8.3508E-05     7.5531E-05    -1.0373E-01
MG BCs: +ve charge blocks (gridpoints):     31147 (   17395158).
MG BCs: -ve charge blocks (gridpoints):      8244 (    1089298).
MG BCs:     Elided blocks (gridpoints):    173132 (  180693425).
MG BCs: Computational effort saved:  99.9802%.
MG BCs: Charge after coarse-graining:           -9.0009661.
MG DL_MG: Calling solver with defect correction order = 8
MG DL_MG: Solver finished
MG Hartree energy from (\int phi*rho dr):              1428.926263
MG Hartree energy from (\int eps (grad phi)^2 dr):     1428.268481
MG Discrepancy due to finite box and discretization:     -0.657783 (  -0.04603%)
MG Correction to account for finite box:                  0.474765
MG Remaining discrepancy, due to discretization:         -0.183018 (  -0.01281%)
      ideal mu1:      -0.762630476351
   10        -1.153173275914E+04     6.7485E-05     6.1039E-05    -8.3104E-02
Finished density kernel iterations (  10)

Writing density kernel to file "host_14921.vacuum_dkn" ... done


>>> Density kernel optimised for the current NGWF basis:
     ~~~~~~~~~~~~~~~~~~~~~~~~~~~~~~~~~~~~~~~~~~~~~~~~~~~~~~~~~~~
     Total energy                =  -1.15317327591443E+04  Eh
     Estimated bandgap           =  -4.6864E-01  Eh
     RMS occupancy error         =   8.5279E-10
     [H,K] commutator            =   6.1039E-05
     Occupancy bounds            = [  0.000:  1.000]
     ~~~~~~~~~~~~~~~~~~~~~~~~~~~~~~~~~~~~~~~~~~~~~~~~~~~~~~~~~~~




################################################################################
########################### NGWF CG iteration  001 #############################
################################################################################
****** Reciprocal space K.E. preconditioning with k_zero =  3.5000 a0^-1 *******

>>> Checking for convergence of NGWFs:   NOT CONVERGED
  ========================================================================
         NGWF RMS gradient =  1.6044E-03 >  2.0000E-06  | above tolerance
  ========================================================================

>>> Improving NGWFs using line search:
============ Calculation of NGWF S^-1 using Hotelling algorithm ================ 
         Iteration  |  Frobenius norm and Maximum abs value    (of I-S*S_n^-1)   
               1       0.19988783E+00     0.52507379E-02
               2       0.94090210E-03     0.42633142E-04
               3       0.36844384E-07     0.29037533E-08
               4       0.12779364E-12     0.57731597E-14
================================================================================
MG BCs: +ve charge blocks (gridpoints):     30689 (   17338799).
MG BCs: -ve charge blocks (gridpoints):      8251 (    1089264).
MG BCs:     Elided blocks (gridpoints):    173590 (  180749818).
MG BCs: Computational effort saved:  99.9804%.
MG BCs: Charge after coarse-graining:           -9.0009732.
MG DL_MG: Calling solver with defect correction order = 8
MG DL_MG: Solver finished
MG Hartree energy from (\int phi*rho dr):              1397.048781
MG Hartree energy from (\int eps (grad phi)^2 dr):     1396.392020
MG Discrepancy due to finite box and discretization:     -0.656761 (  -0.04701%)
MG Correction to account for finite box:                  0.474627
MG Remaining discrepancy, due to discretization:         -0.182134 (  -0.01304%)
============ Calculation of NGWF S^-1 using Hotelling algorithm ================ 
         Iteration  |  Frobenius norm and Maximum abs value    (of I-S*S_n^-1)   
               1       0.18482438E+01     0.41580118E-01
               2       0.71489333E-01     0.24456146E-02
               3       0.15140374E-03     0.11069706E-04
               4       0.16632229E-08     0.30202011E-09
               5       0.10853612E-12     0.55511151E-14
================================================================================
------------------------------- NGWF line search -------------------------------
RMS gradient                =       0.00160439763180
Trial step length           =               0.122474
Gradient along search dir.  =       -278.43224684143
Functional at step 0        =  -11531.73275914427359
Functional at step 1        =  -11563.20973437605426
Functional predicted        =  -11642.52970405471751
Selected quadratic step     =               0.795863
--------------------------- NGWF line search finished --------------------------
                                               
Writing NGWFs to file "host_14921.vacuum_tightbox_ngwfs"....  done

>>> Optimising kernel for current NGWFs:
   Initial electron number for spin 1:    7226.84733811
     Final electron number for spin 1:    7192.00000000

=================== Penalty functional idempotency correction ==================
 RMS occupancy error at iteration   1:  0.004328 (step -0.4859 Ne1=   7192.0000)
 RMS occupancy error at iteration   2:  0.000070 (step -0.5002 Ne1=   7192.0000)
            Final RMS occupancy error   :  0.000000 (Ne1=   7192.0000)
               Final occupancy bounds   : [  0.0000,  1.0000]
================================================================================

................................................................................
<<<<<<<<<<<<<< LNV (Original version) density kernel optimisation >>>>>>>>>>>>>>
~~~~~~~~~~~~~~~~~~~~~~~~~~~~~~~~~~~~~~~~~~~~~~~~~~~~~~~~~~~~~~~~~~~~~~~~~~~~~~~~
   iter  |      energy (Eh)       | rms gradient |  commutator  |   dE (Eh)
MG BCs: +ve charge blocks (gridpoints):     24747 (   17044604).
MG BCs: -ve charge blocks (gridpoints):      8376 (    1073224).
MG BCs:     Elided blocks (gridpoints):    179541 (  181060053).
MG BCs: Computational effort saved:  99.9834%.
MG BCs: Charge after coarse-graining:           -9.0006727.
MG DL_MG: Calling solver with defect correction order = 8
MG DL_MG: Solver finished
MG Hartree energy from (\int phi*rho dr):              1243.788593
MG Hartree energy from (\int eps (grad phi)^2 dr):     1243.132640
MG Discrepancy due to finite box and discretization:     -0.655953 (  -0.05274%)
MG Correction to account for finite box:                  0.473958
MG Remaining discrepancy, due to discretization:         -0.181994 (  -0.01463%)
      ideal mu1:      -0.703707672179
             Q0:  -11641.744585717213
             G0:      -9.678294540317
   RMS gradient:       0.000478246848
MG BCs: +ve charge blocks (gridpoints):     24818 (   17057383).
MG BCs: -ve charge blocks (gridpoints):      8356 (    1070187).
MG BCs:     Elided blocks (gridpoints):    179470 (  181050311).
MG BCs: Computational effort saved:  99.9833%.
MG BCs: Charge after coarse-graining:           -9.0006690.
MG DL_MG: Calling solver with defect correction order = 8
MG DL_MG: Solver finished
MG Hartree energy from (\int phi*rho dr):              1257.544653
MG Hartree energy from (\int eps (grad phi)^2 dr):     1256.884131
MG Discrepancy due to finite box and discretization:     -0.660522 (  -0.05252%)
MG Correction to account for finite box:                  0.473090
MG Remaining discrepancy, due to discretization:         -0.187432 (  -0.01490%)
     Trial step:       0.658989606847
             Q1:  -11641.773779051611
 Quadratic coef:       6.348702179675
 Linear coef   :      -6.377895514074
           Qmin:  -11643.346391489371
Quadratic minimum step length (  0.331009924421) accepted
    Initial Ne1:    7191.99960818
      Final Ne1:    7192.00000000

=================== Penalty functional idempotency correction ==================
 RMS occupancy error at iteration   1:  0.000352 (step -0.4986 Ne1=   7192.0000)
 RMS occupancy error at iteration   2:  0.000000 (step -0.5000 Ne1=   7192.0000)
            Final RMS occupancy error   :  0.000000 (Ne1=   7192.0000)
               Final occupancy bounds   : [  0.0000,  1.0000]
================================================================================

    1        -1.164174458572E+04     4.7825E-04     4.3256E-04
MG BCs: +ve charge blocks (gridpoints):     24785 (   17051196).
MG BCs: -ve charge blocks (gridpoints):      8370 (    1071654).
MG BCs:     Elided blocks (gridpoints):    179503 (  181055031).
MG BCs: Computational effort saved:  99.9834%.
MG BCs: Charge after coarse-graining:           -9.0006708.
MG DL_MG: Calling solver with defect correction order = 8
MG DL_MG: Solver finished
MG Hartree energy from (\int phi*rho dr):              1249.912750
MG Hartree energy from (\int eps (grad phi)^2 dr):     1249.254587
MG Discrepancy due to finite box and discretization:     -0.658163 (  -0.05266%)
MG Correction to account for finite box:                  0.473499
MG Remaining discrepancy, due to discretization:         -0.184663 (  -0.01477%)
      ideal mu1:      -0.710010935164
             Q0:  -11643.326129295165
             G0:      -1.045008627624
   RMS gradient:       0.000157589509
MG BCs: +ve charge blocks (gridpoints):     24783 (   17050305).
MG BCs: -ve charge blocks (gridpoints):      8372 (    1072668).
MG BCs:     Elided blocks (gridpoints):    179505 (  181054908).
MG BCs: Computational effort saved:  99.9834%.
MG BCs: Charge after coarse-graining:           -9.0006708.
MG DL_MG: Calling solver with defect correction order = 8
MG DL_MG: Solver finished
MG Hartree energy from (\int phi*rho dr):              1250.799863
MG Hartree energy from (\int eps (grad phi)^2 dr):     1250.141364
MG Discrepancy due to finite box and discretization:     -0.658499 (  -0.05265%)
MG Correction to account for finite box:                  0.473417
MG Remaining discrepancy, due to discretization:         -0.185082 (  -0.01480%)
     Trial step:       0.467046143284
             Q1:  -11643.553043485619
 Quadratic coef:       0.261153058776
 Linear coef   :      -0.488067249231
           Qmin:  -11643.554165720325
Quadratic minimum step length (  0.436429746380) accepted
    Initial Ne1:    7191.99994390
      Final Ne1:    7192.00000000

=================== Penalty functional idempotency correction ==================
 RMS occupancy error at iteration   1:  0.000166 (step -0.4988 Ne1=   7192.0000)
 RMS occupancy error at iteration   2:  0.000000 (step -0.5000 Ne1=   7192.0000)
            Final RMS occupancy error   :  0.000000 (Ne1=   7192.0000)
               Final occupancy bounds   : [  0.0000,  1.0000]
================================================================================

    2        -1.164332612930E+04     1.5759E-04     1.4254E-04    -1.5815E+00
MG BCs: +ve charge blocks (gridpoints):     24783 (   17050324).
MG BCs: -ve charge blocks (gridpoints):      8372 (    1072615).
MG BCs:     Elided blocks (gridpoints):    179505 (  181054942).
MG BCs: Computational effort saved:  99.9834%.
MG BCs: Charge after coarse-graining:           -9.0006708.
MG DL_MG: Calling solver with defect correction order = 8
MG DL_MG: Solver finished
MG Hartree energy from (\int phi*rho dr):              1250.741788
MG Hartree energy from (\int eps (grad phi)^2 dr):     1250.083312
MG Discrepancy due to finite box and discretization:     -0.658476 (  -0.05265%)
MG Correction to account for finite box:                  0.473422
MG Remaining discrepancy, due to discretization:         -0.185054 (  -0.01480%)
      ideal mu1:      -0.710612998921
             Q0:  -11643.554647261859
             G0:      -0.180797592048
   RMS gradient:       0.000065296753
MG BCs: +ve charge blocks (gridpoints):     24782 (   17049553).
MG BCs: -ve charge blocks (gridpoints):      8373 (    1072944).
MG BCs:     Elided blocks (gridpoints):    179506 (  181055384).
MG BCs: Computational effort saved:  99.9834%.
MG BCs: Charge after coarse-graining:           -9.0006709.
MG DL_MG: Calling solver with defect correction order = 8
MG DL_MG: Solver finished
MG Hartree energy from (\int phi*rho dr):              1250.166879
MG Hartree energy from (\int eps (grad phi)^2 dr):     1249.508505
MG Discrepancy due to finite box and discretization:     -0.658373 (  -0.05266%)
MG Correction to account for finite box:                  0.473340
MG Remaining discrepancy, due to discretization:         -0.185033 (  -0.01480%)
     Trial step:       0.451478493244
             Q1:  -11643.611840658006
 Quadratic coef:       0.024432828293
 Linear coef   :      -0.081626224440
           Qmin:  -11643.622822346179
Quadratic minimum step length (  0.754159206965) accepted
    Initial Ne1:    7191.99998334
      Final Ne1:    7192.00000000

=================== Penalty functional idempotency correction ==================
 RMS occupancy error at iteration   1:  0.000219 (step -0.4880 Ne1=   7192.0000)
 RMS occupancy error at iteration   2:  0.000003 (step -0.5000 Ne1=   7192.0000)
            Final RMS occupancy error   :  0.000000 (Ne1=   7192.0000)
               Final occupancy bounds   : [  0.0000,  1.0000]
================================================================================

    3        -1.164355464726E+04     6.5297E-05     5.9059E-05    -2.2852E-01
MG BCs: +ve charge blocks (gridpoints):     24783 (   17049006).
MG BCs: -ve charge blocks (gridpoints):      8375 (    1073194).
MG BCs:     Elided blocks (gridpoints):    179505 (  181055681).
MG BCs: Computational effort saved:  99.9834%.
MG BCs: Charge after coarse-graining:           -9.0006709.
MG DL_MG: Calling solver with defect correction order = 8
MG DL_MG: Solver finished
MG Hartree energy from (\int phi*rho dr):              1249.781278
MG Hartree energy from (\int eps (grad phi)^2 dr):     1249.122973
MG Discrepancy due to finite box and discretization:     -0.658305 (  -0.05267%)
MG Correction to account for finite box:                  0.473285
MG Remaining discrepancy, due to discretization:         -0.185020 (  -0.01480%)
      ideal mu1:      -0.709172832002
             Q0:  -11643.622778745485
             G0:      -0.081909282095
   RMS gradient:       0.000044004474
MG BCs: +ve charge blocks (gridpoints):     24785 (   17049017).
MG BCs: -ve charge blocks (gridpoints):      8373 (    1073203).
MG BCs:     Elided blocks (gridpoints):    179503 (  181055661).
MG BCs: Computational effort saved:  99.9834%.
MG BCs: Charge after coarse-graining:           -9.0006709.
MG DL_MG: Calling solver with defect correction order = 8
MG DL_MG: Solver finished
MG Hartree energy from (\int phi*rho dr):              1249.825511
MG Hartree energy from (\int eps (grad phi)^2 dr):     1249.167426
MG Discrepancy due to finite box and discretization:     -0.658084 (  -0.05265%)
MG Correction to account for finite box:                  0.473205
MG Remaining discrepancy, due to discretization:         -0.184879 (  -0.01479%)
     Trial step:       0.583512349849
             Q1:  -11643.652810878586
 Quadratic coef:       0.017762944568
 Linear coef   :      -0.047795077669
           Qmin:  -11643.654929516444
Quadratic minimum step length (  0.785033640550) accepted
    Initial Ne1:    7191.99999131
      Final Ne1:    7192.00000000

=================== Penalty functional idempotency correction ==================
 RMS occupancy error at iteration   1:  0.000425 (step -0.4727 Ne1=   7192.0000)
 RMS occupancy error at iteration   2:  0.000006 (step -0.4998 Ne1=   7192.0000)
            Final RMS occupancy error   :  0.000000 (Ne1=   7192.0000)
               Final occupancy bounds   : [ -0.0000,  1.0000]
================================================================================

    4        -1.164362277875E+04     4.4004E-05     3.9801E-05    -6.8131E-02
MG BCs: +ve charge blocks (gridpoints):     24786 (   17049017).
MG BCs: -ve charge blocks (gridpoints):      8371 (    1073187).
MG BCs:     Elided blocks (gridpoints):    179502 (  181055677).
MG BCs: Computational effort saved:  99.9834%.
MG BCs: Charge after coarse-graining:           -9.0006710.
MG DL_MG: Calling solver with defect correction order = 8
MG DL_MG: Solver finished
MG Hartree energy from (\int phi*rho dr):              1249.842392
MG Hartree energy from (\int eps (grad phi)^2 dr):     1249.184386
MG Discrepancy due to finite box and discretization:     -0.658006 (  -0.05265%)
MG Correction to account for finite box:                  0.473175
MG Remaining discrepancy, due to discretization:         -0.184831 (  -0.01479%)
      ideal mu1:      -0.709455152886
             Q0:  -11643.654850162216
             G0:      -0.080766209926
   RMS gradient:       0.000043694680
MG BCs: +ve charge blocks (gridpoints):     24784 (   17050737).
MG BCs: -ve charge blocks (gridpoints):      8368 (    1072591).
MG BCs:     Elided blocks (gridpoints):    179504 (  181054553).
MG BCs: Computational effort saved:  99.9834%.
MG BCs: Charge after coarse-graining:           -9.0006706.
MG DL_MG: Calling solver with defect correction order = 8
MG DL_MG: Solver finished
MG Hartree energy from (\int phi*rho dr):              1250.858291
MG Hartree energy from (\int eps (grad phi)^2 dr):     1250.200595
MG Discrepancy due to finite box and discretization:     -0.657696 (  -0.05258%)
MG Correction to account for finite box:                  0.472953
MG Remaining discrepancy, due to discretization:         -0.184743 (  -0.01477%)
     Trial step:       0.676813729402
             Q1:  -11643.685054869042
 Quadratic coef:       0.024458972925
 Linear coef   :      -0.054663679750
           Qmin:  -11643.685392306126
Quadratic minimum step length (  0.756309945398) accepted
    Initial Ne1:    7192.00001798
      Final Ne1:    7192.00000000

=================== Penalty functional idempotency correction ==================
 RMS occupancy error at iteration   1:  0.001122 (step -0.4349 Ne1=   7192.0000)
 RMS occupancy error at iteration   2:  0.000034 (step -0.4987 Ne1=   7192.0000)
            Final RMS occupancy error   :  0.000000 (Ne1=   7192.0000)
               Final occupancy bounds   : [ -0.0000,  1.0000]
================================================================================

    5        -1.164365485016E+04     4.3695E-05     3.9521E-05    -3.2071E-02
MG BCs: +ve charge blocks (gridpoints):     24784 (   17050930).
MG BCs: -ve charge blocks (gridpoints):      8367 (    1072523).
MG BCs:     Elided blocks (gridpoints):    179504 (  181054428).
MG BCs: Computational effort saved:  99.9834%.
MG BCs: Charge after coarse-graining:           -9.0006706.
MG DL_MG: Calling solver with defect correction order = 8
MG DL_MG: Solver finished
MG Hartree energy from (\int phi*rho dr):              1250.979016
MG Hartree energy from (\int eps (grad phi)^2 dr):     1250.321353
MG Discrepancy due to finite box and discretization:     -0.657663 (  -0.05257%)
MG Correction to account for finite box:                  0.472931
MG Remaining discrepancy, due to discretization:         -0.184732 (  -0.01477%)
      ideal mu1:      -0.710650630190
             Q0:  -11643.686188758351
             G0:      -0.062750793843
   RMS gradient:       0.000037606683
MG BCs: +ve charge blocks (gridpoints):     24785 (   17051027).
MG BCs: -ve charge blocks (gridpoints):      8368 (    1072561).
MG BCs:     Elided blocks (gridpoints):    179503 (  181054293).
MG BCs: Computational effort saved:  99.9834%.
MG BCs: Charge after coarse-graining:           -9.0006706.
MG DL_MG: Calling solver with defect correction order = 8
MG DL_MG: Solver finished
MG Hartree energy from (\int phi*rho dr):              1250.761689
MG Hartree energy from (\int eps (grad phi)^2 dr):     1250.104307
MG Discrepancy due to finite box and discretization:     -0.657382 (  -0.05256%)
MG Correction to account for finite box:                  0.472616
MG Remaining discrepancy, due to discretization:         -0.184766 (  -0.01477%)
     Trial step:       0.715458562552
             Q1:  -11643.713366329786
 Quadratic coef:       0.017718021327
 Linear coef   :      -0.044895592762
           Qmin:  -11643.714628929692
Quadratic minimum step length (  0.906448176965) accepted
    Initial Ne1:    7192.00075684
      Final Ne1:    7192.00000000

=================== Penalty functional idempotency correction ==================
 RMS occupancy error at iteration   1:  0.001994 (step -0.3998 Ne1=   7192.0000)
 RMS occupancy error at iteration   2:  0.000079 (step -0.4976 Ne1=   7192.0000)
 RMS occupancy error at iteration   3:  0.000001 (step -0.5000 Ne1=   7192.0000)
            Final RMS occupancy error   :  0.000000 (Ne1=   7192.0000)
               Final occupancy bounds   : [  0.0000,  1.0000]
================================================================================

    6        -1.164368618876E+04     3.7607E-05     3.4014E-05    -3.1339E-02
MG BCs: +ve charge blocks (gridpoints):     24785 (   17051022).
MG BCs: -ve charge blocks (gridpoints):      8369 (    1072603).
MG BCs:     Elided blocks (gridpoints):    179503 (  181054256).
MG BCs: Computational effort saved:  99.9834%.
MG BCs: Charge after coarse-graining:           -9.0006706.
MG DL_MG: Calling solver with defect correction order = 8
MG DL_MG: Solver finished
MG Hartree energy from (\int phi*rho dr):              1250.705814
MG Hartree energy from (\int eps (grad phi)^2 dr):     1250.048480
MG Discrepancy due to finite box and discretization:     -0.657333 (  -0.05256%)
MG Correction to account for finite box:                  0.472558
MG Remaining discrepancy, due to discretization:         -0.184775 (  -0.01477%)
      ideal mu1:      -0.710653037527
             Q0:  -11643.717254848918
             G0:      -0.052719883034
   RMS gradient:       0.000035297173
MG BCs: +ve charge blocks (gridpoints):     24787 (   17049162).
MG BCs: -ve charge blocks (gridpoints):      8373 (    1073160).
MG BCs:     Elided blocks (gridpoints):    179501 (  181055559).
MG BCs: Computational effort saved:  99.9834%.
MG BCs: Charge after coarse-graining:           -9.0006709.
MG DL_MG: Calling solver with defect correction order = 8
MG DL_MG: Solver finished
MG Hartree energy from (\int phi*rho dr):              1249.845858
MG Hartree energy from (\int eps (grad phi)^2 dr):     1249.188570
MG Discrepancy due to finite box and discretization:     -0.657288 (  -0.05259%)
MG Correction to account for finite box:                  0.472482
MG Remaining discrepancy, due to discretization:         -0.184806 (  -0.01479%)
     Trial step:       0.805311188125
             Q1:  -11643.731714746449
 Quadratic coef:       0.027996014112
 Linear coef   :      -0.042455911644
           Qmin:  -11643.733350929830
Quadratic minimum step length (  0.610626579045) accepted
    Initial Ne1:    7191.99999998
      Final Ne1:    7192.00000000

=================== Penalty functional idempotency correction ==================
 RMS occupancy error at iteration   1:  0.000033 (step -0.4981 Ne1=   7192.0000)
            Final RMS occupancy error   :  0.000000 (Ne1=   7192.0000)
               Final occupancy bounds   : [ -0.0000,  1.0000]
================================================================================

    7        -1.164371725485E+04     3.5297E-05     3.1925E-05    -3.1066E-02
MG BCs: +ve charge blocks (gridpoints):     24786 (   17049613).
MG BCs: -ve charge blocks (gridpoints):      8372 (    1073017).
MG BCs:     Elided blocks (gridpoints):    179502 (  181055251).
MG BCs: Computational effort saved:  99.9834%.
MG BCs: Charge after coarse-graining:           -9.0006708.
MG DL_MG: Calling solver with defect correction order = 8
MG DL_MG: Solver finished
MG Hartree energy from (\int phi*rho dr):              1250.052375
MG Hartree energy from (\int eps (grad phi)^2 dr):     1249.395075
MG Discrepancy due to finite box and discretization:     -0.657300 (  -0.05258%)
MG Correction to account for finite box:                  0.472502
MG Remaining discrepancy, due to discretization:         -0.184798 (  -0.01478%)
      ideal mu1:      -0.710048113228
             Q0:  -11643.733357962337
             G0:      -0.042436574561
   RMS gradient:       0.000031661766
MG BCs: +ve charge blocks (gridpoints):     24785 (   17049426).
MG BCs: -ve charge blocks (gridpoints):      8373 (    1073061).
MG BCs:     Elided blocks (gridpoints):    179503 (  181055394).
MG BCs: Computational effort saved:  99.9834%.
MG BCs: Charge after coarse-graining:           -9.0006709.
MG DL_MG: Calling solver with defect correction order = 8
MG DL_MG: Solver finished
MG Hartree energy from (\int phi*rho dr):              1249.905620
MG Hartree energy from (\int eps (grad phi)^2 dr):     1249.248467
MG Discrepancy due to finite box and discretization:     -0.657153 (  -0.05258%)
MG Correction to account for finite box:                  0.472284
MG Remaining discrepancy, due to discretization:         -0.184869 (  -0.01479%)
     Trial step:       0.701244904346
             Q1:  -11643.753101405571
 Quadratic coef:       0.010014988435
[...]
MG Hartree energy from (\int phi*rho dr):              1207.930788
MG Hartree energy from (\int eps (grad phi)^2 dr):     1207.740211
MG Discrepancy due to finite box and discretization:     -0.190577 (  -0.01578%)
MG Correction to account for finite box:                  0.006287
MG Remaining discrepancy, due to discretization:         -0.184290 (  -0.01526%)
     Trial step:       0.335800201999
             Q1:  -11678.612346480717
 Quadratic coef:       0.000000001024
 Linear coef   :      -0.000000000675
           Qmin:  -11678.612346481177
Quadratic minimum step length (  0.110589062870) accepted
    Initial Ne1:    7192.00000000
      Final Ne1:    7192.00000000

=================== Penalty functional idempotency correction ==================
 RMS occupancy error at iteration   1:  0.000000 (step -0.5000 Ne1=   7192.0000)
            Final RMS occupancy error   :  0.000000 (Ne1=   7192.0000)
               Final occupancy bounds   : [  0.0000,  1.0000]
================================================================================

    7        -1.167861234648E+04     5.0865E-09     4.6006E-09     0.0000E+00

Reusing previously generated solute cavity.
MG BCs: +ve charge blocks (gridpoints):     29367 (   19269600).
MG BCs: -ve charge blocks (gridpoints):      8345 (    1041756).
MG BCs:     Elided blocks (gridpoints):    174921 (  178866525).
MG BCs: Computational effort saved:  99.9811%.
MG BCs: Charge after coarse-graining:           -9.0009544.
MG DL_MG: Calling solver with defect correction order = 8
MG DL_MG: Solver finished
MG Hartree energy from (\int phi*rho dr):              1207.930808
MG Hartree energy from (\int eps (grad phi)^2 dr):     1207.740231
MG Discrepancy due to finite box and discretization:     -0.190577 (  -0.01578%)
MG Correction to account for finite box:                  0.006287
MG Remaining discrepancy, due to discretization:         -0.184290 (  -0.01526%)
      ideal mu1:      -0.481075944776
             Q0:  -11678.612346481183
             G0:      -0.000000001694
   RMS gradient:       0.000000004061

Reusing previously generated solute cavity.
MG BCs: +ve charge blocks (gridpoints):     29367 (   19269600).
MG BCs: -ve charge blocks (gridpoints):      8345 (    1041756).
MG BCs:     Elided blocks (gridpoints):    174921 (  178866525).
MG BCs: Computational effort saved:  99.9811%.
MG BCs: Charge after coarse-graining:           -9.0009544.
MG DL_MG: Calling solver with defect correction order = 8
MG DL_MG: Solver finished
MG Hartree energy from (\int phi*rho dr):              1207.930788
MG Hartree energy from (\int eps (grad phi)^2 dr):     1207.740211
MG Discrepancy due to finite box and discretization:     -0.190577 (  -0.01578%)
MG Correction to account for finite box:                  0.006287
MG Remaining discrepancy, due to discretization:         -0.184290 (  -0.01526%)
     Trial step:       0.192706589536
             Q1:  -11678.612346480950
 Quadratic coef:       0.000000000558
 Linear coef   :      -0.000000000326
           Qmin:  -11678.612346481230
Quadratic minimum step length (  0.056315674202) accepted
    Initial Ne1:    7192.00000000
      Final Ne1:    7192.00000000

=================== Penalty functional idempotency correction ==================
 RMS occupancy error at iteration   1:  0.000000 (step -0.5000 Ne1=   7192.0000)
            Final RMS occupancy error   :  0.000000 (Ne1=   7192.0000)
               Final occupancy bounds   : [ -0.0000,  1.0000]
================================================================================

    8        -1.167861234648E+04     4.0614E-09     3.6734E-09    -1.1642E-10

Reusing previously generated solute cavity.
MG BCs: +ve charge blocks (gridpoints):     29367 (   19269600).
MG BCs: -ve charge blocks (gridpoints):      8345 (    1041756).
MG BCs:     Elided blocks (gridpoints):    174921 (  178866525).
MG BCs: Computational effort saved:  99.9811%.
MG BCs: Charge after coarse-graining:           -9.0009544.
MG DL_MG: Calling solver with defect correction order = 8
MG DL_MG: Solver finished
MG Hartree energy from (\int phi*rho dr):              1207.930802
MG Hartree energy from (\int eps (grad phi)^2 dr):     1207.740225
MG Discrepancy due to finite box and discretization:     -0.190577 (  -0.01578%)
MG Correction to account for finite box:                  0.006287
MG Remaining discrepancy, due to discretization:         -0.184290 (  -0.01526%)
      ideal mu1:      -0.481075939120
             Q0:  -11678.612346481066
             G0:      -0.000000001624
   RMS gradient:       0.000000003528

Reusing previously generated solute cavity.
MG BCs: +ve charge blocks (gridpoints):     29367 (   19269600).
MG BCs: -ve charge blocks (gridpoints):      8345 (    1041756).
MG BCs:     Elided blocks (gridpoints):    174921 (  178866525).
MG BCs: Computational effort saved:  99.9811%.
MG BCs: Charge after coarse-graining:           -9.0009544.
MG DL_MG: Calling solver with defect correction order = 8
MG DL_MG: Solver finished
MG Hartree energy from (\int phi*rho dr):              1207.930790
MG Hartree energy from (\int eps (grad phi)^2 dr):     1207.740213
MG Discrepancy due to finite box and discretization:     -0.190577 (  -0.01578%)
MG Correction to account for finite box:                  0.006287
MG Remaining discrepancy, due to discretization:         -0.184290 (  -0.01526%)
     Trial step:       0.104174860273
             Q1:  -11678.612346480950
 Quadratic coef:       0.000000000286
 Linear coef   :      -0.000000000169
           Qmin:  -11678.612346481092
Quadratic minimum step length (  0.030851010604) accepted
    Initial Ne1:    7192.00000000
      Final Ne1:    7192.00000000

=================== Penalty functional idempotency correction ==================
 RMS occupancy error at iteration   1:  0.000000 (step -0.5000 Ne1=   7192.0000)
            Final RMS occupancy error   :  0.000000 (Ne1=   7192.0000)
               Final occupancy bounds   : [ -0.0000,  1.0000]
================================================================================

    9        -1.167861234648E+04     3.5284E-09     3.1914E-09     1.1642E-10

Reusing previously generated solute cavity.
MG BCs: +ve charge blocks (gridpoints):     29367 (   19269600).
MG BCs: -ve charge blocks (gridpoints):      8345 (    1041756).
MG BCs:     Elided blocks (gridpoints):    174921 (  178866525).
MG BCs: Computational effort saved:  99.9811%.
MG BCs: Charge after coarse-graining:           -9.0009544.
MG DL_MG: Calling solver with defect correction order = 8
MG DL_MG: Solver finished
MG Hartree energy from (\int phi*rho dr):              1207.930799
MG Hartree energy from (\int eps (grad phi)^2 dr):     1207.740222
MG Discrepancy due to finite box and discretization:     -0.190577 (  -0.01578%)
MG Correction to account for finite box:                  0.006287
MG Remaining discrepancy, due to discretization:         -0.184290 (  -0.01526%)
      ideal mu1:      -0.481075935605
   10        -1.167861234648E+04     3.2179E-09     2.9105E-09     0.0000E+00
Finished density kernel iterations (  10)


>>> Density kernel optimised for the current NGWF basis:
     ~~~~~~~~~~~~~~~~~~~~~~~~~~~~~~~~~~~~~~~~~~~~~~~~~~~~~~~~~~~
     Total energy                =  -1.16786123464811E+04  Eh
     Estimated bandgap           =   8.6589E-02  Eh
     RMS occupancy error         =   3.4208E-16
     [H,K] commutator            =   2.9105E-09
     Occupancy bounds            = [ -0.000:  1.000]
     ~~~~~~~~~~~~~~~~~~~~~~~~~~~~~~~~~~~~~~~~~~~~~~~~~~~~~~~~~~~




################################################################################
########################### NGWF CG iteration  005 #############################
################################################################################
****** Reciprocal space K.E. preconditioning with k_zero =  3.5000 a0^-1 *******

>>> Checking for convergence of NGWFs: 
           ........................................................
           |         *** NGWF optimisation converged ***          |
           | RMS NGWF gradient =    0.00000093362495              |
           | Criteria satisfied:                                  |
           | -> RMS NGWF gradient lower than set threshold.       |
           ========================================================

Reusing previously generated solute cavity.
MG BCs: +ve charge blocks (gridpoints):     29367 (   19269600).
MG BCs: -ve charge blocks (gridpoints):      8345 (    1041756).
MG BCs:     Elided blocks (gridpoints):    174921 (  178866525).
MG BCs: Computational effort saved:  99.9811%.
MG BCs: Charge after coarse-graining:           -9.0009544.
MG DL_MG: Calling solver with defect correction order = 8
MG DL_MG: Solver finished
MG Hartree energy from (\int phi*rho dr):              1207.930799
MG Hartree energy from (\int eps (grad phi)^2 dr):     1207.740222
MG Discrepancy due to finite box and discretization:     -0.190577 (  -0.01578%)
MG Correction to account for finite box:                  0.006287
MG Remaining discrepancy, due to discretization:         -0.184290 (  -0.01526%)

================================================================================
           ---------------- ENERGY COMPONENTS (Eh) ----------------
           | Kinetic                    :     8532.34552878862087 |
           | Pseudo. (local,OBC,corr'd) :    -5052.36786694237253 |
           | Pseudopotential (non-local):     1403.40510445139444 |
           | Hartree (molecular)        :     1207.93079873176771 |
           | Exchange-correlation       :    -3358.38237177374504 |
           | Ion-ion (open BC)          :   822170.39789914246649 |
           | Dispersion Correction      :       -3.22133209522973 |
           | Smeared ion non-self corr. :  -822122.22050925402436 |
           | Smeared ion self corr.     :   -14457.16956389741972 |
           | Solvent cavitation energy  :        2.38358576017637 |
           | Solute-solvent dis-rep en. :       -1.71361939263479 |
           | Total                      :   -11678.61234648096251 |
           --------------------------------------------------------
           ------ LOCAL ENERGY COMPONENTS FROM MATRIX TRACES ------
           | Pseudopotential (local)    :    -5052.36786694239800 |
           | Hartree                    :    -1990.47949843408787 |
           --------------------------------------------------------
           Integrated density           :     7191.99999999809734
           Integrated density tr(KS)    :     7192.00000000000000
================================================================================


                        <<<<< CALCULATION SUMMARY >>>>>                         
|ITER|    RMS GRADIENT   |     TOTAL ENERGY    |   step   |     Epredicted              
   0     0.00004115429947 -11678.54649040580261   0.621901 -11678.60345657290964        
   1     0.00000997060791 -11678.61179047345649   0.085733 -11678.61225142771218        
   2     0.00000450938664 -11678.61232487764210   0.016452 -11678.61234297087503        
   3     0.00000205757103 -11678.61234553530812   0.003483 -11678.61234633281856        
   4     0.00000093362495 -11678.61234648106620  <-- CG                                 

=================== Finished the calculation in solvent ========================
= Adjusting the following parameters: 
= read_denskern: F
= read_tightbox_ngwfs: F
= maxit_pen: 0 (restored to user-specified value)
= restart read filename prefix: ""
= restart write filename prefix: ""
================================================================================

================================================================================
IS: Calculation in solvent completed (NGWFs converged).      

Individual components of total energy in solvent:     hartree           kcal/mol
- Usual non-electrostatic DFT terms:    -12887.21311158037679    -8086848.146342
- Electrostatic fixed charge energy:      1207.93079873176771      757988.003772
- Apolar cavitation energy:                  2.38358576017637        1495.722614
- Apolar dispersion-repulsion energy:       -1.71361939263479       -1075.312380
 -------------------------------------------------------------------------------
- Total energy in solvent:              -11678.61234648106620    -7328439.732336

Components of total energy in solvent:                hartree           kcal/mol
- Usual non-electrostatic DFT terms:    -12887.21311158037679    -8086848.146342
- Electrostatic energy:                   1207.93079873176771      757988.003772
- Apolar energy terms:                       0.66996636754157         420.410234
 -------------------------------------------------------------------------------
- Total energy in solvent:              -11678.61234648106620    -7328439.732336

Calculation of free energy of solvation:              hartree           kcal/mol
- Total energy in solvent:         (+)  -11678.61234648106620    -7328439.732336
- Total energy in vacuum:          (-)  -11674.70482075458858    -7325987.722976
 -------------------------------------------------------------------------------
- Total free energy of solvation:           -3.90752572647762       -2452.009360

Components of polar term in f.e. of solvation:        hartree           kcal/mol
- Electrostatic:                            -4.72703684843532       -2966.260342
- Change in nonelectrostatic DFT terms:      0.14954475441482          93.840748
 -------------------------------------------------------------------------------
- Polar term in f.e. of solvation:          -4.57749209402050       -2872.419594

Components of free energy of solvation:               hartree           kcal/mol
- Polar term in f.e. of solvation: (+)      -4.57749209402050       -2872.419594
- Apolar (cavitation, dis., rep.): (+)       0.66996636754157         420.410234
 -------------------------------------------------------------------------------
- Total free energy of solvation:           -3.90752572647893       -2452.009360
================================================================================


------------------------------ TIMING INFORMATION ------------------------------
AVERAGE TIME:   27902.501s on     40 node(s)                                    
TOTAL TIME:     27902.503s on     40 node(s)                                    
================= AVERAGE TIMINGS FROM ALL NODES (CUMULATIVE) ==================
|| TAG                                    #calls    cpu time   %total  Gflops ||
|| work_imbalance                       :     1        0.00s   0.000%  ------ ||
|| parallel_prepare_fd_halos_request    :  2067        0.02s   0.000%  ------ ||
|| sparse_set_to_garbage                :   188        0.04s   0.000%  ------ ||
|| parallel_prepare_fd_halos_satisfy    :  2067        0.06s   0.000%  ------ ||
|| ngwfs_initialise_from_radial         :     1        0.16s   0.001%  ------ ||
|| parallel_prepare_fd_halos_alloc      :  2067        0.21s   0.001%  ------ ||
|| basis_extract_function_from_box      :  5691        0.22s   0.001%  ------ ||
|| restart_ngwfs_tightbox_input         :     1        1.12s   0.004%  ------ ||
|| pseudopotentials_nonlocal_mat        :    32        1.27s   0.005%  ------ ||
|| parallel_prepare_fd_halos_comms_imbal:  2067        3.16s   0.011%  ------ ||
|| density_init_guess_real              :     1        3.22s   0.012%  ------ ||
|| restart_kernel_read                  :     1        3.83s   0.014%  ------ ||
|| openbc_locps_radial                  :     1        4.77s   0.017%  ------ ||
|| restart_kernel_write                 :    13       12.80s   0.046%  ------ ||
|| parallel_prepare_fd_halos_clear      :  2067       15.48s   0.055%  ------ ||
|| sparse_init                          :     2       22.48s   0.081%  ------ ||
|| projectors_func_ovlp_box             :    32       24.52s   0.088%  ------ ||
|| parallel_prepare_fd_halos_comms_wait :  2067       26.66s   0.096%  ------ ||
|| projectors_init_fftbox_recip         :   219       27.94s   0.100%  ------ ||
|| function_ops_brappd_ketppd           :    32       28.58s   0.102%  ------ ||
|| palser_mano_kernel_optimise          :     1       38.98s   0.140%  ------ ||
|| parallel_prepare_fd_halos            :  2067       45.60s   0.163%  ------ ||
|| fourier_apply_box_pair               :  8141       56.34s   0.202% 557.663 ||
|| pseudo_make_structure_factor         :     2       58.56s   0.210%  ------ ||
|| basis_copy_function_to_box           : 91883       58.77s   0.211%  ------ ||
|| ngwf_gradient_coeffs                 :    17       65.68s   0.235%  ------ ||
|| restart_ngwfs_tightbox_output        :    11       94.79s   0.340%  ------ ||
|| sparse_embed_hotelling_invert_embed  :    32       98.47s   0.353%  ------ ||
|| finite_difference_derivative         :  2067      118.25s   0.424%  ------ ||
|| integrals_kinetic                    :    32      171.48s   0.615%  ------ ||
|| openbc_locps_on_grid                 :     2      189.46s   0.679%  ------ ||
|| projectors_gradient_batch            :   187      222.35s   0.797%  ------ ||
|| fourier_apply_cell_forward           :  1377      232.98s   0.835%  83.837 ||
|| fourier_apply_cell_backward          :  1379      245.89s   0.881%  79.553 ||
|| sparse_trace                         :  5845      272.39s   0.976%  ------ ||
|| basis_dot_function_with_box          : 13.84M     272.46s   0.976%  ------ ||
|| kernel_purify                        :   526      367.21s   1.316%  ------ ||
|| hamiltonian_energy_components        :     4      411.19s   1.474%  ------ ||
|| xc_energy_potential                  :   344      560.94s   2.010%  ------ ||
|| basis_add_function_to_box            : 28.91M     561.97s   2.014%  ------ ||
|| lnv_gradient_norm                    :   170      593.88s   2.128%  ------ ||
|| kernel_fix                           :   170      720.28s   2.581%  ------ ||
|| ngwf_gradient_build_batch            :   187      801.54s   2.873%  ------ ||
|| cell_grid_deposit_box_real           : 58040      842.99s   3.021%  ------ ||
|| integrals_locpot_mat_els_batch       :  1969      952.17s   3.412%  ------ ||
|| cell_grid_extract_box_real           : 54143     1015.21s   3.638%  ------ ||
|| ngwf_gradient_batch                  :   187     1109.66s   3.977%  ------ ||
|| density_batch_row_sums               :  3773     1273.96s   4.566%  ------ ||
|| ngwf_gradient_lnv                    :    17     1280.39s   4.589%  ------ ||
|| density_fftbox_deposit_to_cell       : 55909     1456.37s   5.219%  ------ ||
|| sparse_product                       :  7185     2288.73s   8.203%  ------ ||
|| multigrid_prepare_bound_cond         :   344     2647.08s   9.487%  ------ ||
|| potential_apply_to_ngwf_batch        :  1969     3352.13s  12.014%  ------ ||
|| density_fftbox_interpolate_multiply  : 55909     3912.03s  14.020%  ------ ||
|| fourier_apply_box                    : 193.0k    3924.87s  14.066% 920.410 ||
|| integrals_locpot_dbl_grid            :   179     4324.14s  15.497%  ------ ||
|| density_batch_interp_deposit         :  3773     6044.72s  21.664%  ------ ||
|| dl_mg_solver_calls                   :   344     7050.88s  25.270%  ------ ||
|| density_on_dbl_grid                  :   343     7789.97s  27.919%  ------ ||
|| multigrid_calculate_hartree          :   344     9860.42s  35.339%  ------ ||
|| hamiltonian_lhxc_calculate           :   339    18259.51s  65.440%  ------ ||
|| lnv_denskernel_optimise_cg           :    17    24036.36s  86.144%  ------ ||
|| ngwf_cg_optimise                     :     2    27103.28s  97.136%  ------ ||
|| total_time                           :     1    27902.50s 100.000%  ------ ||
================================================================================
Overhead of generating timer report: 
- 0 ms averaging over threads,
- 5 ms ensuring consistency across MPI ranks,
- 2 ms printing in order.

Job completed: 19-06-2020 09:54 (+0100)

