 +---------------------------------------------------------------+
 |                                                               |
 |        ####### #     # ####### ####### ####### ######         |
 |        #     # ##    # #          #    #       #     #        |
 |        #     # # #   # #          #    #       #     #        |
 |        #     # #  #  # #####      #    #####   ######         |
 |        #     # #   # # #          #    #       #              |
 |        #     # #    ## #          #    #       #              |
 |        ####### #     # #######    #    ####### #              |
 |                                                               |
 |        Linear-Scaling Ab Initio Total Energy Program          |
 |                                                               |
 |          Release for academic collaborators of ODG            |
 |                                             Version 5.3.2.6.  |
 |                                                               |
 +---------------------------------------------------------------+
 |                                                               |
 |  Authors:                                                     |
 |  Jacek Dziedzic, Peter D. Haynes, Nicholas D. M. Hine,        |
 |  Arash. A. Mostofi, Mike C. Payne and Chris-Kriton Skylaris   |
 |                                                               |
 |  Contributors:                                                |
 |  J. Aarons, L. Andrinopoulos, P. W. Avraam, R. A. Bell,       |
 |  A. Bhandari, G. A. Bramley, R. J. Charlton, S. J. Clark,     |
 |  R. J. Clements, G. C. Constantinescu, F. Corsetti,           |
 |  N. Corsini, O. Dieguez, S. M. M. Dubois, K. K. B. Duff,      |
 |  J. M. Escartin, A. Greco, H. Helal, Q. O. Hill, L. P. Lee,   |
 |  J.-H. Li, E. B. Linscott, G. Moynihan, D. D. O`Regan,        |
 |  O. K. Okan, M. J. S. Phipps, C. J. Pickard,                  |
 |  J. C. A. Prentice, M. I. J. Probert, L. E. Ratcliff,         |
 |  M. Robinson, A. Ruiz Serrano, J. S. Spencer, E. W. Tait,     |
 |  G. Teobaldi, D. Turban, V. Vitale, K. A. Wilkinson,          |
 |  C. Weber, J. C. Womack, N. Yeung and T. J. Zuehlsdorff       |
 |                                                               |
 |                                   Copyright (c) 2004-2019     |
 |                                                               |
 |  Please cite:                                                 |
 |  "Introducing ONETEP: Linear-scaling density functional       |
 |   simulations on parallel computers".                         |
 |   C.-K. Skylaris, P. D. Haynes, A. A. Mostofi, M. C. Payne.   |
 |   J. Chem. Phys. 122 084119 (2005).                           |
 |                                                               |
 |          in all publications arising from your use of ONETEP. |
 |                                                               |
 +---------------------------------------------------------------+
 |                                                               |
 |   ONETEP is based on developments described in the following  |
 |   publications:                                               |
 |                                                               |
 |  "Nonorthogonal generalized Wannier function pseudopotential  |
 |   plane-wave method".                                         |
 |   C.-K. Skylaris, A. A. Mostofi, P. D. Haynes, O. Dieguez,    |
 |   M. C. Payne.                                                |
 |   Phys. Rev. B 66 035119 (2002).                              |
 |                                                               |
 |  "Preconditioned iterative minimization for linear-scaling    |
 |   electronic structure calculations".                         |
 |   A. A. Mostofi, P. D. Haynes, C.-K. Skylaris, M. C. Payne.   |
 |   J. Chem. Phys. 119(17), pp.8842-8848 (2003).                |
 |                                                               |
 |  "Total-energy calculations on a real space grid with         |
 |   localized functions and a plane-wave basis".                |
 |   A. A. Mostofi, C.-K. Skylaris, P. D. Haynes, M. C. Payne.   |
 |   Comput. Phys. Commun. 147, pp.788-802 (2002).               |
 |                                                               |
 |  "Accurate kinetic energy evaluation in electronic structure  |
 |   calculations with localized functions on real space grids"  |
 |   C.-K. Skylaris, A. A. Mostofi, P. D. Haynes, C. J. Pickard, |
 |   M. C. Payne.                                                |
 |   Comput. Phys. Commun. 140, pp.315-322 (2001).               |
 |                                                               |
 |  "Accurate ionic forces and geometry optimization in linear-  |
 |   scaling density-functional theory with local orbitals"      |
 |   N. D. M. Hine, M. Robinson, P. D. Haynes, C.-K. Skylaris,   |
 |   M. C. Payne, and A. A. Mostofi.                             |
 |   Phys. Rev. B 83 195102 (2011).                              |
 |                                                               |
 +---------------------------------------------------------------+

Job started: 26-06-2020 16:53 (+0100)
 
Reading parameters from file "host_28981.dat" ...... done

If your calculation crashes here, before "Checking processes and threads..."
is displayed, then your stack size is insufficient.
If so, use "ulimit -s unlimited" at runtime.
You can disable this check with "check_stack_size F".

Checking processes and threads...
   Determining the default number of threads...
      No default threads set at compilation time: defaulting to 1.
      OpenMP library call suggests 4 threads.
      Hybrid MPI-OpenMP compilation detected.
      Number of MPI processes > 1.
      OMP_NUM_THREADS environment variable present and
      its value matches the one obtained from the OpenMP library call.
      Using this value as default.
      Default threads: 4
      Default applies to threads_max and threads_num_fftboxes.
      Settings in the input file override this default.
   ... done

   Running with 60 MPI processes.
   There are 6 MPI processes running on the same node as the root process.
   Each MPI process is using: 
               1 threads for simulation cell FFTs.
               1 threads for parallel FFT box operations.
               4 threads for loops over batched FFT box operations.
               4 threads in other parallel regions.
... done

Basic input checks...... done

Reading geometry and species blocks from file "host_28981.dat" ...
  <species_atomic_set> block not found: NGWF initialisation set to SOLVE
IS: Dielectric excluded regions:
    - NONE.
    
  Number of PPD points along a3 set to 1.  This is 
  the default value, it may have been provided also in the input file.
... done
 Writing xyz coordinates to file "host_28981.xyz" ... done


--------------------------------------------------------------------------------
---------------------------------- INPUT FILE ----------------------------------
--------------------------------------------------------------------------------

cutoff_energy       : 800 eV                                                    
xc_functional PBE                                                               
task SINGLEPOINT                                                                
write_xyz true                                                                  
output_detail VERBOSE                                                           
ngwf_threshold_orig : 0.000002                                                  
kernel_cutoff       : 1000                                                      
k_zero              : 3.5                                                       
elec_cg_max 0                                                                   
occ_mix 1.0                                                                     
dispersion 1                                                                    
maxit_ngwf_cg 40                                                                
minit_lnv 10                                                                    
maxit_lnv 10                                                                    
write_denskern F                                                                
write_tightbox_ngwfs F                                                          
charge 9                                                                        
is_implicit_solvent T                                                           
is_auto_solvation T                                                             
is_include_apolar T                                                             
is_smeared_ion_rep T                                                            
is_solvent_surf_tension 4.7624E-5 Ha/bohr**2                                    
is_apolar_scaling_factor 0.281075                                               
is_solvation_beta 1.3                                                           
is_density_threshold 0.00035                                                    
is_bulk_permittivity 78.54                                                      
is_dielectric_model fix_initial                                                 
is_smeared_ion_width 0.8                                                        
mg_defco_fd_order 8                                                             
is_bc_coarseness 10                                                             
is_bc_surface_coarseness 1                                                      
fine_grid_scale 2.0                                                             
%block species                                                                  
N   N   7 4 8.0                                                                 
H   H   1 1 8.0                                                                 
C   C   6 4 8.0                                                                 
S   S  16 9 8.0                                                                 
O   O   8 4 8.0                                                                 
%endblock species                                                               
%block species_pot                                                              
N   N_00.recpot                                                                 
H   H_04.recpot                                                                 
C   C_01.recpot                                                                 
S   S_00.recpot                                                                 
O   O_02.recpot                                                                 
%endblock species_pot                                                           
%block lattice_cart                                                             
140.777   0.000   0.000                                                         
0.000 144.511   0.000                                                           
0.000   0.000   162.462                                                         
%endblock lattice_cart                                                          
%block positions_abs                                                            
     Hash =   000000933998484335684959
%endblock positions_abs                                                         

--------------------------------------------------------------------------------
-------------------------------- END INPUT FILE --------------------------------
--------------------------------------------------------------------------------


 
 ESDF WARNING(1): "kernelcutoff" (esdf_physical) has no units. Assume "bohr".
 ESDF WARNING(2): "kzero" (esdf_physical) has no units. Assume "1/bohr".
 ESDF WARNING(3
 ): "issmearedionwidth" (esdf_physical) has no units. Assume "bohr".
<<<<<<<<<<<<<<<<<<<<<<<<<<<<<<<<< Full system >>>>>>>>>>>>>>>>>>>>>>>>>>>>>>>>>>
<<<<<<<<<<<<<<<<<<<<<<<<< Pseudopotential information >>>>>>>>>>>>>>>>>>>>>>>>>>
File: N_00.recpot [ 2001 points up to Gmax=  52.9 (1/bohr)]
  Atomic number:  7;  ionic charge:  5.000000
    Shell 1: l = 0; rc = 1.48 bohr
File: H_04.recpot [ 2001 points up to Gmax=  52.9 (1/bohr)]
  Atomic number:  1;  ionic charge:  1.000000
    Local potential
File: C_01.recpot [ 2001 points up to Gmax=  52.9 (1/bohr)]
  Atomic number:  6;  ionic charge:  4.000000
    Shell 1: l = 0; rc = 1.48 bohr
File: S_00.recpot [ 2001 points up to Gmax=  52.9 (1/bohr)]
  Atomic number: 16;  ionic charge:  6.000000
    Shell 1: l = 0; rc = 1.90 bohr
    Shell 2: l = 2; rc = 1.84 bohr
File: O_02.recpot [ 2001 points up to Gmax=  52.9 (1/bohr)]
  Atomic number:  8;  ionic charge:  6.000000
    Shell 1: l = 0; rc = 1.31 bohr
<<<<<<<<<<<<<<<<<<<<<<<<<<<<<<<<<<<<<<<<>>>>>>>>>>>>>>>>>>>>>>>>>>>>>>>>>>>>>>>>

-------------------------- Atom counting information ---------------------------
Symbol    Natoms    Nngwfs    Nprojs
  N        236       944       236
  H       1311      1311         0
  C        810      3240       810
  S          6        54        36
  O        239       956       239
.......   ......    ......    ......
Totals:   2602      6505      1321
--------------------------------------------------------------------------------

=============================== PSINC grid sizes ===============================
                      Simulation cell:  280 x 286 x 320
                              FFT-box:   99 x  99 x  99
                                  PPD:    5 x  11 x   1
Grid space d1=  0.502775000000a0 (KE cutoff=  30.05084Eh = 817.72503eV)
Grid space d2=  0.505283216783a0 (KE cutoff=  29.75324Eh = 809.62684eV)
Grid space d3=  0.507693750000a0 (KE cutoff=  29.47137Eh = 801.95686eV)
================================================================================

********************* Fourier parallelisation information **********************
       Coarse grid (whole simulation cell) dimensions:    280   286   320
          Real-space ('12') slabs/node (min max mean):      5     6     5
         Recip-space ('23') slabs/node (min max mean):      2     3     2
********************************************************************************

********************* Fourier parallelisation information **********************
       Double grid (whole simulation cell) dimensions:    560   572   640
          Real-space ('12') slabs/node (min max mean):     10    11    10
         Recip-space ('23') slabs/node (min max mean):      4     5     4
********************************************************************************
ONETEP fine grid is 560 x 572 x 640 gridpoints, 140.7770 x 144.5110 x 162.4620 bohr.
FD multigrid is     553 x 569 x 633 gridpoints, 139.0173 x 143.7531 x 160.6851 bohr.


Calculating local pseudopotential in open BC on a radial grid ...
Discrepancy between calculated realspace psloc and -Z/x on [5a0,259.028a0]:
max |rel. diff| # avg |rel. diff| #  avg rel. diff #  f # pseudopotential file
 0.000261578119    0.000004844123   0.000000072210   55  'N_00.recpot'
 0.000419583258    0.000017514079  -0.000000069370   55  'H_04.recpot'
 0.000363553651    0.000016734795   0.000000141192   55  'C_01.recpot'
 0.000449990737    0.000019382085   0.000000449342   55  'S_00.recpot'
 0.000706973137    0.000028359832   0.000000146371   55  'O_02.recpot'
... done

Atom SCF Calculation for N  : Z (AE atom) =   7 : Z (PS atom) =   5
Config String:
Orbitals (num,occ):  2     2.00 3.00
Orbitals   (num,l):  2        0    1
Real-space Grid (nr,dr,rmax): 1203    0.0066555740    8.0000000000
Spherical Bessel Basis (nsws,lmax,cutoff):   47    1  176.3951722778
Confining potential (l,width,scale):  0    3.0000000000  100.0000000000
Confining potential (l,width,scale):  1    3.0000000000  100.0000000000
  1         -4.7312375307   -3.4155304497    7.0523828109   -1.9351020946
  2         -9.7309464766   -2.0532547791    8.2966052865   -2.2494486027
  3         -9.6627394379   -2.1124926340    8.2327997121   -2.2369778124
  4         -9.6814993499   -2.1215521045    8.2229805960   -2.2365178421
  5         -9.6843326483   -2.1250939529    8.2191374534   -2.2362718126
  6         -9.6859628709   -2.1267894855    8.2172963573   -2.2362066344
  7         -9.6867347035   -2.1276425665    8.2163697352   -2.2361903369
  8         -9.6870802100   -2.1280764625    8.2158983890   -2.2361891460
  9         -9.6872290423   -2.1282977424    8.2156580222   -2.2361920435
 10         -9.6872901988   -2.1284107021    8.2155353368   -2.2361953393
 11         -9.6873135296   -2.1284684031    8.2154726809   -2.2361979819
 12         -9.6873212476   -2.1284978948    8.2154406648   -2.2361998431
 13         -9.6873229586   -2.1285129774    8.2154242957   -2.2362010676
 14         -9.6873226456   -2.1285206957    8.2154159216   -2.2362018403
 15         -9.6873218534   -2.1285246479    8.2154116349   -2.2362023142
 16         -9.6873212599   -2.1285262679    8.2154098784   -2.2362025420
 17         -9.6873207834   -2.1285272564    8.2154088068   -2.2362026955
 18         -9.6873204210   -2.1285278596    8.2154081529   -2.2362027982
 19         -9.6873201550   -2.1285282280    8.2154077538   -2.2362028667
 20         -9.6873199645   -2.1285284529    8.2154075102   -2.2362029121
 21         -9.6873198305   -2.1285285903    8.2154073614   -2.2362029421
 22         -9.6873197377   -2.1285286742    8.2154072705   -2.2362029618
Atom SCF converged after  22 iterations to a total energy of     -9.68731974

Atom SCF Calculation for H  : Z (AE atom) =   1 : Z (PS atom) =   1
Config String:
Orbitals (num,occ):  1     1.00
Orbitals   (num,l):  1        0
Real-space Grid (nr,dr,rmax): 1203    0.0066555740    8.0000000000
Spherical Bessel Basis (nsws,lmax,cutoff):   47    0  176.3951722778
Confining potential (l,width,scale):  0    3.0000000000  100.0000000000
  1         -0.3194257691   -0.2393854593    0.2820953124   -0.2424203209
  2         -0.3951823392   -0.2377116493    0.2886404059   -0.2475147891
  3         -0.4317044583   -0.2352244387    0.2921333887   -0.2514046172
  4         -0.4470703708   -0.2341892222    0.2934391879   -0.2531009782
  5         -0.4532132900   -0.2338556667    0.2938388426   -0.2537313520
  6         -0.4556579251   -0.2337612552    0.2939448584   -0.2539550462
  7         -0.4566418315   -0.2337377355    0.2939680120   -0.2540342273
  8         -0.4570437922   -0.2337331116    0.2939708287   -0.2540627372
  9         -0.4572102946   -0.2337328328    0.2939698291   -0.2540732650
 10         -0.4572800424   -0.2337332404    0.2939687193   -0.2540772588
 11         -0.4573095100   -0.2337335791    0.2939680317   -0.2540788122
 12         -0.4573220379   -0.2337337762    0.2939676699   -0.2540794294
 13         -0.4573273880   -0.2337338775    0.2939674931   -0.2540796787
 14         -0.4573296803   -0.2337339266    0.2939674099   -0.2540797808
 15         -0.4573306647   -0.2337339495    0.2939673718   -0.2540798230
 16         -0.4573310882   -0.2337339601    0.2939673545   -0.2540798406
 17         -0.4573312706   -0.2337339649    0.2939673467   -0.2540798479
 18         -0.4573313493   -0.2337339670    0.2939673433   -0.2540798510
Atom SCF converged after  18 iterations to a total energy of     -0.45733135

Atom SCF Calculation for C  : Z (AE atom) =   6 : Z (PS atom) =   4
Config String:
Orbitals (num,occ):  2     2.00 2.00
Orbitals   (num,l):  2        0    1
Real-space Grid (nr,dr,rmax): 1203    0.0066555740    8.0000000000
Spherical Bessel Basis (nsws,lmax,cutoff):   47    1  176.3951722778
Confining potential (l,width,scale):  0    3.0000000000  100.0000000000
Confining potential (l,width,scale):  1    3.0000000000  100.0000000000
  1         -5.2976922011   -1.3069684169    4.5135249990   -1.4493313817
  2         -5.3721716256   -1.3429755895    4.4750154450   -1.4361613026
  3         -5.3809959565   -1.3617365618    4.4541655428   -1.4305930207
  4         -5.3918938866   -1.3667928461    4.4484735100   -1.4294652294
  5         -5.3956096428   -1.3688539142    4.4461376126   -1.4290734646
  6         -5.3968271862   -1.3696852393    4.4451910874   -1.4289366866
  7         -5.3972028401   -1.3700178062    4.4448112275   -1.4288900460
  8         -5.3973067903   -1.3701500158    4.4446598370   -1.4288749220
  9         -5.3973286940   -1.3702023868    4.4445997329   -1.4288704293
 10         -5.3973289850   -1.3702230869    4.4445759233   -1.4288693188
 11         -5.3973254264   -1.3702312560    4.4445665049   -1.4288691775
 12         -5.3973224003   -1.3702344755    4.4445627836   -1.4288692549
 13         -5.3973208708   -1.3702354890    4.4445616088   -1.4288693270
 14         -5.3973198783   -1.3702360102    4.4445610034   -1.4288693814
 15         -5.3973192535   -1.3702362780    4.4445606917   -1.4288694190
 16         -5.3973188684   -1.3702364155    4.4445605313   -1.4288694437
 17         -5.3973186349   -1.3702364860    4.4445604489   -1.4288694595
 18         -5.3973184951   -1.3702365221    4.4445604065   -1.4288694693
 19         -5.3973184122   -1.3702365405    4.4445603848   -1.4288694753
Atom SCF converged after  19 iterations to a total energy of     -5.39731841

Atom SCF Calculation for S  : Z (AE atom) =  16 : Z (PS atom) =   6
Config String:
Orbitals (num,occ):  3     2.00 4.00 0.00
Orbitals   (num,l):  3        0    1    2
Real-space Grid (nr,dr,rmax): 1203    0.0066555740    8.0000000000
Spherical Bessel Basis (nsws,lmax,cutoff):   47    2  176.3951722778
Confining potential (l,width,scale):  0    3.0000000000  100.0000000000
Confining potential (l,width,scale):  1    3.0000000000  100.0000000000
Confining potential (l,width,scale):  2    3.0000000000  100.0000000000
  1        -12.4735062396   -1.0328741412   10.1554312477   -2.4512393157
  2         -9.9458301913   -2.4607392455    8.3041325857   -2.0306994528
  3        -10.1450417646   -2.2931184565    8.4831893826   -2.0812538287
  4        -10.1528335592   -2.2733105793    8.5050388867   -2.0896035179
  5        -10.1571940363   -2.2633716629    8.5160794258   -2.0939370707
  6        -10.1594380571   -2.2584938667    8.5215163935   -2.0961289008
  7        -10.1605856507   -2.2561081821    8.5241804044   -2.0972291378
  8        -10.1611799191   -2.2549395235    8.5254868240   -2.0977806248
  9        -10.1614918752   -2.2543658586    8.5261285885   -2.0980571586
 10        -10.1616572884   -2.2540839121    8.5264441898   -2.0981959233
 11        -10.1617455602   -2.2539453058    8.5265994231   -2.0982656006
 12        -10.1617928447   -2.2538772062    8.5266757320   -2.0983006047
 13        -10.1618182292   -2.2538437891    8.5267131983   -2.0983181961
 14        -10.1618318741   -2.2538274201    8.5267315620   -2.0983270391
 15        -10.1618392144   -2.2538194197    8.5267405433   -2.0983314852
 16        -10.1618431651   -2.2538155200    8.5267449245   -2.0983337210
 17        -10.1618452923   -2.2538136252    8.5267470551   -2.0983348455
 18        -10.1618464380   -2.2538127080    8.5267480875   -2.0983354110
 19        -10.1618470552   -2.2538122659    8.5267485856   -2.0983356955
 20        -10.1618473878   -2.2538120540    8.5267488248   -2.0983358386
 21        -10.1618475670   -2.2538119530    8.5267489389   -2.0983359106
 22        -10.1618476637   -2.2538119053    8.5267489929   -2.0983359468
Atom SCF converged after  22 iterations to a total energy of    -10.16184766

Atom SCF Calculation for O  : Z (AE atom) =   8 : Z (PS atom) =   6
Config String:
Orbitals (num,occ):  2     2.00 4.00
Orbitals   (num,l):  2        0    1
Real-space Grid (nr,dr,rmax): 1203    0.0066555740    8.0000000000
Spherical Bessel Basis (nsws,lmax,cutoff):   47    1  176.3951722778
Confining potential (l,width,scale):  0    3.0000000000  100.0000000000
Confining potential (l,width,scale):  1    3.0000000000  100.0000000000
  1         -1.8735052164   -7.5539365035   10.1554312477   -2.4512393157
  2        -16.0318313751   -3.1285771268   13.6395848164   -3.2358799643
  3        -15.9524020423   -3.0762819706   13.6967272503   -3.2536856837
  4        -15.8521515939   -3.0781493909   13.6951909330   -3.2561700440
  5        -15.8357139793   -3.0748501933   13.6988803334   -3.2580493133
  6        -15.8246052853   -3.0740779781   13.6997881576   -3.2588327446
  7        -15.8189019501   -3.0737449687   13.7001869911   -3.2592378801
  8        -15.8159785510   -3.0736026016   13.7003615168   -3.2594475790
  9        -15.8144776168   -3.0735437994   13.7004360379   -3.2595560735
 10        -15.8137058024   -3.0735207882   13.7004667348   -3.2596122456
 11        -15.8133083127   -3.0735125946   13.7004786868   -3.2596413656
 12        -15.8131032938   -3.0735102195   13.7004828997   -3.2596564858
 13        -15.8129973902   -3.0735099286   13.7004840891   -3.2596643505
 14        -15.8129426040   -3.0735102506   13.7004842061   -3.2596684489
 15        -15.8129142203   -3.0735106556   13.7004840157   -3.2596705887
 16        -15.8128994940   -3.0735109855   13.7004837906   -3.2596717080
 17        -15.8128918425   -3.0735112169   13.7004836103   -3.2596722946
 18        -15.8128878614   -3.0735113674   13.7004834848   -3.2596726026
 19        -15.8128857871   -3.0735114608   13.7004834035   -3.2596727646
 20        -15.8128847048   -3.0735115170   13.7004833533   -3.2596728500
 21        -15.8128841394   -3.0735115501   13.7004833231   -3.2596728951
 22        -15.8128838436   -3.0735115693   13.7004833054   -3.2596729190
 23        -15.8128836887   -3.0735115802   13.7004832951   -3.2596729316
 24        -15.8128836074   -3.0735115864   13.7004832893   -3.2596729383
Atom SCF converged after  24 iterations to a total energy of    -15.81288361

========================== Calculation in vacuum ==============================
= Adjusting the following parameters: 
= is_implicit_solvent: F
= is_include_apolar: F
= write_denskern: T
= write_tightbox_ngwfs: T
= restart read filename prefix: ""
= restart write filename prefix: "vacuum_"
===============================================================================

Determining parallel strategy ...
... using space-filling curve
... NGWF load balancing: max    109;  min    108;  average    108
... Projector load balancing: max     25;  min     21;  average     22
... done
Calculating direct Ion-Ion energy ...
Ion-Ion Energy        :    817514.80942153173964
======================= Empirical dispersion information =======================
Model : Elstner
Dispersion Correction Energy: -0.32130460E+01 Hartree
================================================================================
Basis initialisation ...... NGWF spheres initialised
... Projector spheres initialised
... NGWF tight boxes initialised
... Tight-boxes gathered
... NGWF basis size (local,global):    1028492  62011171
... Nonlocal pseudopotential projector initialisation
... done

========================== Sparse matrix information ===========================
                        Overlap matrix filling:   6.64%
                        Density kernel filling: 100.00%
              NGWF-Proj overlap matrix filling:   1.77%
                    Hamiltonian matrix filling:   7.47%
                  NGWF diagonal matrix filling:   0.05%
                             KS matrix filling: 100.00% 
                           KSKS matrix filling: 100.00% 
================================================================================

Sparse matrix initialisation ... done

Generating smeared ion density ... done
Smeared ion self correction:     -14457.169564
Smeared ion non-self correction: -817466.576210
NGWF initialisation ...... done
============ Calculation of NGWF S^-1 using Hotelling algorithm ================ 
         Iteration  |  Frobenius norm and Maximum abs value    (of I-S*S_n^-1)   
               1       0.78433962E+02     0.98213144E+00
               2       0.76550184E+02     0.96472918E+00
               3       0.73511730E+02     0.93124609E+00
               4       0.69213455E+02     0.86909094E+00
               5       0.63880577E+02     0.76393127E+00
               6       0.57905787E+02     0.70168925E+00
               7       0.51919882E+02     0.66868652E+00
               8       0.46384010E+02     0.64463439E+00
               9       0.40275349E+02     0.60311285E+00
              10       0.31931091E+02     0.53023586E+00
              11       0.21311557E+02     0.42186910E+00
              12       0.10756765E+02     0.28029751E+00
              13       0.34642496E+01     0.12627019E+00
              14       0.52559156E+00     0.35143278E-01
              15       0.24017431E-01     0.34602600E-02
              16       0.13984618E-03     0.35971533E-04
              17       0.12262408E-07     0.39428860E-08
              18       0.88109605E-13     0.44408921E-14
================================================================================
Calculating local pseudopotential in open BC on the fine real space grid ...
... done

MG BCs: +ve charge blocks (gridpoints):     20321 (   15970975).
MG BCs: -ve charge blocks (gridpoints):      7915 (    1073845).
MG BCs:     Elided blocks (gridpoints):    183967 (  182133061).
MG BCs: Computational effort saved:  99.9858%.
MG BCs: Charge after coarse-graining:           -9.0002242.
MG DL_MG: Calling solver with defect correction order = 8
MG DL_MG: Solver finished
MG Hartree energy from (\int phi*rho dr):              1462.490166
MG Hartree energy from (\int eps (grad phi)^2 dr):     1461.875497
MG Discrepancy due to finite box and discretization:     -0.614668 (  -0.04203%)
MG Correction to account for finite box:                  0.460763
MG Remaining discrepancy, due to discretization:         -0.153906 (  -0.01052%)
Up spin density kernel initialisation ... 
======= Optimisation of K by Palser-Manolopoulos canonical purification ======== 
         Iteration  |  Band structure energy |    c_n   
               1       -2573.78925827066178    0.5264590
               2       -2749.50352798101085    0.5168270
               3       -2929.16417516837373    0.5154238
               4       -3078.69167314978722    0.5291097
               5       -3170.22159450397157    0.5653089
               6       -3208.23761408925384    0.6096293
               7       -3221.13551348213696    0.6193272
               8       -3226.78628958144054    0.6169416
               9       -3229.51046234168052    0.6318718
              10       -3230.61487075338800    0.6613261
              11       -3231.02965047671114    0.6868550
              12       -3231.20287913587345    0.6892111
              13       -3231.29281600105105    0.6833636
              14       -3231.34321970245355    0.6977861
              15       -3231.36807593360936    0.7065505
              16       -3231.38124192286614    0.7127997
              17       -3231.38865234178866    0.7211421
              18       -3231.39276202364272    0.6968388
              19       -3231.39563159861154    0.6615802
              20       -3231.39766875666237    0.6245778
              21       -3231.39900911809946    0.5849782
              22       -3231.39982810560559    0.5449495
              23       -3231.40025596412261    0.5140428
              24       -3231.40039609199812    0.5014768
              25       -3231.40041136966420    0.5000168
              26       -3231.40041155630297    0.5000168
Termination criterion satisfied: band energy change below threshold.
Final occupancy bounds: [    0.00000000000142:    0.99999999999978]
Closest occupancy to 0.5:     0.99999999999904
================================================================================
... done

Writing density kernel to file "host_28981.vacuum_dkn" ... done

>>> Optimising kernel for current NGWFs:
   Initial electron number for spin 1:    7192.00000000
     Final electron number for spin 1:    7192.00000000

=================== Penalty functional idempotency correction ==================
 RMS occupancy error at iteration   1:  0.000000 (step -0.5000 Ne1=   7192.0000)
            Final RMS occupancy error   :  0.000000 (Ne1=   7192.0000)
               Final occupancy bounds   : [ -0.0000,  1.0000]
================================================================================

................................................................................
<<<<<<<<<<<<<< LNV (Original version) density kernel optimisation >>>>>>>>>>>>>>
~~~~~~~~~~~~~~~~~~~~~~~~~~~~~~~~~~~~~~~~~~~~~~~~~~~~~~~~~~~~~~~~~~~~~~~~~~~~~~~~
   iter  |      energy (Eh)       | rms gradient |  commutator  |   dE (Eh)
MG BCs: +ve charge blocks (gridpoints):     30869 (   17154570).
MG BCs: -ve charge blocks (gridpoints):      8266 (    1106402).
MG BCs:     Elided blocks (gridpoints):    173410 (  180916909).
MG BCs: Computational effort saved:  99.9804%.
MG BCs: Charge after coarse-graining:           -9.0009612.
MG DL_MG: Calling solver with defect correction order = 8
MG DL_MG: Solver finished
MG Hartree energy from (\int phi*rho dr):              1417.671557
MG Hartree energy from (\int eps (grad phi)^2 dr):     1417.004185
MG Discrepancy due to finite box and discretization:     -0.667372 (  -0.04708%)
MG Correction to account for finite box:                  0.470241
MG Remaining discrepancy, due to discretization:         -0.197131 (  -0.01391%)
      ideal mu1:      -0.703267859425
             Q0:  -11506.032181722112
             G0:    -144.302480368640
   RMS gradient:       0.001846671289
MG BCs: +ve charge blocks (gridpoints):     30888 (   17238653).
MG BCs: -ve charge blocks (gridpoints):      8173 (    1086303).
MG BCs:     Elided blocks (gridpoints):    173391 (  180852925).
MG BCs: Computational effort saved:  99.9804%.
MG BCs: Charge after coarse-graining:           -9.0009803.
MG DL_MG: Calling solver with defect correction order = 8
MG DL_MG: Solver finished
MG Hartree energy from (\int phi*rho dr):              1443.008687
MG Hartree energy from (\int eps (grad phi)^2 dr):     1442.357487
MG Discrepancy due to finite box and discretization:     -0.651200 (  -0.04513%)
MG Correction to account for finite box:                  0.470003
MG Remaining discrepancy, due to discretization:         -0.181196 (  -0.01256%)
     Trial step:       0.500000000000
             Q1:  -11517.481169170002
 Quadratic coef:      60.702252736430
 Linear coef   :     -72.151240184320
           Qmin:  -11527.472083972278
Quadratic minimum step length (  0.297152234603) accepted
    Initial Ne1:    7192.00000000
      Final Ne1:    7192.00000000

=================== Penalty functional idempotency correction ==================
 RMS occupancy error at iteration   1:  0.003399 (step -0.4885 Ne1=   7192.0000)
 RMS occupancy error at iteration   2:  0.000027 (step -0.5001 Ne1=   7192.0000)
            Final RMS occupancy error   :  0.000000 (Ne1=   7192.0000)
               Final occupancy bounds   : [  0.0000,  1.0000]
================================================================================

    1        -1.150603218172E+04     1.8467E-03     1.6703E-03
MG BCs: +ve charge blocks (gridpoints):     30873 (   17205510).
MG BCs: -ve charge blocks (gridpoints):      8222 (    1094971).
MG BCs:     Elided blocks (gridpoints):    173405 (  180877400).
MG BCs: Computational effort saved:  99.9804%.
MG BCs: Charge after coarse-graining:           -9.0009728.
MG DL_MG: Calling solver with defect correction order = 8
MG DL_MG: Solver finished
MG Hartree energy from (\int phi*rho dr):              1424.821479
MG Hartree energy from (\int eps (grad phi)^2 dr):     1424.164693
MG Discrepancy due to finite box and discretization:     -0.656786 (  -0.04610%)
MG Correction to account for finite box:                  0.469964
MG Remaining discrepancy, due to discretization:         -0.186822 (  -0.01311%)
      ideal mu1:      -0.745902591113
             Q0:  -11527.872849696316
             G0:     -12.228408182570
   RMS gradient:       0.000533965439
MG BCs: +ve charge blocks (gridpoints):     30889 (   17223118).
MG BCs: -ve charge blocks (gridpoints):      8193 (    1089757).
MG BCs:     Elided blocks (gridpoints):    173389 (  180865006).
MG BCs: Computational effort saved:  99.9804%.
MG BCs: Charge after coarse-graining:           -9.0009762.
MG DL_MG: Calling solver with defect correction order = 8
MG DL_MG: Solver finished
MG Hartree energy from (\int phi*rho dr):              1430.134271
MG Hartree energy from (\int eps (grad phi)^2 dr):     1429.481278
MG Discrepancy due to finite box and discretization:     -0.652993 (  -0.04566%)
MG Correction to account for finite box:                  0.469394
MG Remaining discrepancy, due to discretization:         -0.183598 (  -0.01284%)
     Trial step:       0.385455726772
             Q1:  -11530.729369722772
 Quadratic coef:       1.856989936825
 Linear coef   :      -4.713509963282
           Qmin:  -11530.863869697741
Quadratic minimum step length (  0.489192044749) accepted
    Initial Ne1:    7191.99990100
      Final Ne1:    7192.00000000

=================== Penalty functional idempotency correction ==================
 RMS occupancy error at iteration   1:  0.001813 (step -0.4930 Ne1=   7192.0000)
 RMS occupancy error at iteration   2:  0.000012 (step -0.5002 Ne1=   7192.0000)
            Final RMS occupancy error   :  0.000000 (Ne1=   7192.0000)
               Final occupancy bounds   : [  0.0000,  1.0000]
================================================================================

    2        -1.152787284970E+04     5.3397E-04     4.8296E-04    -2.1841E+01
MG BCs: +ve charge blocks (gridpoints):     30893 (   17227645).
MG BCs: -ve charge blocks (gridpoints):      8187 (    1088380).
MG BCs:     Elided blocks (gridpoints):    173385 (  180861856).
MG BCs: Computational effort saved:  99.9804%.
MG BCs: Charge after coarse-graining:           -9.0009773.
MG DL_MG: Calling solver with defect correction order = 8
MG DL_MG: Solver finished
MG Hartree energy from (\int phi*rho dr):              1431.614339
MG Hartree energy from (\int eps (grad phi)^2 dr):     1430.962288
MG Discrepancy due to finite box and discretization:     -0.652051 (  -0.04555%)
MG Correction to account for finite box:                  0.469257
MG Remaining discrepancy, due to discretization:         -0.182793 (  -0.01277%)
      ideal mu1:      -0.768858528178
             Q0:  -11530.900848090067
             G0:      -1.967955080058
   RMS gradient:       0.000214304533
MG BCs: +ve charge blocks (gridpoints):     30893 (   17227027).
MG BCs: -ve charge blocks (gridpoints):      8193 (    1089422).
MG BCs:     Elided blocks (gridpoints):    173385 (  180861432).
MG BCs: Computational effort saved:  99.9804%.
MG BCs: Charge after coarse-graining:           -9.0009770.
MG DL_MG: Calling solver with defect correction order = 8
MG DL_MG: Solver finished
MG Hartree energy from (\int phi*rho dr):              1429.376960
MG Hartree energy from (\int eps (grad phi)^2 dr):     1428.725444
MG Discrepancy due to finite box and discretization:     -0.651516 (  -0.04558%)
MG Correction to account for finite box:                  0.468925
MG Remaining discrepancy, due to discretization:         -0.182591 (  -0.01277%)
     Trial step:       0.434237118565
             Q1:  -11531.410308423452
 Quadratic coef:       0.345098810045
 Linear coef   :      -0.854559143430
           Qmin:  -11531.429878695479
Quadratic minimum step length (  0.537645000918) accepted
    Initial Ne1:    7191.99992140
      Final Ne1:    7192.00000000

=================== Penalty functional idempotency correction ==================
 RMS occupancy error at iteration   1:  0.000696 (step -0.4948 Ne1=   7192.0000)
 RMS occupancy error at iteration   2:  0.000009 (step -0.5006 Ne1=   7192.0000)
            Final RMS occupancy error   :  0.000000 (Ne1=   7192.0000)
               Final occupancy bounds   : [  0.0000,  1.0000]
================================================================================

    3        -1.153090084809E+04     2.1430E-04     1.9383E-04    -3.0280E+00
MG BCs: +ve charge blocks (gridpoints):     30894 (   17226931).
MG BCs: -ve charge blocks (gridpoints):      8195 (    1089641).
MG BCs:     Elided blocks (gridpoints):    173384 (  180861309).
MG BCs: Computational effort saved:  99.9804%.
MG BCs: Charge after coarse-graining:           -9.0009769.
MG DL_MG: Calling solver with defect correction order = 8
MG DL_MG: Solver finished
MG Hartree energy from (\int phi*rho dr):              1428.854466
MG Hartree energy from (\int eps (grad phi)^2 dr):     1428.203062
MG Discrepancy due to finite box and discretization:     -0.651403 (  -0.04559%)
MG Correction to account for finite box:                  0.468849
MG Remaining discrepancy, due to discretization:         -0.182555 (  -0.01278%)
      ideal mu1:      -0.769833959794
             Q0:  -11531.434588745586
             G0:      -0.591491120661
   RMS gradient:       0.000117677153
MG BCs: +ve charge blocks (gridpoints):     30895 (   17228121).
MG BCs: -ve charge blocks (gridpoints):      8194 (    1089414).
MG BCs:     Elided blocks (gridpoints):    173382 (  180860346).
MG BCs: Computational effort saved:  99.9804%.
MG BCs: Charge after coarse-graining:           -9.0009770.
MG DL_MG: Calling solver with defect correction order = 8
MG DL_MG: Solver finished
MG Hartree energy from (\int phi*rho dr):              1430.073430
MG Hartree energy from (\int eps (grad phi)^2 dr):     1429.422013
MG Discrepancy due to finite box and discretization:     -0.651418 (  -0.04555%)
MG Correction to account for finite box:                  0.468759
MG Remaining discrepancy, due to discretization:         -0.182658 (  -0.01277%)
     Trial step:       0.483182590756
             Q1:  -11531.595631511533
 Quadratic coef:       0.124755446142
 Linear coef   :      -0.285798212090
           Qmin:  -11531.598270213128
Quadratic minimum step length (  0.553453676056) accepted
    Initial Ne1:    7191.99988134
      Final Ne1:    7192.00000000

=================== Penalty functional idempotency correction ==================
 RMS occupancy error at iteration   1:  0.000576 (step -0.4733 Ne1=   7192.0000)
 RMS occupancy error at iteration   2:  0.000019 (step -0.5002 Ne1=   7192.0000)
            Final RMS occupancy error   :  0.000000 (Ne1=   7192.0000)
               Final occupancy bounds   : [  0.0000,  1.0000]
================================================================================

    4        -1.153143458875E+04     1.1768E-04     1.0644E-04    -5.3374E-01
MG BCs: +ve charge blocks (gridpoints):     30897 (   17228244).
MG BCs: -ve charge blocks (gridpoints):      8193 (    1089401).
MG BCs:     Elided blocks (gridpoints):    173380 (  180860236).
MG BCs: Computational effort saved:  99.9804%.
MG BCs: Charge after coarse-graining:           -9.0009770.
MG DL_MG: Calling solver with defect correction order = 8
MG DL_MG: Solver finished
MG Hartree energy from (\int phi*rho dr):              1430.252963
MG Hartree energy from (\int eps (grad phi)^2 dr):     1429.601541
MG Discrepancy due to finite box and discretization:     -0.651422 (  -0.04555%)
MG Correction to account for finite box:                  0.468747
MG Remaining discrepancy, due to discretization:         -0.182675 (  -0.01277%)
      ideal mu1:      -0.770113218741
             Q0:  -11531.598187146592
             G0:      -0.336747517645
   RMS gradient:       0.000089425450
MG BCs: +ve charge blocks (gridpoints):     30902 (   17228684).
MG BCs: -ve charge blocks (gridpoints):      8190 (    1089170).
MG BCs:     Elided blocks (gridpoints):    173375 (  180860027).
MG BCs: Computational effort saved:  99.9804%.
MG BCs: Charge after coarse-graining:           -9.0009770.
MG DL_MG: Calling solver with defect correction order = 8
MG DL_MG: Solver finished
MG Hartree energy from (\int phi*rho dr):              1430.829812
MG Hartree energy from (\int eps (grad phi)^2 dr):     1430.178140
MG Discrepancy due to finite box and discretization:     -0.651672 (  -0.04555%)
MG Correction to account for finite box:                  0.468811
MG Remaining discrepancy, due to discretization:         -0.182861 (  -0.01278%)
     Trial step:       0.517125885119
             Q1:  -11531.713005595142
 Quadratic coef:       0.059322409574
 Linear coef   :      -0.174140858124
           Qmin:  -11531.725984713676
Quadratic minimum step length (  0.759011190204) accepted
    Initial Ne1:    7191.99969574
      Final Ne1:    7192.00000000

=================== Penalty functional idempotency correction ==================
 RMS occupancy error at iteration   1:  0.002038 (step -0.3809 Ne1=   7192.0000)
 RMS occupancy error at iteration   2:  0.000106 (step -0.4978 Ne1=   7192.0000)
 RMS occupancy error at iteration   3:  0.000001 (step -0.5000 Ne1=   7192.0000)
            Final RMS occupancy error   :  0.000000 (Ne1=   7192.0000)
               Final occupancy bounds   : [  0.0000,  1.0000]
================================================================================

    5        -1.153159818715E+04     8.9425E-05     8.0883E-05    -1.6360E-01
MG BCs: +ve charge blocks (gridpoints):     30900 (   17228866).
MG BCs: -ve charge blocks (gridpoints):      8192 (    1089048).
MG BCs:     Elided blocks (gridpoints):    173377 (  180859967).
MG BCs: Computational effort saved:  99.9804%.
MG BCs: Charge after coarse-graining:           -9.0009770.
MG DL_MG: Calling solver with defect correction order = 8
MG DL_MG: Solver finished
MG Hartree energy from (\int phi*rho dr):              1431.114586
MG Hartree energy from (\int eps (grad phi)^2 dr):     1430.462809
MG Discrepancy due to finite box and discretization:     -0.651777 (  -0.04554%)
MG Correction to account for finite box:                  0.468827
MG Remaining discrepancy, due to discretization:         -0.182951 (  -0.01278%)
      ideal mu1:      -0.769321365824
             Q0:  -11531.718988414155
             G0:      -0.309657951129
   RMS gradient:       0.000087932574
MG BCs: +ve charge blocks (gridpoints):     30902 (   17227954).
MG BCs: -ve charge blocks (gridpoints):      8197 (    1089514).
MG BCs:     Elided blocks (gridpoints):    173375 (  180860413).
MG BCs: Computational effort saved:  99.9804%.
MG BCs: Charge after coarse-graining:           -9.0009767.
MG DL_MG: Calling solver with defect correction order = 8
MG DL_MG: Solver finished
MG Hartree energy from (\int phi*rho dr):              1429.186071
MG Hartree energy from (\int eps (grad phi)^2 dr):     1428.534218
MG Discrepancy due to finite box and discretization:     -0.651853 (  -0.04561%)
MG Correction to account for finite box:                  0.468945
MG Remaining discrepancy, due to discretization:         -0.182908 (  -0.01280%)
     Trial step:       0.626501662847
             Q1:  -11531.808302174439
 Quadratic coef:       0.104687461013
 Linear coef   :      -0.194001221296
           Qmin:  -11531.808866594169
Quadratic minimum step length (  0.580499739702) accepted
    Initial Ne1:    7191.99977496
      Final Ne1:    7192.00000000

=================== Penalty functional idempotency correction ==================
 RMS occupancy error at iteration   1:  0.003585 (step -0.3231 Ne1=   7192.0000)
 RMS occupancy error at iteration   2:  0.000230 (step -0.4886 Ne1=   7192.0000)
 RMS occupancy error at iteration   3:  0.000003 (step -0.5000 Ne1=   7192.0000)
            Final RMS occupancy error   :  0.000000 (Ne1=   7192.0000)
               Final occupancy bounds   : [  0.0000,  1.0000]
================================================================================

    6        -1.153171898841E+04     8.7933E-05     7.9533E-05    -1.2080E-01
MG BCs: +ve charge blocks (gridpoints):     30902 (   17227997).
MG BCs: -ve charge blocks (gridpoints):      8196 (    1089495).
MG BCs:     Elided blocks (gridpoints):    173375 (  180860389).
MG BCs: Computational effort saved:  99.9804%.
MG BCs: Charge after coarse-graining:           -9.0009768.
MG DL_MG: Calling solver with defect correction order = 8
MG DL_MG: Solver finished
MG Hartree energy from (\int phi*rho dr):              1429.329336
MG Hartree energy from (\int eps (grad phi)^2 dr):     1428.677448
MG Discrepancy due to finite box and discretization:     -0.651888 (  -0.04561%)
MG Correction to account for finite box:                  0.468979
MG Remaining discrepancy, due to discretization:         -0.182909 (  -0.01280%)
      ideal mu1:      -0.768521439834
             Q0:  -11531.813955026213
             G0:      -0.221338213449
   RMS gradient:       0.000072323744
MG BCs: +ve charge blocks (gridpoints):     30900 (   17228452).
MG BCs: -ve charge blocks (gridpoints):      8193 (    1089272).
MG BCs:     Elided blocks (gridpoints):    173378 (  180860157).
MG BCs: Computational effort saved:  99.9804%.
MG BCs: Charge after coarse-graining:           -9.0009771.
MG DL_MG: Calling solver with defect correction order = 8
MG DL_MG: Solver finished
MG Hartree energy from (\int phi*rho dr):              1429.798760
MG Hartree energy from (\int eps (grad phi)^2 dr):     1429.147150
MG Discrepancy due to finite box and discretization:     -0.651609 (  -0.04557%)
MG Correction to account for finite box:                  0.468909
MG Remaining discrepancy, due to discretization:         -0.182700 (  -0.01278%)
     Trial step:       0.603062229132
             Q1:  -11531.886185694369
 Quadratic coef:       0.061250048238
 Linear coef   :      -0.133480716395
           Qmin:  -11531.886677832814
Quadratic minimum step length (  0.657119305945) accepted
    Initial Ne1:    7191.99999870
      Final Ne1:    7192.00000000

=================== Penalty functional idempotency correction ==================
 RMS occupancy error at iteration   1:  0.000099 (step -0.4951 Ne1=   7192.0000)
 RMS occupancy error at iteration   2:  0.000000 (step -0.5000 Ne1=   7192.0000)
            Final RMS occupancy error   :  0.000000 (Ne1=   7192.0000)
               Final occupancy bounds   : [  0.0000,  1.0000]
================================================================================

    7        -1.153181395503E+04     7.2324E-05     6.5415E-05    -9.4967E-02
MG BCs: +ve charge blocks (gridpoints):     30901 (   17228475).
MG BCs: -ve charge blocks (gridpoints):      8193 (    1089257).
MG BCs:     Elided blocks (gridpoints):    173377 (  180860149).
MG BCs: Computational effort saved:  99.9804%.
MG BCs: Charge after coarse-graining:           -9.0009771.
MG DL_MG: Calling solver with defect correction order = 8
MG DL_MG: Solver finished
MG Hartree energy from (\int phi*rho dr):              1429.841136
MG Hartree energy from (\int eps (grad phi)^2 dr):     1429.189552
MG Discrepancy due to finite box and discretization:     -0.651584 (  -0.04557%)
MG Correction to account for finite box:                  0.468903
MG Remaining discrepancy, due to discretization:         -0.182682 (  -0.01278%)
      ideal mu1:      -0.769368351636
             Q0:  -11531.886670069536
             G0:      -0.158804999294
   RMS gradient:       0.000061267580
MG BCs: +ve charge blocks (gridpoints):     30902 (   17228261).
MG BCs: -ve charge blocks (gridpoints):      8193 (    1089153).
MG BCs:     Elided blocks (gridpoints):    173376 (  180860467).
MG BCs: Computational effort saved:  99.9804%.
MG BCs: Charge after coarse-graining:           -9.0009772.
MG DL_MG: Calling solver with defect correction order = 8
MG DL_MG: Solver finished
MG Hartree energy from (\int phi*rho dr):              1429.963832
MG Hartree energy from (\int eps (grad phi)^2 dr):     1429.312401
MG Discrepancy due to finite box and discretization:     -0.651432 (  -0.04556%)
MG Correction to account for finite box:                  0.468792
MG Remaining discrepancy, due to discretization:         -0.182640 (  -0.01277%)
     Trial step:       0.629510788985
             Q1:  -11531.941138269613
 Quadratic coef:       0.045501260323
 Linear coef   :      -0.099969460400
           Qmin:  -11531.941580048631
Quadratic minimum step length (  0.691539678722) accepted
    Initial Ne1:    7191.99999901
      Final Ne1:    7192.00000000

=================== Penalty functional idempotency correction ==================
 RMS occupancy error at iteration   1:  0.000470 (step -0.4744 Ne1=   7192.0000)
 RMS occupancy error at iteration   2:  0.000006 (step -0.5000 Ne1=   7192.0000)
            Final RMS occupancy error   :  0.000000 (Ne1=   7192.0000)
               Final occupancy bounds   : [  0.0000,  1.0000]
================================================================================

    8        -1.153188667007E+04     6.1268E-05     5.5415E-05    -7.2715E-02
MG BCs: +ve charge blocks (gridpoints):     30902 (   17228216).
MG BCs: -ve charge blocks (gridpoints):      8193 (    1089143).
MG BCs:     Elided blocks (gridpoints):    173376 (  180860522).
MG BCs: Computational effort saved:  99.9804%.
MG BCs: Charge after coarse-graining:           -9.0009773.
MG DL_MG: Calling solver with defect correction order = 8
MG DL_MG: Solver finished
MG Hartree energy from (\int phi*rho dr):              1429.976633
MG Hartree energy from (\int eps (grad phi)^2 dr):     1429.325216
MG Discrepancy due to finite box and discretization:     -0.651417 (  -0.04555%)
MG Correction to account for finite box:                  0.468782
MG Remaining discrepancy, due to discretization:         -0.182636 (  -0.01277%)
      ideal mu1:      -0.769123547417
             Q0:  -11531.941479396890
             G0:      -0.108214221191
   RMS gradient:       0.000050602153
MG BCs: +ve charge blocks (gridpoints):     30897 (   17227814).
MG BCs: -ve charge blocks (gridpoints):      8195 (    1089301).
MG BCs:     Elided blocks (gridpoints):    173381 (  180860766).
MG BCs: Computational effort saved:  99.9804%.
MG BCs: Charge after coarse-graining:           -9.0009771.
MG DL_MG: Calling solver with defect correction order = 8
MG DL_MG: Solver finished
MG Hartree energy from (\int phi*rho dr):              1429.663831
MG Hartree energy from (\int eps (grad phi)^2 dr):     1429.012538
MG Discrepancy due to finite box and discretization:     -0.651293 (  -0.04556%)
MG Correction to account for finite box:                  0.468646
MG Remaining discrepancy, due to discretization:         -0.182647 (  -0.01278%)
     Trial step:       0.659796702604
             Q1:  -11531.987989213434
 Quadratic coef:       0.024889569771
 Linear coef   :      -0.071399386316
           Qmin:  -11531.992684303334
Quadratic minimum step length (  0.946361871502) accepted
    Initial Ne1:    7192.00000192
      Final Ne1:    7192.00000000

=================== Penalty functional idempotency correction ==================
 RMS occupancy error at iteration   1:  0.001633 (step -0.4163 Ne1=   7192.0000)
 RMS occupancy error at iteration   2:  0.000055 (step -0.4989 Ne1=   7192.0000)
 RMS occupancy error at iteration   3:  0.000000 (step -0.5000 Ne1=   7192.0000)
            Final RMS occupancy error   :  0.000000 (Ne1=   7192.0000)
               Final occupancy bounds   : [  0.0000,  1.0000]
================================================================================

    9        -1.153194147940E+04     5.0602E-05     4.5768E-05    -5.4809E-02
MG BCs: +ve charge blocks (gridpoints):     30897 (   17227676).
MG BCs: -ve charge blocks (gridpoints):      8195 (    1089363).
MG BCs:     Elided blocks (gridpoints):    173381 (  180860842).
MG BCs: Computational effort saved:  99.9804%.
MG BCs: Charge after coarse-graining:           -9.0009771.
MG DL_MG: Calling solver with defect correction order = 8
MG DL_MG: Solver finished
MG Hartree energy from (\int phi*rho dr):              1429.532964
MG Hartree energy from (\int eps (grad phi)^2 dr):     1428.881718
MG Discrepancy due to finite box and discretization:     -0.651245 (  -0.04556%)
MG Correction to account for finite box:                  0.468593
MG Remaining discrepancy, due to discretization:         -0.182652 (  -0.01278%)
      ideal mu1:      -0.768010032025
   10        -1.153199211530E+04     5.3166E-05     4.8087E-05    -5.0636E-02
Finished density kernel iterations (  10)

Writing density kernel to file "host_28981.vacuum_dkn" ... done


>>> Density kernel optimised for the current NGWF basis:
     ~~~~~~~~~~~~~~~~~~~~~~~~~~~~~~~~~~~~~~~~~~~~~~~~~~~~~~~~~~~
     Total energy                =  -1.15319921153029E+04  Eh
     Estimated bandgap           =  -4.0999E-01  Eh
     RMS occupancy error         =   6.9786E-12
     [H,K] commutator            =   4.8087E-05
     Occupancy bounds            = [  0.000:  1.000]
     ~~~~~~~~~~~~~~~~~~~~~~~~~~~~~~~~~~~~~~~~~~~~~~~~~~~~~~~~~~~




################################################################################
########################### NGWF CG iteration  001 #############################
################################################################################
****** Reciprocal space K.E. preconditioning with k_zero =  3.5000 a0^-1 *******

>>> Checking for convergence of NGWFs:   NOT CONVERGED
  ========================================================================
         NGWF RMS gradient =  1.6033E-03 >  2.0000E-06  | above tolerance
  ========================================================================

>>> Improving NGWFs using line search:
============ Calculation of NGWF S^-1 using Hotelling algorithm ================ 
         Iteration  |  Frobenius norm and Maximum abs value    (of I-S*S_n^-1)   
               1       0.19858865E+00     0.54256105E-02
               2       0.92543222E-03     0.45902258E-04
               3       0.35332924E-07     0.34298790E-08
               4       0.12331433E-12     0.59952043E-14
================================================================================
MG BCs: +ve charge blocks (gridpoints):     30376 (   17171209).
MG BCs: -ve charge blocks (gridpoints):      8208 (    1088942).
MG BCs:     Elided blocks (gridpoints):    173906 (  180917730).
MG BCs: Computational effort saved:  99.9806%.
MG BCs: Charge after coarse-graining:           -9.0009794.
MG DL_MG: Calling solver with defect correction order = 8
MG DL_MG: Solver finished
MG Hartree energy from (\int phi*rho dr):              1397.629676
MG Hartree energy from (\int eps (grad phi)^2 dr):     1396.979261
MG Discrepancy due to finite box and discretization:     -0.650415 (  -0.04654%)
MG Correction to account for finite box:                  0.468534
MG Remaining discrepancy, due to discretization:         -0.181882 (  -0.01301%)
============ Calculation of NGWF S^-1 using Hotelling algorithm ================ 
         Iteration  |  Frobenius norm and Maximum abs value    (of I-S*S_n^-1)   
               1       0.18423671E+01     0.42815063E-01
               2       0.71003695E-01     0.26250390E-02
               3       0.14760694E-03     0.11475669E-04
               4       0.13346252E-08     0.23024638E-09
               5       0.10707150E-12     0.64392935E-14
================================================================================
------------------------------- NGWF line search -------------------------------
RMS gradient                =       0.00160330386458
Trial step length           =               0.122474
Gradient along search dir.  =       -278.05274458843
Functional at step 0        =  -11531.99211530294269
Functional at step 1        =  -11563.42675958410837
Functional predicted        =  -11642.66220591920683
Selected quadratic step     =               0.796037
--------------------------- NGWF line search finished --------------------------
                                               
Writing NGWFs to file "host_28981.vacuum_tightbox_ngwfs"....  done

>>> Optimising kernel for current NGWFs:
   Initial electron number for spin 1:    7226.47080721
     Final electron number for spin 1:    7192.00000000

=================== Penalty functional idempotency correction ==================
 RMS occupancy error at iteration   1:  0.004295 (step -0.4858 Ne1=   7192.0000)
 RMS occupancy error at iteration   2:  0.000072 (step -0.5003 Ne1=   7192.0000)
            Final RMS occupancy error   :  0.000000 (Ne1=   7192.0000)
               Final occupancy bounds   : [  0.0000,  1.0000]
================================================================================

................................................................................
<<<<<<<<<<<<<< LNV (Original version) density kernel optimisation >>>>>>>>>>>>>>
~~~~~~~~~~~~~~~~~~~~~~~~~~~~~~~~~~~~~~~~~~~~~~~~~~~~~~~~~~~~~~~~~~~~~~~~~~~~~~~~
   iter  |      energy (Eh)       | rms gradient |  commutator  |   dE (Eh)
MG BCs: +ve charge blocks (gridpoints):     24706 (   16863135).
MG BCs: -ve charge blocks (gridpoints):      8338 (    1072505).
MG BCs:     Elided blocks (gridpoints):    179582 (  181242241).
MG BCs: Computational effort saved:  99.9834%.
MG BCs: Charge after coarse-graining:           -9.0006765.
MG DL_MG: Calling solver with defect correction order = 8
MG DL_MG: Solver finished
MG Hartree energy from (\int phi*rho dr):              1244.216506
MG Hartree energy from (\int eps (grad phi)^2 dr):     1243.565917
MG Discrepancy due to finite box and discretization:     -0.650588 (  -0.05229%)
MG Correction to account for finite box:                  0.468271
MG Remaining discrepancy, due to discretization:         -0.182318 (  -0.01465%)
      ideal mu1:      -0.708555208201
             Q0:  -11641.869748157216
             G0:     -10.017733251007
   RMS gradient:       0.000486561152
MG BCs: +ve charge blocks (gridpoints):     24765 (   16879071).
MG BCs: -ve charge blocks (gridpoints):      8333 (    1069229).
MG BCs:     Elided blocks (gridpoints):    179523 (  181229581).
MG BCs: Computational effort saved:  99.9834%.
MG BCs: Charge after coarse-graining:           -9.0006719.
MG DL_MG: Calling solver with defect correction order = 8
MG DL_MG: Solver finished
MG Hartree energy from (\int phi*rho dr):              1260.991606
MG Hartree energy from (\int eps (grad phi)^2 dr):     1260.335594
MG Discrepancy due to finite box and discretization:     -0.656011 (  -0.05202%)
MG Correction to account for finite box:                  0.467137
MG Remaining discrepancy, due to discretization:         -0.188874 (  -0.01498%)
     Trial step:       0.790193927012
             Q1:  -11640.247517782263
 Quadratic coef:       9.538182352329
 Linear coef   :      -7.915951977377
           Qmin:  -11643.512154786526
Quadratic minimum step length (  0.327899852822) accepted
    Initial Ne1:    7191.99957115
      Final Ne1:    7192.00000000

=================== Penalty functional idempotency correction ==================
 RMS occupancy error at iteration   1:  0.000355 (step -0.4986 Ne1=   7192.0000)
 RMS occupancy error at iteration   2:  0.000000 (step -0.5000 Ne1=   7192.0000)
            Final RMS occupancy error   :  0.000000 (Ne1=   7192.0000)
               Final occupancy bounds   : [  0.0000,  1.0000]
================================================================================

    1        -1.164186974816E+04     4.8656E-04     4.4008E-04
MG BCs: +ve charge blocks (gridpoints):     24728 (   16869623).
MG BCs: -ve charge blocks (gridpoints):      8336 (    1071437).
MG BCs:     Elided blocks (gridpoints):    179560 (  181236821).
MG BCs: Computational effort saved:  99.9834%.
MG BCs: Charge after coarse-graining:           -9.0006745.
MG DL_MG: Calling solver with defect correction order = 8
MG DL_MG: Solver finished
MG Hartree energy from (\int phi*rho dr):              1250.045993
MG Hartree energy from (\int eps (grad phi)^2 dr):     1249.393287
MG Discrepancy due to finite box and discretization:     -0.652706 (  -0.05221%)
MG Correction to account for finite box:                  0.467761
MG Remaining discrepancy, due to discretization:         -0.184945 (  -0.01480%)
      ideal mu1:      -0.714837345044
             Q0:  -11643.481801529299
             G0:      -0.965753273458
   RMS gradient:       0.000151962313
MG BCs: +ve charge blocks (gridpoints):     24731 (   16869592).
MG BCs: -ve charge blocks (gridpoints):      8340 (    1072216).
MG BCs:     Elided blocks (gridpoints):    179557 (  181236073).
MG BCs: Computational effort saved:  99.9834%.
MG BCs: Charge after coarse-graining:           -9.0006743.
MG DL_MG: Calling solver with defect correction order = 8
MG DL_MG: Solver finished
MG Hartree energy from (\int phi*rho dr):              1251.192296
MG Hartree energy from (\int eps (grad phi)^2 dr):     1250.539391
MG Discrepancy due to finite box and discretization:     -0.652905 (  -0.05218%)
MG Correction to account for finite box:                  0.467589
MG Remaining discrepancy, due to discretization:         -0.185316 (  -0.01481%)
     Trial step:       0.509023056814
             Q1:  -11643.679257245502
 Quadratic coef:       0.294134967182
 Linear coef   :      -0.491590683384
           Qmin:  -11643.687201623603
Quadratic minimum step length (  0.425367637780) accepted
    Initial Ne1:    7191.99994572
      Final Ne1:    7192.00000000

=================== Penalty functional idempotency correction ==================
 RMS occupancy error at iteration   1:  0.000143 (step -0.4993 Ne1=   7192.0000)
 RMS occupancy error at iteration   2:  0.000000 (step -0.5000 Ne1=   7192.0000)
            Final RMS occupancy error   :  0.000000 (Ne1=   7192.0000)
               Final occupancy bounds   : [  0.0000,  1.0000]
================================================================================

    2        -1.164348180153E+04     1.5196E-04     1.3745E-04    -1.6121E+00
MG BCs: +ve charge blocks (gridpoints):     24729 (   16869583).
MG BCs: -ve charge blocks (gridpoints):      8340 (    1072092).
MG BCs:     Elided blocks (gridpoints):    179559 (  181236206).
MG BCs: Computational effort saved:  99.9834%.
MG BCs: Charge after coarse-graining:           -9.0006744.
MG DL_MG: Calling solver with defect correction order = 8
MG DL_MG: Solver finished
MG Hartree energy from (\int phi*rho dr):              1251.003669
MG Hartree energy from (\int eps (grad phi)^2 dr):     1250.350799
MG Discrepancy due to finite box and discretization:     -0.652870 (  -0.05219%)
MG Correction to account for finite box:                  0.467617
MG Remaining discrepancy, due to discretization:         -0.185253 (  -0.01481%)
      ideal mu1:      -0.716009626569
             Q0:  -11643.687650423613
             G0:      -0.163422699052
   RMS gradient:       0.000062079281
MG BCs: +ve charge blocks (gridpoints):     24729 (   16869328).
MG BCs: -ve charge blocks (gridpoints):      8340 (    1072369).
MG BCs:     Elided blocks (gridpoints):    179559 (  181236184).
MG BCs: Computational effort saved:  99.9834%.
MG BCs: Charge after coarse-graining:           -9.0006743.
MG DL_MG: Calling solver with defect correction order = 8
MG DL_MG: Solver finished
MG Hartree energy from (\int phi*rho dr):              1250.662027
MG Hartree energy from (\int eps (grad phi)^2 dr):     1250.009320
MG Discrepancy due to finite box and discretization:     -0.652707 (  -0.05219%)
MG Correction to account for finite box:                  0.467477
MG Remaining discrepancy, due to discretization:         -0.185230 (  -0.01481%)
     Trial step:       0.465319175677
             Q1:  -11643.740500263521
 Quadratic coef:       0.023193875702
 Linear coef   :      -0.076043715610
           Qmin:  -11643.749979880298
Quadratic minimum step length (  0.762800480542) accepted
    Initial Ne1:    7191.99998375
      Final Ne1:    7192.00000000

=================== Penalty functional idempotency correction ==================
 RMS occupancy error at iteration   1:  0.000162 (step -0.4925 Ne1=   7192.0000)
 RMS occupancy error at iteration   2:  0.000001 (step -0.5000 Ne1=   7192.0000)
            Final RMS occupancy error   :  0.000000 (Ne1=   7192.0000)
               Final occupancy bounds   : [  0.0000,  1.0000]
================================================================================

    3        -1.164368765042E+04     6.2079E-05     5.6149E-05    -2.0585E-01
MG BCs: +ve charge blocks (gridpoints):     24728 (   16869127).
MG BCs: -ve charge blocks (gridpoints):      8341 (    1072558).
MG BCs:     Elided blocks (gridpoints):    179560 (  181236196).
MG BCs: Computational effort saved:  99.9834%.
MG BCs: Charge after coarse-graining:           -9.0006743.
MG DL_MG: Calling solver with defect correction order = 8
MG DL_MG: Solver finished
MG Hartree energy from (\int phi*rho dr):              1250.443658
MG Hartree energy from (\int eps (grad phi)^2 dr):     1249.791056
MG Discrepancy due to finite box and discretization:     -0.652602 (  -0.05219%)
MG Correction to account for finite box:                  0.467387
MG Remaining discrepancy, due to discretization:         -0.185215 (  -0.01481%)
      ideal mu1:      -0.715423948367
             Q0:  -11643.750016724807
             G0:      -0.070890548015
   RMS gradient:       0.000040902990
MG BCs: +ve charge blocks (gridpoints):     24728 (   16868890).
MG BCs: -ve charge blocks (gridpoints):      8341 (    1072659).
MG BCs:     Elided blocks (gridpoints):    179560 (  181236332).
MG BCs: Computational effort saved:  99.9834%.
MG BCs: Charge after coarse-graining:           -9.0006743.
MG DL_MG: Calling solver with defect correction order = 8
MG DL_MG: Solver finished
MG Hartree energy from (\int phi*rho dr):              1250.356204
MG Hartree energy from (\int eps (grad phi)^2 dr):     1249.703888
MG Discrepancy due to finite box and discretization:     -0.652316 (  -0.05217%)
MG Correction to account for finite box:                  0.467241
MG Remaining discrepancy, due to discretization:         -0.185075 (  -0.01480%)
     Trial step:       0.595773187389
             Q1:  -11643.776324559585
 Quadratic coef:       0.015926852968
 Linear coef   :      -0.042234687747
           Qmin:  -11643.778016117603
Quadratic minimum step length (  0.789933032847) accepted
    Initial Ne1:    7191.99999236
      Final Ne1:    7192.00000000

=================== Penalty functional idempotency correction ==================
 RMS occupancy error at iteration   1:  0.000312 (step -0.4810 Ne1=   7192.0000)
 RMS occupancy error at iteration   2:  0.000003 (step -0.5000 Ne1=   7192.0000)
            Final RMS occupancy error   :  0.000000 (Ne1=   7192.0000)
               Final occupancy bounds   : [  0.0000,  1.0000]
================================================================================

    4        -1.164375001672E+04     4.0903E-05     3.6996E-05    -6.2366E-02
MG BCs: +ve charge blocks (gridpoints):     24728 (   16868883).
MG BCs: -ve charge blocks (gridpoints):      8340 (    1072633).
MG BCs:     Elided blocks (gridpoints):    179560 (  181236365).
MG BCs: Computational effort saved:  99.9834%.
MG BCs: Charge after coarse-graining:           -9.0006743.
MG DL_MG: Calling solver with defect correction order = 8
MG DL_MG: Solver finished
MG Hartree energy from (\int phi*rho dr):              1250.328883
MG Hartree energy from (\int eps (grad phi)^2 dr):     1249.676661
MG Discrepancy due to finite box and discretization:     -0.652222 (  -0.05216%)
MG Correction to account for finite box:                  0.467192
MG Remaining discrepancy, due to discretization:         -0.185030 (  -0.01480%)
      ideal mu1:      -0.715782501000
             Q0:  -11643.777905596537
             G0:      -0.073988569698
   RMS gradient:       0.000041878957
MG BCs: +ve charge blocks (gridpoints):     24727 (   16870010).
MG BCs: -ve charge blocks (gridpoints):      8336 (    1072190).
MG BCs:     Elided blocks (gridpoints):    179561 (  181235681).
MG BCs: Computational effort saved:  99.9834%.
MG BCs: Charge after coarse-graining:           -9.0006741.
MG DL_MG: Calling solver with defect correction order = 8
MG DL_MG: Solver finished
MG Hartree energy from (\int phi*rho dr):              1251.150330
MG Hartree energy from (\int eps (grad phi)^2 dr):     1250.498466
MG Discrepancy due to finite box and discretization:     -0.651863 (  -0.05210%)
MG Correction to account for finite box:                  0.466919
MG Remaining discrepancy, due to discretization:         -0.184945 (  -0.01478%)
     Trial step:       0.686018163611
             Q1:  -11643.810185805778
 Quadratic coef:       0.018477293472
 Linear coef   :      -0.050757502712
           Qmin:  -11643.812763570806
Quadratic minimum step length (  0.942252956405) accepted
    Initial Ne1:    7191.99998882
      Final Ne1:    7192.00000000

=================== Penalty functional idempotency correction ==================
 RMS occupancy error at iteration   1:  0.001338 (step -0.4279 Ne1=   7192.0000)
 RMS occupancy error at iteration   2:  0.000038 (step -0.4990 Ne1=   7192.0000)
            Final RMS occupancy error   :  0.000000 (Ne1=   7192.0000)
               Final occupancy bounds   : [ -0.0000,  1.0000]
================================================================================

    5        -1.164377790560E+04     4.1879E-05     3.7879E-05    -2.7889E-02
MG BCs: +ve charge blocks (gridpoints):     24727 (   16870533).
MG BCs: -ve charge blocks (gridpoints):      8334 (    1071974).
MG BCs:     Elided blocks (gridpoints):    179561 (  181235374).
MG BCs: Computational effort saved:  99.9834%.
MG BCs: Charge after coarse-graining:           -9.0006740.
MG DL_MG: Calling solver with defect correction order = 8
MG DL_MG: Solver finished
MG Hartree energy from (\int phi*rho dr):              1251.460556
MG Hartree energy from (\int eps (grad phi)^2 dr):     1250.808819
MG Discrepancy due to finite box and discretization:     -0.651737 (  -0.05208%)
MG Correction to account for finite box:                  0.466824
MG Remaining discrepancy, due to discretization:         -0.184913 (  -0.01478%)
      ideal mu1:      -0.717309014831
             Q0:  -11643.812095086905
             G0:      -0.086486352026
   RMS gradient:       0.000045177313
MG BCs: +ve charge blocks (gridpoints):     24727 (   16870780).
MG BCs: -ve charge blocks (gridpoints):      8333 (    1072033).
MG BCs:     Elided blocks (gridpoints):    179561 (  181235068).
MG BCs: Computational effort saved:  99.9834%.
MG BCs: Charge after coarse-graining:           -9.0006739.
MG DL_MG: Calling solver with defect correction order = 8
MG DL_MG: Solver finished
MG Hartree energy from (\int phi*rho dr):              1251.301157
MG Hartree energy from (\int eps (grad phi)^2 dr):     1250.649766
MG Discrepancy due to finite box and discretization:     -0.651391 (  -0.05206%)
MG Correction to account for finite box:                  0.466471
MG Remaining discrepancy, due to discretization:         -0.184920 (  -0.01478%)
     Trial step:       0.803991693247
             Q1:  -11643.853026301367
 Quadratic coef:       0.028603094146
 Linear coef   :      -0.069534308608
           Qmin:  -11643.854354676452
Quadratic minimum step length (  0.977254527619) accepted
    Initial Ne1:    7192.00070873
      Final Ne1:    7192.00000000

=================== Penalty functional idempotency correction ==================
 RMS occupancy error at iteration   1:  0.003902 (step -0.3414 Ne1=   7192.0000)
 RMS occupancy error at iteration   2:  0.000176 (step -0.4963 Ne1=   7192.0000)
 RMS occupancy error at iteration   3:  0.000003 (step -0.5000 Ne1=   7192.0000)
            Final RMS occupancy error   :  0.000000 (Ne1=   7192.0000)
               Final occupancy bounds   : [  0.0000,  1.0000]
================================================================================

    6        -1.164381209509E+04     4.5177E-05     4.0862E-05    -3.4189E-02
MG BCs: +ve charge blocks (gridpoints):     24727 (   16870878).
MG BCs: -ve charge blocks (gridpoints):      8333 (    1072013).
MG BCs:     Elided blocks (gridpoints):    179561 (  181234990).
MG BCs: Computational effort saved:  99.9834%.
MG BCs: Charge after coarse-graining:           -9.0006739.
MG DL_MG: Calling solver with defect correction order = 8
MG DL_MG: Solver finished
MG Hartree energy from (\int phi*rho dr):              1251.271644
MG Hartree energy from (\int eps (grad phi)^2 dr):     1250.620301
MG Discrepancy due to finite box and discretization:     -0.651343 (  -0.05205%)
MG Correction to account for finite box:                  0.466420
MG Remaining discrepancy, due to discretization:         -0.184923 (  -0.01478%)
      ideal mu1:      -0.717461823185
             Q0:  -11643.854909546324
             G0:      -0.087716135182
   RMS gradient:       0.000045529454
MG BCs: +ve charge blocks (gridpoints):     24728 (   16868547).
MG BCs: -ve charge blocks (gridpoints):      8338 (    1072754).
MG BCs:     Elided blocks (gridpoints):    179560 (  181236580).
MG BCs: Computational effort saved:  99.9834%.
MG BCs: Charge after coarse-graining:           -9.0006744.
MG DL_MG: Calling solver with defect correction order = 8
MG DL_MG: Solver finished
MG Hartree energy from (\int phi*rho dr):              1249.971465
MG Hartree energy from (\int eps (grad phi)^2 dr):     1249.319928
MG Discrepancy due to finite box and discretization:     -0.651538 (  -0.05212%)
MG Correction to account for finite box:                  0.466528
MG Remaining discrepancy, due to discretization:         -0.185010 (  -0.01480%)
     Trial step:       0.886399753155
             Q1:  -11643.883176861913
 Quadratic coef:       0.049484244984
 Linear coef   :      -0.077751560573
           Qmin:  -11643.885451111490
Quadratic minimum step length (  0.696372796243) accepted
    Initial Ne1:    7191.99999890
      Final Ne1:    7192.00000000

=================== Penalty functional idempotency correction ==================
 RMS occupancy error at iteration   1:  0.000068 (step -0.4952 Ne1=   7192.0000)
 RMS occupancy error at iteration   2:  0.000000 (step -0.5000 Ne1=   7192.0000)
            Final RMS occupancy error   :  0.000000 (Ne1=   7192.0000)
               Final occupancy bounds   : [  0.0000,  1.0000]
================================================================================

    7        -1.164385490955E+04     4.5529E-05     4.1180E-05    -4.2814E-02
MG BCs: +ve charge blocks (gridpoints):     24728 (   16869037).
MG BCs: -ve charge blocks (gridpoints):      8336 (    1072599).
MG BCs:     Elided blocks (gridpoints):    179560 (  181236245).
MG BCs: Computational effort saved:  99.9834%.
MG BCs: Charge after coarse-graining:           -9.0006743.
MG DL_MG: Calling solver with defect correction order = 8
MG DL_MG: Solver finished
MG Hartree energy from (\int phi*rho dr):              1250.248371
MG Hartree energy from (\int eps (grad phi)^2 dr):     1249.596874
MG Discrepancy due to finite box and discretization:     -0.651497 (  -0.05211%)
MG Correction to account for finite box:                  0.466506
MG Remaining discrepancy, due to discretization:         -0.184991 (  -0.01480%)
      ideal mu1:      -0.716456368769
             Q0:  -11643.885479513090
             G0:      -0.077084250500
   RMS gradient:       0.000042672496
MG BCs: +ve charge blocks (gridpoints):     24727 (   16869365).
MG BCs: -ve charge blocks (gridpoints):      8339 (    1072475).
MG BCs:     Elided blocks (gridpoints):    179561 (  181236041).
MG BCs: Computational effort saved:  99.9834%.
MG BCs: Charge after coarse-graining:           -9.0006742.
MG DL_MG: Calling solver with defect correction order = 8
MG DL_MG: Solver finished
MG Hartree energy from (\int phi*rho dr):              1250.111218
MG Hartree energy from (\int eps (grad phi)^2 dr):     1249.459557
MG Discrepancy due to finite box and discretization:     -0.651661 (  -0.05213%)
[...]
MG Discrepancy due to finite box and discretization:     -0.190493 (  -0.01577%)
MG Correction to account for finite box:                  0.006319
MG Remaining discrepancy, due to discretization:         -0.184175 (  -0.01524%)
     Trial step:       0.249626310637
             Q1:  -11678.547177382861
 Quadratic coef:       0.000000000291
 Linear coef   :      -0.000000000175
           Qmin:  -11678.547177383003
Quadratic minimum step length (  0.075061627362) accepted
    Initial Ne1:    7192.00000000
      Final Ne1:    7192.00000000

=================== Penalty functional idempotency correction ==================
 RMS occupancy error at iteration   1:  0.000000 (step -0.5000 Ne1=   7192.0000)
            Final RMS occupancy error   :  0.000000 (Ne1=   7192.0000)
               Final occupancy bounds   : [ -0.0000,  1.0000]
================================================================================

    7        -1.167854717738E+04     4.0706E-09     3.6818E-09     0.0000E+00

Reusing previously generated solute cavity.
MG BCs: +ve charge blocks (gridpoints):     28973 (   19078833).
MG BCs: -ve charge blocks (gridpoints):      8339 (    1041325).
MG BCs:     Elided blocks (gridpoints):    175315 (  179057723).
MG BCs: Computational effort saved:  99.9813%.
MG BCs: Charge after coarse-graining:           -9.0009557.
MG DL_MG: Calling solver with defect correction order = 8
MG DL_MG: Solver finished
MG Hartree energy from (\int phi*rho dr):              1208.274489
MG Hartree energy from (\int eps (grad phi)^2 dr):     1208.083995
MG Discrepancy due to finite box and discretization:     -0.190493 (  -0.01577%)
MG Correction to account for finite box:                  0.006319
MG Remaining discrepancy, due to discretization:         -0.184175 (  -0.01524%)
      ideal mu1:      -0.480858898115
             Q0:  -11678.547177382978
             G0:      -0.000000001130
   RMS gradient:       0.000000003733

Reusing previously generated solute cavity.
MG BCs: +ve charge blocks (gridpoints):     28973 (   19078833).
MG BCs: -ve charge blocks (gridpoints):      8339 (    1041325).
MG BCs:     Elided blocks (gridpoints):    175315 (  179057723).
MG BCs: Computational effort saved:  99.9813%.
MG BCs: Charge after coarse-graining:           -9.0009557.
MG DL_MG: Calling solver with defect correction order = 8
MG DL_MG: Solver finished
MG Hartree energy from (\int phi*rho dr):              1208.274483
MG Hartree energy from (\int eps (grad phi)^2 dr):     1208.083989
MG Discrepancy due to finite box and discretization:     -0.190493 (  -0.01577%)
MG Correction to account for finite box:                  0.006319
MG Remaining discrepancy, due to discretization:         -0.184175 (  -0.01524%)
     Trial step:       0.136884466280
             Q1:  -11678.547177382745
 Quadratic coef:       0.000000000387
 Linear coef   :      -0.000000000155
           Qmin:  -11678.547177382992
Quadratic minimum step length (  0.027315234925) accepted
    Initial Ne1:    7192.00000000
      Final Ne1:    7192.00000000

=================== Penalty functional idempotency correction ==================
 RMS occupancy error at iteration   1:  0.000000 (step -0.5000 Ne1=   7192.0000)
            Final RMS occupancy error   :  0.000000 (Ne1=   7192.0000)
               Final occupancy bounds   : [ -0.0000,  1.0000]
================================================================================

    8        -1.167854717738E+04     3.7328E-09     3.3763E-09     0.0000E+00

Reusing previously generated solute cavity.
MG BCs: +ve charge blocks (gridpoints):     28973 (   19078833).
MG BCs: -ve charge blocks (gridpoints):      8339 (    1041325).
MG BCs:     Elided blocks (gridpoints):    175315 (  179057723).
MG BCs: Computational effort saved:  99.9813%.
MG BCs: Charge after coarse-graining:           -9.0009557.
MG DL_MG: Calling solver with defect correction order = 8
MG DL_MG: Solver finished
MG Hartree energy from (\int phi*rho dr):              1208.274488
MG Hartree energy from (\int eps (grad phi)^2 dr):     1208.083994
MG Discrepancy due to finite box and discretization:     -0.190493 (  -0.01577%)
MG Correction to account for finite box:                  0.006319
MG Remaining discrepancy, due to discretization:         -0.184175 (  -0.01524%)
      ideal mu1:      -0.480858896696
             Q0:  -11678.547177382978
             G0:      -0.000000001475
   RMS gradient:       0.000000003525

Reusing previously generated solute cavity.
MG BCs: +ve charge blocks (gridpoints):     28973 (   19078833).
MG BCs: -ve charge blocks (gridpoints):      8339 (    1041325).
MG BCs:     Elided blocks (gridpoints):    175315 (  179057723).
MG BCs: Computational effort saved:  99.9813%.
MG BCs: Charge after coarse-graining:           -9.0009557.
MG DL_MG: Calling solver with defect correction order = 8
MG DL_MG: Solver finished
MG Hartree energy from (\int phi*rho dr):              1208.274484
MG Hartree energy from (\int eps (grad phi)^2 dr):     1208.083990
MG Discrepancy due to finite box and discretization:     -0.190493 (  -0.01577%)
MG Correction to account for finite box:                  0.006319
MG Remaining discrepancy, due to discretization:         -0.184175 (  -0.01524%)
     Trial step:       0.061147619365
             Q1:  -11678.547177382861
 Quadratic coef:       0.000000000207
 Linear coef   :      -0.000000000090
           Qmin:  -11678.547177382987
Quadratic minimum step length (  0.013301168609) accepted
    Initial Ne1:    7192.00000000
      Final Ne1:    7192.00000000

=================== Penalty functional idempotency correction ==================
 RMS occupancy error at iteration   1:  0.000000 (step -0.5000 Ne1=   7192.0000)
            Final RMS occupancy error   :  0.000000 (Ne1=   7192.0000)
               Final occupancy bounds   : [  0.0000,  1.0000]
================================================================================

    9        -1.167854717738E+04     3.5246E-09     3.1880E-09     0.0000E+00

Reusing previously generated solute cavity.
MG BCs: +ve charge blocks (gridpoints):     28973 (   19078833).
MG BCs: -ve charge blocks (gridpoints):      8339 (    1041325).
MG BCs:     Elided blocks (gridpoints):    175315 (  179057723).
MG BCs: Computational effort saved:  99.9813%.
MG BCs: Charge after coarse-graining:           -9.0009557.
MG DL_MG: Calling solver with defect correction order = 8
MG DL_MG: Solver finished
MG Hartree energy from (\int phi*rho dr):              1208.274487
MG Hartree energy from (\int eps (grad phi)^2 dr):     1208.083993
MG Discrepancy due to finite box and discretization:     -0.190493 (  -0.01577%)
MG Correction to account for finite box:                  0.006319
MG Remaining discrepancy, due to discretization:         -0.184175 (  -0.01524%)
      ideal mu1:      -0.480858895724
   10        -1.167854717738E+04     3.3878E-09     3.0641E-09     1.1642E-10
Finished density kernel iterations (  10)


>>> Density kernel optimised for the current NGWF basis:
     ~~~~~~~~~~~~~~~~~~~~~~~~~~~~~~~~~~~~~~~~~~~~~~~~~~~~~~~~~~~
     Total energy                =  -1.16785471773829E+04  Eh
     Estimated bandgap           =   7.4891E-02  Eh
     RMS occupancy error         =   2.8080E-16
     [H,K] commutator            =   3.0641E-09
     Occupancy bounds            = [  0.000:  1.000]
     ~~~~~~~~~~~~~~~~~~~~~~~~~~~~~~~~~~~~~~~~~~~~~~~~~~~~~~~~~~~




################################################################################
########################### NGWF CG iteration  005 #############################
################################################################################
****** Reciprocal space K.E. preconditioning with k_zero =  3.5000 a0^-1 *******

>>> Checking for convergence of NGWFs: 
           ........................................................
           |         *** NGWF optimisation converged ***          |
           | RMS NGWF gradient =    0.00000093884611              |
           | Criteria satisfied:                                  |
           | -> RMS NGWF gradient lower than set threshold.       |
           ========================================================

Reusing previously generated solute cavity.
MG BCs: +ve charge blocks (gridpoints):     28973 (   19078833).
MG BCs: -ve charge blocks (gridpoints):      8339 (    1041325).
MG BCs:     Elided blocks (gridpoints):    175315 (  179057723).
MG BCs: Computational effort saved:  99.9813%.
MG BCs: Charge after coarse-graining:           -9.0009557.
MG DL_MG: Calling solver with defect correction order = 8
MG DL_MG: Solver finished
MG Hartree energy from (\int phi*rho dr):              1208.274487
MG Hartree energy from (\int eps (grad phi)^2 dr):     1208.083993
MG Discrepancy due to finite box and discretization:     -0.190493 (  -0.01577%)
MG Correction to account for finite box:                  0.006319
MG Remaining discrepancy, due to discretization:         -0.184175 (  -0.01524%)

================================================================================
           ---------------- ENERGY COMPONENTS (Eh) ----------------
           | Kinetic                    :     8531.32743084540380 |
           | Pseudo. (local,OBC,corr'd) :    -5051.91448543626120 |
           | Pseudopotential (non-local):     1403.40881611553141 |
           | Hartree (molecular)        :     1208.27448681041460 |
           | Exchange-correlation       :    -3358.15815119954505 |
           | Ion-ion (open BC)          :   817514.80942153173964 |
           | Dispersion Correction      :       -3.21304599517935 |
           | Smeared ion non-self corr. :  -817466.57620986667462 |
           | Smeared ion self corr.     :   -14457.16956389741972 |
           | Solvent cavitation energy  :        2.36279892942522 |
           | Solute-solvent dis-rep en. :       -1.69867522033702 |
           | Total                      :   -11678.54717738293220 |
           --------------------------------------------------------
           ------ LOCAL ENERGY COMPONENTS FROM MATRIX TRACES ------
           | Pseudopotential (local)    :    -5051.91448543627666 |
           | Hartree                    :    -1989.56673841283532 |
           --------------------------------------------------------
           Integrated density           :     7191.99999999896136
           Integrated density tr(KS)    :     7192.00000000000000
================================================================================


                        <<<<< CALCULATION SUMMARY >>>>>                         
|ITER|    RMS GRADIENT   |     TOTAL ENERGY    |   step   |     Epredicted              
   0     0.00004105830062 -11678.48074766574427   0.629248 -11678.53811826624406        
   1     0.00000998012134 -11678.54661031847354   0.086880 -11678.54707833237444        
   2     0.00000449245641 -11678.54715580784250   0.016525 -11678.54717384541073        
   3     0.00000205347185 -11678.54717644909397   0.003504 -11678.54717724819056        
   4     0.00000093884611 -11678.54717738286126  <-- CG                                 

=================== Finished the calculation in solvent ========================
= Adjusting the following parameters: 
= read_denskern: F
= read_tightbox_ngwfs: F
= maxit_pen: 0 (restored to user-specified value)
= restart read filename prefix: ""
= restart write filename prefix: ""
================================================================================

================================================================================
IS: Calculation in solvent completed (NGWFs converged).      

Individual components of total energy in solvent:     hartree           kcal/mol
- Usual non-electrostatic DFT terms:    -12887.48578790236388    -8087019.253314
- Electrostatic fixed charge energy:      1208.27448681041460      758203.671293
- Apolar cavitation energy:                  2.36279892942522        1482.678681
- Apolar dispersion-repulsion energy:       -1.69867522033702       -1065.934771
 -------------------------------------------------------------------------------
- Total energy in solvent:              -11678.54717738286126    -7328398.838110

Components of total energy in solvent:                hartree           kcal/mol
- Usual non-electrostatic DFT terms:    -12887.48578790236388    -8087019.253314
- Electrostatic energy:                   1208.27448681041460      758203.671293
- Apolar energy terms:                       0.66412370908819         416.743910
 -------------------------------------------------------------------------------
- Total energy in solvent:              -11678.54717738286126    -7328398.838110

Calculation of free energy of solvation:              hartree           kcal/mol
- Total energy in solvent:         (+)  -11678.54717738286126    -7328398.838110
- Total energy in vacuum:          (-)  -11674.73498393222690    -7326006.650655
 -------------------------------------------------------------------------------
- Total free energy of solvation:           -3.81219345063437       -2392.187455

Components of polar term in f.e. of solvation:        hartree           kcal/mol
- Electrostatic:                            -4.72544547330654       -2965.261739
- Change in nonelectrostatic DFT terms:      0.24912831358415         156.330374
 -------------------------------------------------------------------------------
- Polar term in f.e. of solvation:          -4.47631715972238       -2808.931366

Components of free energy of solvation:               hartree           kcal/mol
- Polar term in f.e. of solvation: (+)      -4.47631715972238       -2808.931366
- Apolar (cavitation, dis., rep.): (+)       0.66412370908819         416.743910
 -------------------------------------------------------------------------------
- Total free energy of solvation:           -3.81219345063419       -2392.187455
================================================================================


------------------------------ TIMING INFORMATION ------------------------------
AVERAGE TIME:   31953.973s on     60 node(s)                                    
TOTAL TIME:     31953.973s on     60 node(s)                                    
================= AVERAGE TIMINGS FROM ALL NODES (CUMULATIVE) ==================
|| TAG                                    #calls    cpu time   %total  Gflops ||
|| work_imbalance                       :     1        0.00s   0.000%  ------ ||
|| sparse_set_to_garbage                :   176        0.03s   0.000%  ------ ||
|| parallel_prepare_fd_halos_request    :  1947        0.03s   0.000%  ------ ||
|| ngwfs_initialise_from_radial         :     1        0.10s   0.000%  ------ ||
|| basis_extract_function_from_box      :  3577        0.16s   0.000%  ------ ||
|| parallel_prepare_fd_halos_satisfy    :  1947        0.66s   0.002%  ------ ||
|| parallel_prepare_fd_halos_alloc      :  1947        1.41s   0.004%  ------ ||
|| pseudopotentials_nonlocal_mat        :    30        2.05s   0.006%  ------ ||
|| density_init_guess_real              :     1        4.10s   0.013%  ------ ||
|| restart_kernel_read                  :     1        4.20s   0.013%  ------ ||
|| openbc_locps_radial                  :     1        4.61s   0.014%  ------ ||
|| restart_ngwfs_tightbox_input         :     1        8.37s   0.026%  ------ ||
|| parallel_prepare_fd_halos_comms_imbal:  1947        9.88s   0.031%  ------ ||
|| parallel_prepare_fd_halos_clear      :  1947       20.42s   0.064%  ------ ||
|| sparse_init                          :     2       22.69s   0.071%  ------ ||
|| projectors_func_ovlp_box             :    30       26.71s   0.084%  ------ ||
|| parallel_prepare_fd_halos_comms_wait :  1947       28.51s   0.089%  ------ ||
|| projectors_init_fftbox_recip         :   142       31.91s   0.100%  ------ ||
|| function_ops_brappd_ketppd           :    30       32.30s   0.101%  ------ ||
|| palser_mano_kernel_optimise          :     1       36.16s   0.113%  ------ ||
|| basis_copy_function_to_box           : 57677       41.27s   0.129%  ------ ||
|| ngwf_gradient_coeffs                 :    16       51.51s   0.161%  ------ ||
|| pseudo_make_structure_factor         :     2       52.41s   0.164%  ------ ||
|| fourier_apply_box_pair               :  5101       52.69s   0.165% 560.560 ||
|| parallel_prepare_fd_halos            :  1947       60.94s   0.191%  ------ ||
|| restart_kernel_write                 :    12       68.41s   0.214%  ------ ||
|| sparse_embed_hotelling_invert_embed  :    30       81.09s   0.254%  ------ ||
|| finite_difference_derivative         :  1947      145.83s   0.456%  ------ ||
|| projectors_gradient_batch            :   112      149.71s   0.469%  ------ ||
|| integrals_kinetic                    :    30      150.22s   0.470%  ------ ||
|| basis_dot_function_with_box          : 8.690M     173.72s   0.544%  ------ ||
|| fourier_apply_cell_backward          :  1299      180.38s   0.565% 102.150 ||
|| sparse_trace                         :  5493      204.64s   0.640%  ------ ||
|| fourier_apply_cell_forward           :  1297      239.78s   0.750%  76.729 ||
|| openbc_locps_on_grid                 :     2      269.49s   0.843%  ------ ||
|| kernel_purify                        :   495      312.20s   0.977%  ------ ||
|| basis_add_function_to_box            : 18.11M     415.65s   1.301%  ------ ||
|| lnv_gradient_norm                    :   160      463.20s   1.450%  ------ ||
|| xc_energy_potential                  :   324      486.11s   1.521%  ------ ||
|| hamiltonian_energy_components        :     4      493.65s   1.545%  ------ ||
|| kernel_fix                           :   160      577.22s   1.806%  ------ ||
|| ngwf_gradient_build_batch            :   112      758.85s   2.375%  ------ ||
|| integrals_locpot_mat_els_batch       :  1183      799.60s   2.502%  ------ ||
|| restart_ngwfs_tightbox_output        :    10      870.14s   2.723%  ------ ||
|| ngwf_gradient_batch                  :   112     1061.81s   3.323%  ------ ||
|| density_batch_row_sums               :  2261     1104.92s   3.458%  ------ ||
|| ngwf_gradient_lnv                    :    16     1218.23s   3.812%  ------ ||
|| cell_grid_deposit_box_real           : 37197     1311.96s   4.106%  ------ ||
|| cell_grid_extract_box_real           : 41070     1541.55s   4.824%  ------ ||
|| density_fftbox_deposit_to_cell       : 35207     1882.33s   5.891%  ------ ||
|| sparse_product                       :  6777     1943.99s   6.084%  ------ ||
|| potential_apply_to_ngwf_batch        :  1183     3560.63s  11.143%  ------ ||
|| density_fftbox_interpolate_multiply  : 35207     3668.55s  11.481%  ------ ||
|| integrals_locpot_dbl_grid            :   169     4380.59s  13.709%  ------ ||
|| fourier_apply_box                    : 121.3k    4510.94s  14.117% 754.715 ||
|| multigrid_prepare_bound_cond         :   324     4608.81s  14.423%  ------ ||
|| density_batch_interp_deposit         :  2261     6427.86s  20.116%  ------ ||
|| density_on_dbl_grid                  :   323     7943.42s  24.859%  ------ ||
|| dl_mg_solver_calls                   :   324     8517.99s  26.657%  ------ ||
|| multigrid_calculate_hartree          :   324    13328.57s  41.712%  ------ ||
|| hamiltonian_lhxc_calculate           :   319    21716.89s  67.963%  ------ ||
|| lnv_denskernel_optimise_cg           :    16    27053.91s  84.665%  ------ ||
|| ngwf_cg_optimise                     :     2    31011.27s  97.050%  ------ ||
|| total_time                           :     1    31953.97s 100.000%  ------ ||
================================================================================
Overhead of generating timer report: 
- 0 ms averaging over threads,
- 15 ms ensuring consistency across MPI ranks,
- 0 ms printing in order.

Job completed: 27-06-2020 01:46 (+0100)

Application 40922906 resources: utime ~6769005s, stime ~226771s, Rss ~3734064, inblocks ~357624222, outblocks ~48263808
