 +---------------------------------------------------------------+
 |                                                               |
 |        ####### #     # ####### ####### ####### ######         |
 |        #     # ##    # #          #    #       #     #        |
 |        #     # # #   # #          #    #       #     #        |
 |        #     # #  #  # #####      #    #####   ######         |
 |        #     # #   # # #          #    #       #              |
 |        #     # #    ## #          #    #       #              |
 |        ####### #     # #######    #    ####### #              |
 |                                                               |
 |        Linear-Scaling Ab Initio Total Energy Program          |
 |                                                               |
 |          Release for academic collaborators of ODG            |
 |                                             Version 5.3.2.6.  |
 |                                                               |
 +---------------------------------------------------------------+
 |                                                               |
 |  Authors:                                                     |
 |  Jacek Dziedzic, Peter D. Haynes, Nicholas D. M. Hine,        |
 |  Arash. A. Mostofi, Mike C. Payne and Chris-Kriton Skylaris   |
 |                                                               |
 |  Contributors:                                                |
 |  J. Aarons, L. Andrinopoulos, P. W. Avraam, R. A. Bell,       |
 |  A. Bhandari, G. A. Bramley, R. J. Charlton, S. J. Clark,     |
 |  R. J. Clements, G. C. Constantinescu, F. Corsetti,           |
 |  N. Corsini, O. Dieguez, S. M. M. Dubois, K. K. B. Duff,      |
 |  J. M. Escartin, A. Greco, H. Helal, Q. O. Hill, L. P. Lee,   |
 |  J.-H. Li, E. B. Linscott, G. Moynihan, D. D. O`Regan,        |
 |  O. K. Okan, M. J. S. Phipps, C. J. Pickard,                  |
 |  J. C. A. Prentice, M. I. J. Probert, L. E. Ratcliff,         |
 |  M. Robinson, A. Ruiz Serrano, J. S. Spencer, E. W. Tait,     |
 |  G. Teobaldi, D. Turban, V. Vitale, K. A. Wilkinson,          |
 |  C. Weber, J. C. Womack, N. Yeung and T. J. Zuehlsdorff       |
 |                                                               |
 |                                   Copyright (c) 2004-2019     |
 |                                                               |
 |  Please cite:                                                 |
 |  "Introducing ONETEP: Linear-scaling density functional       |
 |   simulations on parallel computers".                         |
 |   C.-K. Skylaris, P. D. Haynes, A. A. Mostofi, M. C. Payne.   |
 |   J. Chem. Phys. 122 084119 (2005).                           |
 |                                                               |
 |          in all publications arising from your use of ONETEP. |
 |                                                               |
 +---------------------------------------------------------------+
 |                                                               |
 |   ONETEP is based on developments described in the following  |
 |   publications:                                               |
 |                                                               |
 |  "Nonorthogonal generalized Wannier function pseudopotential  |
 |   plane-wave method".                                         |
 |   C.-K. Skylaris, A. A. Mostofi, P. D. Haynes, O. Dieguez,    |
 |   M. C. Payne.                                                |
 |   Phys. Rev. B 66 035119 (2002).                              |
 |                                                               |
 |  "Preconditioned iterative minimization for linear-scaling    |
 |   electronic structure calculations".                         |
 |   A. A. Mostofi, P. D. Haynes, C.-K. Skylaris, M. C. Payne.   |
 |   J. Chem. Phys. 119(17), pp.8842-8848 (2003).                |
 |                                                               |
 |  "Total-energy calculations on a real space grid with         |
 |   localized functions and a plane-wave basis".                |
 |   A. A. Mostofi, C.-K. Skylaris, P. D. Haynes, M. C. Payne.   |
 |   Comput. Phys. Commun. 147, pp.788-802 (2002).               |
 |                                                               |
 |  "Accurate kinetic energy evaluation in electronic structure  |
 |   calculations with localized functions on real space grids"  |
 |   C.-K. Skylaris, A. A. Mostofi, P. D. Haynes, C. J. Pickard, |
 |   M. C. Payne.                                                |
 |   Comput. Phys. Commun. 140, pp.315-322 (2001).               |
 |                                                               |
 |  "Accurate ionic forces and geometry optimization in linear-  |
 |   scaling density-functional theory with local orbitals"      |
 |   N. D. M. Hine, M. Robinson, P. D. Haynes, C.-K. Skylaris,   |
 |   M. C. Payne, and A. A. Mostofi.                             |
 |   Phys. Rev. B 83 195102 (2011).                              |
 |                                                               |
 +---------------------------------------------------------------+

Job started: 19-06-2020 19:32 (+0100)
 
Reading parameters from file "host_6181.dat" ...... done

If your calculation crashes here, before "Checking processes and threads..."
is displayed, then your stack size is insufficient.
If so, use "ulimit -s unlimited" at runtime.
You can disable this check with "check_stack_size F".

Checking processes and threads...
   Determining the default number of threads...
      No default threads set at compilation time: defaulting to 1.
      OpenMP library call suggests 4 threads.
      Hybrid MPI-OpenMP compilation detected.
      Number of MPI processes > 1.
      OMP_NUM_THREADS environment variable present and
      its value matches the one obtained from the OpenMP library call.
      Using this value as default.
      Default threads: 4
      Default applies to threads_max and threads_num_fftboxes.
      Settings in the input file override this default.
   ... done

   Running with 60 MPI processes.
   There are 6 MPI processes running on the same node as the root process.
   Each MPI process is using: 
               1 threads for simulation cell FFTs.
               1 threads for parallel FFT box operations.
               4 threads for loops over batched FFT box operations.
               4 threads in other parallel regions.
... done

Basic input checks...... done

Reading geometry and species blocks from file "host_6181.dat" ...
  <species_atomic_set> block not found: NGWF initialisation set to SOLVE
IS: Dielectric excluded regions:
    - NONE.
    
  Number of PPD points along a3 set to 1.  This is 
  the default value, it may have been provided also in the input file.
... done
 Writing xyz coordinates to file "host_6181.xyz" ... done


--------------------------------------------------------------------------------
---------------------------------- INPUT FILE ----------------------------------
--------------------------------------------------------------------------------

cutoff_energy       : 800 eV                                                    
xc_functional PBE                                                               
task SINGLEPOINT                                                                
write_xyz true                                                                  
output_detail VERBOSE                                                           
ngwf_threshold_orig : 0.000002                                                  
kernel_cutoff       : 1000                                                      
k_zero              : 3.5                                                       
elec_cg_max 0                                                                   
occ_mix 1.0                                                                     
dispersion 1                                                                    
maxit_ngwf_cg 40                                                                
minit_lnv 10                                                                    
maxit_lnv 10                                                                    
write_denskern F                                                                
write_tightbox_ngwfs F                                                          
charge 9                                                                        
is_implicit_solvent T                                                           
is_auto_solvation T                                                             
is_include_apolar T                                                             
is_smeared_ion_rep T                                                            
is_solvent_surf_tension 4.7624E-5 Ha/bohr**2                                    
is_apolar_scaling_factor 0.281075                                               
is_solvation_beta 1.3                                                           
is_density_threshold 0.00035                                                    
is_bulk_permittivity 78.54                                                      
is_dielectric_model fix_initial                                                 
is_smeared_ion_width 0.8                                                        
mg_defco_fd_order 8                                                             
is_bc_coarseness 10                                                             
is_bc_surface_coarseness 1                                                      
fine_grid_scale 2.0                                                             
%block species                                                                  
N   N   7 4 8.0                                                                 
H   H   1 1 8.0                                                                 
C   C   6 4 8.0                                                                 
S   S  16 9 8.0                                                                 
O   O   8 4 8.0                                                                 
%endblock species                                                               
%block species_pot                                                              
N   N_00.recpot                                                                 
H   H_04.recpot                                                                 
C   C_01.recpot                                                                 
S   S_00.recpot                                                                 
O   O_02.recpot                                                                 
%endblock species_pot                                                           
%block lattice_cart                                                             
140.777   0.000   0.000                                                         
0.000 144.511   0.000                                                           
0.000   0.000   162.462                                                         
%endblock lattice_cart                                                          
%block positions_abs                                                            
     Hash =  -000006433570660345902695
%endblock positions_abs                                                         

--------------------------------------------------------------------------------
-------------------------------- END INPUT FILE --------------------------------
--------------------------------------------------------------------------------


 
 ESDF WARNING(1): "kernelcutoff" (esdf_physical) has no units. Assume "bohr".
 ESDF WARNING(2): "kzero" (esdf_physical) has no units. Assume "1/bohr".
 ESDF WARNING(3
 ): "issmearedionwidth" (esdf_physical) has no units. Assume "bohr".
<<<<<<<<<<<<<<<<<<<<<<<<<<<<<<<<< Full system >>>>>>>>>>>>>>>>>>>>>>>>>>>>>>>>>>
<<<<<<<<<<<<<<<<<<<<<<<<< Pseudopotential information >>>>>>>>>>>>>>>>>>>>>>>>>>
File: N_00.recpot [ 2001 points up to Gmax=  52.9 (1/bohr)]
  Atomic number:  7;  ionic charge:  5.000000
    Shell 1: l = 0; rc = 1.48 bohr
File: H_04.recpot [ 2001 points up to Gmax=  52.9 (1/bohr)]
  Atomic number:  1;  ionic charge:  1.000000
    Local potential
File: C_01.recpot [ 2001 points up to Gmax=  52.9 (1/bohr)]
  Atomic number:  6;  ionic charge:  4.000000
    Shell 1: l = 0; rc = 1.48 bohr
File: S_00.recpot [ 2001 points up to Gmax=  52.9 (1/bohr)]
  Atomic number: 16;  ionic charge:  6.000000
    Shell 1: l = 0; rc = 1.90 bohr
    Shell 2: l = 2; rc = 1.84 bohr
File: O_02.recpot [ 2001 points up to Gmax=  52.9 (1/bohr)]
  Atomic number:  8;  ionic charge:  6.000000
    Shell 1: l = 0; rc = 1.31 bohr
<<<<<<<<<<<<<<<<<<<<<<<<<<<<<<<<<<<<<<<<>>>>>>>>>>>>>>>>>>>>>>>>>>>>>>>>>>>>>>>>

-------------------------- Atom counting information ---------------------------
Symbol    Natoms    Nngwfs    Nprojs
  N        236       944       236
  H       1311      1311         0
  C        810      3240       810
  S          6        54        36
  O        239       956       239
.......   ......    ......    ......
Totals:   2602      6505      1321
--------------------------------------------------------------------------------

=============================== PSINC grid sizes ===============================
                      Simulation cell:  280 x 286 x 320
                              FFT-box:   99 x  99 x  99
                                  PPD:    5 x  11 x   1
Grid space d1=  0.502775000000a0 (KE cutoff=  30.05084Eh = 817.72503eV)
Grid space d2=  0.505283216783a0 (KE cutoff=  29.75324Eh = 809.62684eV)
Grid space d3=  0.507693750000a0 (KE cutoff=  29.47137Eh = 801.95686eV)
================================================================================

********************* Fourier parallelisation information **********************
       Coarse grid (whole simulation cell) dimensions:    280   286   320
          Real-space ('12') slabs/node (min max mean):      5     6     5
         Recip-space ('23') slabs/node (min max mean):      2     3     2
********************************************************************************

********************* Fourier parallelisation information **********************
       Double grid (whole simulation cell) dimensions:    560   572   640
          Real-space ('12') slabs/node (min max mean):     10    11    10
         Recip-space ('23') slabs/node (min max mean):      4     5     4
********************************************************************************
ONETEP fine grid is 560 x 572 x 640 gridpoints, 140.7770 x 144.5110 x 162.4620 bohr.
FD multigrid is     553 x 569 x 633 gridpoints, 139.0173 x 143.7531 x 160.6851 bohr.


Calculating local pseudopotential in open BC on a radial grid ...
Discrepancy between calculated realspace psloc and -Z/x on [5a0,259.028a0]:
max |rel. diff| # avg |rel. diff| #  avg rel. diff #  f # pseudopotential file
 0.000261578119    0.000004844123   0.000000072210   55  'N_00.recpot'
 0.000419583258    0.000017514079  -0.000000069370   55  'H_04.recpot'
 0.000363553651    0.000016734795   0.000000141192   55  'C_01.recpot'
 0.000449990737    0.000019382085   0.000000449342   55  'S_00.recpot'
 0.000706973137    0.000028359832   0.000000146371   55  'O_02.recpot'
... done

Atom SCF Calculation for N  : Z (AE atom) =   7 : Z (PS atom) =   5
Config String:
Orbitals (num,occ):  2     2.00 3.00
Orbitals   (num,l):  2        0    1
Real-space Grid (nr,dr,rmax): 1203    0.0066555740    8.0000000000
Spherical Bessel Basis (nsws,lmax,cutoff):   47    1  176.3951722778
Confining potential (l,width,scale):  0    3.0000000000  100.0000000000
Confining potential (l,width,scale):  1    3.0000000000  100.0000000000
  1         -4.7312375307   -3.4155304497    7.0523828109   -1.9351020946
  2         -9.7309464766   -2.0532547791    8.2966052865   -2.2494486027
  3         -9.6627394379   -2.1124926340    8.2327997121   -2.2369778124
  4         -9.6814993499   -2.1215521045    8.2229805960   -2.2365178421
  5         -9.6843326483   -2.1250939529    8.2191374534   -2.2362718126
  6         -9.6859628709   -2.1267894855    8.2172963573   -2.2362066344
  7         -9.6867347035   -2.1276425665    8.2163697352   -2.2361903369
  8         -9.6870802100   -2.1280764625    8.2158983890   -2.2361891460
  9         -9.6872290423   -2.1282977424    8.2156580222   -2.2361920435
 10         -9.6872901988   -2.1284107021    8.2155353368   -2.2361953393
 11         -9.6873135296   -2.1284684031    8.2154726809   -2.2361979819
 12         -9.6873212476   -2.1284978948    8.2154406648   -2.2361998431
 13         -9.6873229586   -2.1285129774    8.2154242957   -2.2362010676
 14         -9.6873226456   -2.1285206957    8.2154159216   -2.2362018403
 15         -9.6873218534   -2.1285246479    8.2154116349   -2.2362023142
 16         -9.6873212599   -2.1285262679    8.2154098784   -2.2362025420
 17         -9.6873207834   -2.1285272564    8.2154088068   -2.2362026955
 18         -9.6873204210   -2.1285278596    8.2154081529   -2.2362027982
 19         -9.6873201550   -2.1285282280    8.2154077538   -2.2362028667
 20         -9.6873199645   -2.1285284529    8.2154075102   -2.2362029121
 21         -9.6873198305   -2.1285285903    8.2154073614   -2.2362029421
 22         -9.6873197377   -2.1285286742    8.2154072705   -2.2362029618
Atom SCF converged after  22 iterations to a total energy of     -9.68731974

Atom SCF Calculation for H  : Z (AE atom) =   1 : Z (PS atom) =   1
Config String:
Orbitals (num,occ):  1     1.00
Orbitals   (num,l):  1        0
Real-space Grid (nr,dr,rmax): 1203    0.0066555740    8.0000000000
Spherical Bessel Basis (nsws,lmax,cutoff):   47    0  176.3951722778
Confining potential (l,width,scale):  0    3.0000000000  100.0000000000
  1         -0.3194257691   -0.2393854593    0.2820953124   -0.2424203209
  2         -0.3951823392   -0.2377116493    0.2886404059   -0.2475147891
  3         -0.4317044583   -0.2352244387    0.2921333887   -0.2514046172
  4         -0.4470703708   -0.2341892222    0.2934391879   -0.2531009782
  5         -0.4532132900   -0.2338556667    0.2938388426   -0.2537313520
  6         -0.4556579251   -0.2337612552    0.2939448584   -0.2539550462
  7         -0.4566418315   -0.2337377355    0.2939680120   -0.2540342273
  8         -0.4570437922   -0.2337331116    0.2939708287   -0.2540627372
  9         -0.4572102946   -0.2337328328    0.2939698291   -0.2540732650
 10         -0.4572800424   -0.2337332404    0.2939687193   -0.2540772588
 11         -0.4573095100   -0.2337335791    0.2939680317   -0.2540788122
 12         -0.4573220379   -0.2337337762    0.2939676699   -0.2540794294
 13         -0.4573273880   -0.2337338775    0.2939674931   -0.2540796787
 14         -0.4573296803   -0.2337339266    0.2939674099   -0.2540797808
 15         -0.4573306647   -0.2337339495    0.2939673718   -0.2540798230
 16         -0.4573310882   -0.2337339601    0.2939673545   -0.2540798406
 17         -0.4573312706   -0.2337339649    0.2939673467   -0.2540798479
 18         -0.4573313493   -0.2337339670    0.2939673433   -0.2540798510
Atom SCF converged after  18 iterations to a total energy of     -0.45733135

Atom SCF Calculation for C  : Z (AE atom) =   6 : Z (PS atom) =   4
Config String:
Orbitals (num,occ):  2     2.00 2.00
Orbitals   (num,l):  2        0    1
Real-space Grid (nr,dr,rmax): 1203    0.0066555740    8.0000000000
Spherical Bessel Basis (nsws,lmax,cutoff):   47    1  176.3951722778
Confining potential (l,width,scale):  0    3.0000000000  100.0000000000
Confining potential (l,width,scale):  1    3.0000000000  100.0000000000
  1         -5.2976922011   -1.3069684169    4.5135249990   -1.4493313817
  2         -5.3721716256   -1.3429755895    4.4750154450   -1.4361613026
  3         -5.3809959565   -1.3617365618    4.4541655428   -1.4305930207
  4         -5.3918938866   -1.3667928461    4.4484735100   -1.4294652294
  5         -5.3956096428   -1.3688539142    4.4461376126   -1.4290734646
  6         -5.3968271862   -1.3696852393    4.4451910874   -1.4289366866
  7         -5.3972028401   -1.3700178062    4.4448112275   -1.4288900460
  8         -5.3973067903   -1.3701500158    4.4446598370   -1.4288749220
  9         -5.3973286940   -1.3702023868    4.4445997329   -1.4288704293
 10         -5.3973289850   -1.3702230869    4.4445759233   -1.4288693188
 11         -5.3973254264   -1.3702312560    4.4445665049   -1.4288691775
 12         -5.3973224003   -1.3702344755    4.4445627836   -1.4288692549
 13         -5.3973208708   -1.3702354890    4.4445616088   -1.4288693270
 14         -5.3973198783   -1.3702360102    4.4445610034   -1.4288693814
 15         -5.3973192535   -1.3702362780    4.4445606917   -1.4288694190
 16         -5.3973188684   -1.3702364155    4.4445605313   -1.4288694437
 17         -5.3973186349   -1.3702364860    4.4445604489   -1.4288694595
 18         -5.3973184951   -1.3702365221    4.4445604065   -1.4288694693
 19         -5.3973184122   -1.3702365405    4.4445603848   -1.4288694753
Atom SCF converged after  19 iterations to a total energy of     -5.39731841

Atom SCF Calculation for S  : Z (AE atom) =  16 : Z (PS atom) =   6
Config String:
Orbitals (num,occ):  3     2.00 4.00 0.00
Orbitals   (num,l):  3        0    1    2
Real-space Grid (nr,dr,rmax): 1203    0.0066555740    8.0000000000
Spherical Bessel Basis (nsws,lmax,cutoff):   47    2  176.3951722778
Confining potential (l,width,scale):  0    3.0000000000  100.0000000000
Confining potential (l,width,scale):  1    3.0000000000  100.0000000000
Confining potential (l,width,scale):  2    3.0000000000  100.0000000000
  1        -12.4735062396   -1.0328741412   10.1554312477   -2.4512393157
  2         -9.9458301913   -2.4607392455    8.3041325857   -2.0306994528
  3        -10.1450417646   -2.2931184565    8.4831893826   -2.0812538287
  4        -10.1528335592   -2.2733105793    8.5050388867   -2.0896035179
  5        -10.1571940363   -2.2633716629    8.5160794258   -2.0939370707
  6        -10.1594380571   -2.2584938667    8.5215163935   -2.0961289008
  7        -10.1605856507   -2.2561081821    8.5241804044   -2.0972291378
  8        -10.1611799191   -2.2549395235    8.5254868240   -2.0977806248
  9        -10.1614918752   -2.2543658586    8.5261285885   -2.0980571586
 10        -10.1616572884   -2.2540839121    8.5264441898   -2.0981959233
 11        -10.1617455602   -2.2539453058    8.5265994231   -2.0982656006
 12        -10.1617928447   -2.2538772062    8.5266757320   -2.0983006047
 13        -10.1618182292   -2.2538437891    8.5267131983   -2.0983181961
 14        -10.1618318741   -2.2538274201    8.5267315620   -2.0983270391
 15        -10.1618392144   -2.2538194197    8.5267405433   -2.0983314852
 16        -10.1618431651   -2.2538155200    8.5267449245   -2.0983337210
 17        -10.1618452923   -2.2538136252    8.5267470551   -2.0983348455
 18        -10.1618464380   -2.2538127080    8.5267480875   -2.0983354110
 19        -10.1618470552   -2.2538122659    8.5267485856   -2.0983356955
 20        -10.1618473878   -2.2538120540    8.5267488248   -2.0983358386
 21        -10.1618475670   -2.2538119530    8.5267489389   -2.0983359106
 22        -10.1618476637   -2.2538119053    8.5267489929   -2.0983359468
Atom SCF converged after  22 iterations to a total energy of    -10.16184766

Atom SCF Calculation for O  : Z (AE atom) =   8 : Z (PS atom) =   6
Config String:
Orbitals (num,occ):  2     2.00 4.00
Orbitals   (num,l):  2        0    1
Real-space Grid (nr,dr,rmax): 1203    0.0066555740    8.0000000000
Spherical Bessel Basis (nsws,lmax,cutoff):   47    1  176.3951722778
Confining potential (l,width,scale):  0    3.0000000000  100.0000000000
Confining potential (l,width,scale):  1    3.0000000000  100.0000000000
  1         -1.8735052164   -7.5539365035   10.1554312477   -2.4512393157
  2        -16.0318313751   -3.1285771268   13.6395848164   -3.2358799643
  3        -15.9524020423   -3.0762819706   13.6967272503   -3.2536856837
  4        -15.8521515939   -3.0781493909   13.6951909330   -3.2561700440
  5        -15.8357139793   -3.0748501933   13.6988803334   -3.2580493133
  6        -15.8246052853   -3.0740779781   13.6997881576   -3.2588327446
  7        -15.8189019501   -3.0737449687   13.7001869911   -3.2592378801
  8        -15.8159785510   -3.0736026016   13.7003615168   -3.2594475790
  9        -15.8144776168   -3.0735437994   13.7004360379   -3.2595560735
 10        -15.8137058024   -3.0735207882   13.7004667348   -3.2596122456
 11        -15.8133083127   -3.0735125946   13.7004786868   -3.2596413656
 12        -15.8131032938   -3.0735102195   13.7004828997   -3.2596564858
 13        -15.8129973902   -3.0735099286   13.7004840891   -3.2596643505
 14        -15.8129426040   -3.0735102506   13.7004842061   -3.2596684489
 15        -15.8129142203   -3.0735106556   13.7004840157   -3.2596705887
 16        -15.8128994940   -3.0735109855   13.7004837906   -3.2596717080
 17        -15.8128918425   -3.0735112169   13.7004836103   -3.2596722946
 18        -15.8128878614   -3.0735113674   13.7004834848   -3.2596726026
 19        -15.8128857871   -3.0735114608   13.7004834035   -3.2596727646
 20        -15.8128847048   -3.0735115170   13.7004833533   -3.2596728500
 21        -15.8128841394   -3.0735115501   13.7004833231   -3.2596728951
 22        -15.8128838436   -3.0735115693   13.7004833054   -3.2596729190
 23        -15.8128836887   -3.0735115802   13.7004832951   -3.2596729316
 24        -15.8128836074   -3.0735115864   13.7004832893   -3.2596729383
Atom SCF converged after  24 iterations to a total energy of    -15.81288361

========================== Calculation in vacuum ==============================
= Adjusting the following parameters: 
= is_implicit_solvent: F
= is_include_apolar: F
= write_denskern: T
= write_tightbox_ngwfs: T
= restart read filename prefix: ""
= restart write filename prefix: "vacuum_"
===============================================================================

Determining parallel strategy ...
... using space-filling curve
... NGWF load balancing: max    109;  min    108;  average    108
... Projector load balancing: max     25;  min     21;  average     22
... done
Calculating direct Ion-Ion energy ...
Ion-Ion Energy        :    829796.32342468225397
======================= Empirical dispersion information =======================
Model : Elstner
Dispersion Correction Energy: -0.32754698E+01 Hartree
================================================================================
Basis initialisation ...... NGWF spheres initialised
... Projector spheres initialised
... NGWF tight boxes initialised
... Tight-boxes gathered
... NGWF basis size (local,global):    1034588  62004539
... Nonlocal pseudopotential projector initialisation
... done

========================== Sparse matrix information ===========================
                        Overlap matrix filling:   6.77%
                        Density kernel filling: 100.00%
              NGWF-Proj overlap matrix filling:   1.79%
                    Hamiltonian matrix filling:   7.66%
                  NGWF diagonal matrix filling:   0.05%
                             KS matrix filling: 100.00% 
                           KSKS matrix filling: 100.00% 
================================================================================

Sparse matrix initialisation ... done

Generating smeared ion density ... done
Smeared ion self correction:     -14457.169564
Smeared ion non-self correction: -829748.270707
NGWF initialisation ...... done
============ Calculation of NGWF S^-1 using Hotelling algorithm ================ 
         Iteration  |  Frobenius norm and Maximum abs value    (of I-S*S_n^-1)   
               1       0.78459374E+02     0.98250461E+00
               2       0.76592989E+02     0.96547131E+00
               3       0.73575029E+02     0.93270294E+00
               4       0.69292710E+02     0.87183837E+00
               5       0.63966506E+02     0.76607310E+00
               6       0.57989558E+02     0.70382331E+00
               7       0.51992281E+02     0.66829278E+00
               8       0.46447841E+02     0.64146484E+00
               9       0.40355816E+02     0.59873661E+00
              10       0.32049051E+02     0.52374597E+00
              11       0.21461849E+02     0.41678793E+00
              12       0.10895992E+02     0.27401560E+00
              13       0.35424132E+01     0.12604234E+00
              14       0.54455943E+00     0.31895285E-01
              15       0.25216531E-01     0.27820745E-02
              16       0.13443519E-03     0.23110368E-04
              17       0.66833873E-08     0.16414009E-08
              18       0.92068759E-13     0.44408921E-14
================================================================================
Calculating local pseudopotential in open BC on the fine real space grid ...
... done

MG BCs: +ve charge blocks (gridpoints):     20215 (   15880971).
MG BCs: -ve charge blocks (gridpoints):      8013 (    1074754).
MG BCs:     Elided blocks (gridpoints):    184073 (  182222156).
MG BCs: Computational effort saved:  99.9858%.
MG BCs: Charge after coarse-graining:           -9.0002217.
MG DL_MG: Calling solver with defect correction order = 8
MG DL_MG: Solver finished
MG Hartree energy from (\int phi*rho dr):              1462.873071
MG Hartree energy from (\int eps (grad phi)^2 dr):     1462.259976
MG Discrepancy due to finite box and discretization:     -0.613095 (  -0.04191%)
MG Correction to account for finite box:                  0.459147
MG Remaining discrepancy, due to discretization:         -0.153949 (  -0.01052%)
Up spin density kernel initialisation ... 
======= Optimisation of K by Palser-Manolopoulos canonical purification ======== 
         Iteration  |  Band structure energy |    c_n   
               1       -2591.74519949331170    0.5261133
               2       -2767.28305844162060    0.5166490
               3       -2946.19083850900779    0.5156156
               4       -3094.41239124516187    0.5297125
               5       -3184.64423243688725    0.5658585
               6       -3222.04954471452129    0.6096661
               7       -3234.80494095072800    0.6203030
               8       -3240.37247206845677    0.6188340
               9       -3243.05147515040335    0.6333542
              10       -3244.14825863141323    0.6607949
              11       -3244.56703776585800    0.6886146
              12       -3244.73992078347919    0.7023636
              13       -3244.82266494382020    0.6713003
              14       -3244.87554956731037    0.6125671
              15       -3244.91068417171573    0.5520782
              16       -3244.92796737184563    0.5005945
              17       -3244.93320018074974    0.4600761
              18       -3244.93438182443424    0.4212520
              19       -3244.93488662063146    0.4276173
              20       -3244.93506264195685    0.4709379
              21       -3244.93516464809090    0.4957101
              22       -3244.93524063393897    0.4999069
              23       -3244.93531750130205    0.5000000
              24       -3244.93537902688286    0.5000000
              25       -3244.93540395074706    0.5000000
              26       -3244.93540675220447    0.5000001
              27       -3244.93540678229874    0.5000001
Termination criterion satisfied: band energy change below threshold.
Final occupancy bounds: [    0.00000000000029:    0.99999999999991]
Closest occupancy to 0.5:     0.99999999999974
================================================================================
... done

Writing density kernel to file "host_6181.vacuum_dkn" ... done

>>> Optimising kernel for current NGWFs:
   Initial electron number for spin 1:    7192.00000000
     Final electron number for spin 1:    7192.00000000

=================== Penalty functional idempotency correction ==================
 RMS occupancy error at iteration   1:  0.000000 (step -0.5000 Ne1=   7192.0000)
            Final RMS occupancy error   :  0.000000 (Ne1=   7192.0000)
               Final occupancy bounds   : [  0.0000,  1.0000]
================================================================================

................................................................................
<<<<<<<<<<<<<< LNV (Original version) density kernel optimisation >>>>>>>>>>>>>>
~~~~~~~~~~~~~~~~~~~~~~~~~~~~~~~~~~~~~~~~~~~~~~~~~~~~~~~~~~~~~~~~~~~~~~~~~~~~~~~~
   iter  |      energy (Eh)       | rms gradient |  commutator  |   dE (Eh)
MG BCs: +ve charge blocks (gridpoints):     30511 (   17003214).
MG BCs: -ve charge blocks (gridpoints):      8358 (    1107175).
MG BCs:     Elided blocks (gridpoints):    173764 (  181067492).
MG BCs: Computational effort saved:  99.9805%.
MG BCs: Charge after coarse-graining:           -9.0009341.
MG DL_MG: Calling solver with defect correction order = 8
MG DL_MG: Solver finished
MG Hartree energy from (\int phi*rho dr):              1419.060306
MG Hartree energy from (\int eps (grad phi)^2 dr):     1418.391764
MG Discrepancy due to finite box and discretization:     -0.668542 (  -0.04711%)
MG Correction to account for finite box:                  0.470834
MG Remaining discrepancy, due to discretization:         -0.197709 (  -0.01393%)
      ideal mu1:      -0.701389582291
             Q0:  -11506.081797721563
             G0:    -144.308399477145
   RMS gradient:       0.001846709163
MG BCs: +ve charge blocks (gridpoints):     30540 (   17087286).
MG BCs: -ve charge blocks (gridpoints):      8267 (    1087459).
MG BCs:     Elided blocks (gridpoints):    173735 (  181003136).
MG BCs: Computational effort saved:  99.9805%.
MG BCs: Charge after coarse-graining:           -9.0009517.
MG DL_MG: Calling solver with defect correction order = 8
MG DL_MG: Solver finished
MG Hartree energy from (\int phi*rho dr):              1443.424787
MG Hartree energy from (\int eps (grad phi)^2 dr):     1442.772848
MG Discrepancy due to finite box and discretization:     -0.651939 (  -0.04517%)
MG Correction to account for finite box:                  0.470310
MG Remaining discrepancy, due to discretization:         -0.181629 (  -0.01258%)
     Trial step:       0.500000000000
             Q1:  -11517.561044223025
 Quadratic coef:      60.674953237110
 Linear coef   :     -72.154199738573
           Qmin:  -11527.533106136951
Quadratic minimum step length (  0.297298126694) accepted
    Initial Ne1:    7192.00000000
      Final Ne1:    7192.00000000

=================== Penalty functional idempotency correction ==================
 RMS occupancy error at iteration   1:  0.003408 (step -0.4884 Ne1=   7192.0000)
 RMS occupancy error at iteration   2:  0.000027 (step -0.5001 Ne1=   7192.0000)
            Final RMS occupancy error   :  0.000000 (Ne1=   7192.0000)
               Final occupancy bounds   : [  0.0000,  1.0000]
================================================================================

    1        -1.150608179772E+04     1.8467E-03     1.6703E-03
MG BCs: +ve charge blocks (gridpoints):     30524 (   17053984).
MG BCs: -ve charge blocks (gridpoints):      8309 (    1096359).
MG BCs:     Elided blocks (gridpoints):    173750 (  181027538).
MG BCs: Computational effort saved:  99.9805%.
MG BCs: Charge after coarse-graining:           -9.0009449.
MG DL_MG: Calling solver with defect correction order = 8
MG DL_MG: Solver finished
MG Hartree energy from (\int phi*rho dr):              1425.641440
MG Hartree energy from (\int eps (grad phi)^2 dr):     1424.983714
MG Discrepancy due to finite box and discretization:     -0.657727 (  -0.04614%)
MG Correction to account for finite box:                  0.470431
MG Remaining discrepancy, due to discretization:         -0.187295 (  -0.01314%)
      ideal mu1:      -0.743760567151
             Q0:  -11527.933118232409
             G0:     -12.148631925888
   RMS gradient:       0.000532209267
MG BCs: +ve charge blocks (gridpoints):     30528 (   17070966).
MG BCs: -ve charge blocks (gridpoints):      8277 (    1091173).
MG BCs:     Elided blocks (gridpoints):    173746 (  181015742).
MG BCs: Computational effort saved:  99.9805%.
MG BCs: Charge after coarse-graining:           -9.0009482.
MG DL_MG: Calling solver with defect correction order = 8
MG DL_MG: Solver finished
MG Hartree energy from (\int phi*rho dr):              1430.730670
MG Hartree energy from (\int eps (grad phi)^2 dr):     1430.076847
MG Discrepancy due to finite box and discretization:     -0.653823 (  -0.04570%)
MG Correction to account for finite box:                  0.469768
MG Remaining discrepancy, due to discretization:         -0.184055 (  -0.01286%)
     Trial step:       0.385550338279
             Q1:  -11530.779974696110
 Quadratic coef:       1.837052684952
 Linear coef   :      -4.683909148653
           Qmin:  -11530.918743670991
Quadratic minimum step length (  0.491516321639) accepted
    Initial Ne1:    7191.99989112
      Final Ne1:    7192.00000000

=================== Penalty functional idempotency correction ==================
 RMS occupancy error at iteration   1:  0.001818 (step -0.4930 Ne1=   7192.0000)
 RMS occupancy error at iteration   2:  0.000012 (step -0.5002 Ne1=   7192.0000)
            Final RMS occupancy error   :  0.000000 (Ne1=   7192.0000)
               Final occupancy bounds   : [  0.0000,  1.0000]
================================================================================

    2        -1.152793311823E+04     5.3221E-04     4.8137E-04    -2.1851E+01
MG BCs: +ve charge blocks (gridpoints):     30530 (   17075684).
MG BCs: -ve charge blocks (gridpoints):      8272 (    1089842).
MG BCs:     Elided blocks (gridpoints):    173744 (  181012355).
MG BCs: Computational effort saved:  99.9805%.
MG BCs: Charge after coarse-graining:           -9.0009490.
MG DL_MG: Calling solver with defect correction order = 8
MG DL_MG: Solver finished
MG Hartree energy from (\int phi*rho dr):              1432.178002
MG Hartree energy from (\int eps (grad phi)^2 dr):     1431.525178
MG Discrepancy due to finite box and discretization:     -0.652824 (  -0.04558%)
MG Correction to account for finite box:                  0.469596
MG Remaining discrepancy, due to discretization:         -0.183228 (  -0.01279%)
      ideal mu1:      -0.767202273553
             Q0:  -11530.955710972310
             G0:      -1.971985333697
   RMS gradient:       0.000214513864
MG BCs: +ve charge blocks (gridpoints):     30533 (   17075498).
MG BCs: -ve charge blocks (gridpoints):      8276 (    1090719).
MG BCs:     Elided blocks (gridpoints):    173741 (  181011664).
MG BCs: Computational effort saved:  99.9805%.
MG BCs: Charge after coarse-graining:           -9.0009486.
MG DL_MG: Calling solver with defect correction order = 8
MG DL_MG: Solver finished
MG Hartree energy from (\int phi*rho dr):              1430.041351
MG Hartree energy from (\int eps (grad phi)^2 dr):     1429.389092
MG Discrepancy due to finite box and discretization:     -0.652259 (  -0.04561%)
MG Correction to account for finite box:                  0.469251
MG Remaining discrepancy, due to discretization:         -0.183009 (  -0.01280%)
     Trial step:       0.435320897819
             Q1:  -11531.469530316070
 Quadratic coef:       0.344627082191
 Linear coef   :      -0.858446425950
           Qmin:  -11531.490296256163
Quadratic minimum step length (  0.542179776612) accepted
    Initial Ne1:    7191.99992399
      Final Ne1:    7192.00000000

=================== Penalty functional idempotency correction ==================
 RMS occupancy error at iteration   1:  0.000707 (step -0.4947 Ne1=   7192.0000)
 RMS occupancy error at iteration   2:  0.000009 (step -0.5006 Ne1=   7192.0000)
            Final RMS occupancy error   :  0.000000 (Ne1=   7192.0000)
               Final occupancy bounds   : [  0.0000,  1.0000]
================================================================================

    3        -1.153095571097E+04     2.1451E-04     1.9402E-04    -3.0226E+00
MG BCs: +ve charge blocks (gridpoints):     30534 (   17075475).
MG BCs: -ve charge blocks (gridpoints):      8279 (    1090903).
MG BCs:     Elided blocks (gridpoints):    173741 (  181011503).
MG BCs: Computational effort saved:  99.9805%.
MG BCs: Charge after coarse-graining:           -9.0009485.
MG DL_MG: Calling solver with defect correction order = 8
MG DL_MG: Solver finished
MG Hartree energy from (\int phi*rho dr):              1429.527153
MG Hartree energy from (\int eps (grad phi)^2 dr):     1428.875018
MG Discrepancy due to finite box and discretization:     -0.652135 (  -0.04562%)
MG Correction to account for finite box:                  0.469168
MG Remaining discrepancy, due to discretization:         -0.182967 (  -0.01280%)
      ideal mu1:      -0.768331799484
             Q0:  -11531.495058386354
             G0:      -0.601586913273
   RMS gradient:       0.000118676579
MG BCs: +ve charge blocks (gridpoints):     30533 (   17077088).
MG BCs: -ve charge blocks (gridpoints):      8275 (    1090522).
MG BCs:     Elided blocks (gridpoints):    173742 (  181010271).
MG BCs: Computational effort saved:  99.9805%.
MG BCs: Charge after coarse-graining:           -9.0009485.
MG DL_MG: Calling solver with defect correction order = 8
MG DL_MG: Solver finished
MG Hartree energy from (\int phi*rho dr):              1430.784967
MG Hartree energy from (\int eps (grad phi)^2 dr):     1430.132826
MG Discrepancy due to finite box and discretization:     -0.652141 (  -0.04558%)
MG Correction to account for finite box:                  0.469091
MG Remaining discrepancy, due to discretization:         -0.183050 (  -0.01279%)
     Trial step:       0.485821147269
             Q1:  -11531.666420167196
 Quadratic coef:       0.120901863547
 Linear coef   :      -0.292263644388
           Qmin:  -11531.671685187886
Quadratic minimum step length (  0.587202938217) accepted
    Initial Ne1:    7191.99986725
      Final Ne1:    7192.00000000

=================== Penalty functional idempotency correction ==================
 RMS occupancy error at iteration   1:  0.000684 (step -0.4655 Ne1=   7192.0000)
 RMS occupancy error at iteration   2:  0.000027 (step -0.5002 Ne1=   7192.0000)
            Final RMS occupancy error   :  0.000000 (Ne1=   7192.0000)
               Final occupancy bounds   : [  0.0000,  1.0000]
================================================================================

    4        -1.153149505839E+04     1.1868E-04     1.0734E-04    -5.3935E-01
MG BCs: +ve charge blocks (gridpoints):     30536 (   17077447).
MG BCs: -ve charge blocks (gridpoints):      8274 (    1090418).
MG BCs:     Elided blocks (gridpoints):    173739 (  181010016).
MG BCs: Computational effort saved:  99.9805%.
MG BCs: Charge after coarse-graining:           -9.0009485.
MG DL_MG: Calling solver with defect correction order = 8
MG DL_MG: Solver finished
MG Hartree energy from (\int phi*rho dr):              1431.050253
MG Hartree energy from (\int eps (grad phi)^2 dr):     1430.398108
MG Discrepancy due to finite box and discretization:     -0.652145 (  -0.04557%)
MG Correction to account for finite box:                  0.469076
MG Remaining discrepancy, due to discretization:         -0.183069 (  -0.01279%)
      ideal mu1:      -0.768660124096
             Q0:  -11531.670559123391
             G0:      -0.401569827359
   RMS gradient:       0.000098109514
MG BCs: +ve charge blocks (gridpoints):     30535 (   17077838).
MG BCs: -ve charge blocks (gridpoints):      8271 (    1090182).
MG BCs:     Elided blocks (gridpoints):    173740 (  181009861).
MG BCs: Computational effort saved:  99.9805%.
MG BCs: Charge after coarse-graining:           -9.0009486.
MG DL_MG: Calling solver with defect correction order = 8
MG DL_MG: Solver finished
MG Hartree energy from (\int phi*rho dr):              1431.612728
MG Hartree energy from (\int eps (grad phi)^2 dr):     1430.960397
MG Discrepancy due to finite box and discretization:     -0.652331 (  -0.04557%)
MG Correction to account for finite box:                  0.469090
MG Remaining discrepancy, due to discretization:         -0.183241 (  -0.01280%)
     Trial step:       0.534111978076
             Q1:  -11531.809336061124
 Quadratic coef:       0.075706317093
 Linear coef   :      -0.214483254826
           Qmin:  -11531.822472029629
Quadratic minimum step length (  0.756595221496) accepted
    Initial Ne1:    7191.99958210
      Final Ne1:    7192.00000000

=================== Penalty functional idempotency correction ==================
 RMS occupancy error at iteration   1:  0.002837 (step -0.3472 Ne1=   7192.0000)
 RMS occupancy error at iteration   2:  0.000164 (step -0.4966 Ne1=   7192.0000)
 RMS occupancy error at iteration   3:  0.000001 (step -0.5000 Ne1=   7192.0000)
            Final RMS occupancy error   :  0.000000 (Ne1=   7192.0000)
               Final occupancy bounds   : [  0.0000,  1.0000]
================================================================================

    5        -1.153167055912E+04     9.8110E-05     8.8738E-05    -1.7550E-01
MG BCs: +ve charge blocks (gridpoints):     30535 (   17078096).
MG BCs: -ve charge blocks (gridpoints):      8270 (    1090044).
MG BCs:     Elided blocks (gridpoints):    173740 (  181009741).
MG BCs: Computational effort saved:  99.9805%.
MG BCs: Charge after coarse-graining:           -9.0009486.
MG DL_MG: Calling solver with defect correction order = 8
MG DL_MG: Solver finished
MG Hartree energy from (\int phi*rho dr):              1431.872347
MG Hartree energy from (\int eps (grad phi)^2 dr):     1431.219940
MG Discrepancy due to finite box and discretization:     -0.652407 (  -0.04556%)
MG Correction to account for finite box:                  0.469087
MG Remaining discrepancy, due to discretization:         -0.183320 (  -0.01280%)
      ideal mu1:      -0.767985907014
             Q0:  -11531.811824461096
             G0:      -0.379821794339
   RMS gradient:       0.000097658211
MG BCs: +ve charge blocks (gridpoints):     30534 (   17077084).
MG BCs: -ve charge blocks (gridpoints):      8277 (    1090611).
MG BCs:     Elided blocks (gridpoints):    173741 (  181010186).
MG BCs: Computational effort saved:  99.9805%.
MG BCs: Charge after coarse-graining:           -9.0009483.
MG DL_MG: Calling solver with defect correction order = 8
MG DL_MG: Solver finished
MG Hartree energy from (\int phi*rho dr):              1429.747992
MG Hartree energy from (\int eps (grad phi)^2 dr):     1429.095657
MG Discrepancy due to finite box and discretization:     -0.652335 (  -0.04563%)
MG Correction to account for finite box:                  0.469095
MG Remaining discrepancy, due to discretization:         -0.183240 (  -0.01282%)
     Trial step:       0.635693770896
             Q1:  -11531.908682578942
 Quadratic coef:       0.144592230867
 Linear coef   :      -0.241450348712
           Qmin:  -11531.912622184707
Quadratic minimum step length (  0.530763242731) accepted
    Initial Ne1:    7191.99970931
      Final Ne1:    7192.00000000

=================== Penalty functional idempotency correction ==================
 RMS occupancy error at iteration   1:  0.004265 (step -0.3021 Ne1=   7192.0000)
 RMS occupancy error at iteration   2:  0.000283 (step -0.4866 Ne1=   7192.0000)
 RMS occupancy error at iteration   3:  0.000005 (step -0.5000 Ne1=   7192.0000)
            Final RMS occupancy error   :  0.000000 (Ne1=   7192.0000)
               Final occupancy bounds   : [  0.0000,  1.0000]
================================================================================

    6        -1.153181182446E+04     9.7658E-05     8.8330E-05    -1.4127E-01
MG BCs: +ve charge blocks (gridpoints):     30534 (   17077226).
MG BCs: -ve charge blocks (gridpoints):      8277 (    1090503).
MG BCs:     Elided blocks (gridpoints):    173741 (  181010152).
MG BCs: Computational effort saved:  99.9805%.
MG BCs: Charge after coarse-graining:           -9.0009483.
MG DL_MG: Calling solver with defect correction order = 8
MG DL_MG: Solver finished
MG Hartree energy from (\int phi*rho dr):              1430.090023
MG Hartree energy from (\int eps (grad phi)^2 dr):     1429.437604
MG Discrepancy due to finite box and discretization:     -0.652419 (  -0.04562%)
MG Correction to account for finite box:                  0.469174
MG Remaining discrepancy, due to discretization:         -0.183245 (  -0.01281%)
      ideal mu1:      -0.767527668939
             Q0:  -11531.917729319190
             G0:      -0.279924287025
   RMS gradient:       0.000081334161
MG BCs: +ve charge blocks (gridpoints):     30531 (   17077571).
MG BCs: -ve charge blocks (gridpoints):      8276 (    1090462).
MG BCs:     Elided blocks (gridpoints):    173744 (  181009848).
MG BCs: Computational effort saved:  99.9805%.
MG BCs: Charge after coarse-graining:           -9.0009485.
MG DL_MG: Calling solver with defect correction order = 8
MG DL_MG: Solver finished
MG Hartree energy from (\int phi*rho dr):              1430.378209
MG Hartree energy from (\int eps (grad phi)^2 dr):     1429.726011
MG Discrepancy due to finite box and discretization:     -0.652198 (  -0.04560%)
MG Correction to account for finite box:                  0.469185
MG Remaining discrepancy, due to discretization:         -0.183014 (  -0.01279%)
     Trial step:       0.580863914548
             Q1:  -11532.007567468914
 Quadratic coef:       0.072759767414
 Linear coef   :      -0.162597917138
           Qmin:  -11532.008569640693
Quadratic minimum step length (  0.649034940621) accepted
    Initial Ne1:    7191.99999694
      Final Ne1:    7192.00000000

=================== Penalty functional idempotency correction ==================
 RMS occupancy error at iteration   1:  0.000121 (step -0.4939 Ne1=   7192.0000)
 RMS occupancy error at iteration   2:  0.000001 (step -0.5000 Ne1=   7192.0000)
            Final RMS occupancy error   :  0.000000 (Ne1=   7192.0000)
               Final occupancy bounds   : [  0.0000,  1.0000]
================================================================================

    7        -1.153191772932E+04     8.1334E-05     7.3565E-05    -1.0590E-01
MG BCs: +ve charge blocks (gridpoints):     30531 (   17077676).
MG BCs: -ve charge blocks (gridpoints):      8277 (    1090426).
MG BCs:     Elided blocks (gridpoints):    173744 (  181009779).
MG BCs: Computational effort saved:  99.9805%.
MG BCs: Charge after coarse-graining:           -9.0009485.
MG DL_MG: Calling solver with defect correction order = 8
MG DL_MG: Solver finished
MG Hartree energy from (\int phi*rho dr):              1430.412637
MG Hartree energy from (\int eps (grad phi)^2 dr):     1429.760464
MG Discrepancy due to finite box and discretization:     -0.652173 (  -0.04559%)
MG Correction to account for finite box:                  0.469186
MG Remaining discrepancy, due to discretization:         -0.182987 (  -0.01279%)
      ideal mu1:      -0.768290926041
             Q0:  -11532.008555584121
             G0:      -0.204546573671
   RMS gradient:       0.000069534796
MG BCs: +ve charge blocks (gridpoints):     30529 (   17077243).
MG BCs: -ve charge blocks (gridpoints):      8276 (    1090232).
MG BCs:     Elided blocks (gridpoints):    173746 (  181010406).
MG BCs: Computational effort saved:  99.9805%.
MG BCs: Charge after coarse-graining:           -9.0009487.
MG DL_MG: Calling solver with defect correction order = 8
MG DL_MG: Solver finished
MG Hartree energy from (\int phi*rho dr):              1430.622447
MG Hartree energy from (\int eps (grad phi)^2 dr):     1429.970346
MG Discrepancy due to finite box and discretization:     -0.652101 (  -0.04558%)
MG Correction to account for finite box:                  0.469137
MG Remaining discrepancy, due to discretization:         -0.182964 (  -0.01279%)
     Trial step:       0.614004052338
             Q1:  -11532.075679625268
 Quadratic coef:       0.058468383979
 Linear coef   :      -0.125592425126
           Qmin:  -11532.075999971052
Quadratic minimum step length (  0.659452619713) accepted
    Initial Ne1:    7191.99999768
      Final Ne1:    7192.00000000

=================== Penalty functional idempotency correction ==================
 RMS occupancy error at iteration   1:  0.000547 (step -0.4684 Ne1=   7192.0000)
 RMS occupancy error at iteration   2:  0.000011 (step -0.4999 Ne1=   7192.0000)
            Final RMS occupancy error   :  0.000000 (Ne1=   7192.0000)
               Final occupancy bounds   : [ -0.0000,  1.0000]
================================================================================

    8        -1.153200855558E+04     6.9535E-05     6.2893E-05    -9.0826E-02
MG BCs: +ve charge blocks (gridpoints):     30530 (   17077184).
MG BCs: -ve charge blocks (gridpoints):      8276 (    1090234).
MG BCs:     Elided blocks (gridpoints):    173745 (  181010463).
MG BCs: Computational effort saved:  99.9805%.
MG BCs: Charge after coarse-graining:           -9.0009487.
MG DL_MG: Calling solver with defect correction order = 8
MG DL_MG: Solver finished
MG Hartree energy from (\int phi*rho dr):              1430.638917
MG Hartree energy from (\int eps (grad phi)^2 dr):     1429.986821
MG Discrepancy due to finite box and discretization:     -0.652097 (  -0.04558%)
MG Correction to account for finite box:                  0.469134
MG Remaining discrepancy, due to discretization:         -0.182963 (  -0.01279%)
      ideal mu1:      -0.768052767914
             Q0:  -11532.075935580535
             G0:      -0.120711037700
   RMS gradient:       0.000053390040
MG BCs: +ve charge blocks (gridpoints):     30529 (   17076793).
MG BCs: -ve charge blocks (gridpoints):      8276 (    1090374).
MG BCs:     Elided blocks (gridpoints):    173746 (  181010714).
MG BCs: Computational effort saved:  99.9805%.
MG BCs: Charge after coarse-graining:           -9.0009486.
MG DL_MG: Calling solver with defect correction order = 8
MG DL_MG: Solver finished
MG Hartree energy from (\int phi*rho dr):              1430.392408
MG Hartree energy from (\int eps (grad phi)^2 dr):     1429.740342
MG Discrepancy due to finite box and discretization:     -0.652066 (  -0.04559%)
MG Correction to account for finite box:                  0.469073
MG Remaining discrepancy, due to discretization:         -0.182993 (  -0.01279%)
     Trial step:       0.636322701802
             Q1:  -11532.126738436520
 Quadratic coef:       0.026008317662
 Linear coef   :      -0.076811173647
           Qmin:  -11532.132647787699
Quadratic minimum step length (  0.939635815339) accepted
    Initial Ne1:    7192.00001511
      Final Ne1:    7192.00000000

=================== Penalty functional idempotency correction ==================
 RMS occupancy error at iteration   1:  0.001703 (step -0.4062 Ne1=   7192.0000)
 RMS occupancy error at iteration   2:  0.000078 (step -0.4969 Ne1=   7192.0000)
 RMS occupancy error at iteration   3:  0.000000 (step -0.5000 Ne1=   7192.0000)
            Final RMS occupancy error   :  0.000000 (Ne1=   7192.0000)
               Final occupancy bounds   : [  0.0000,  1.0000]
================================================================================

    9        -1.153207593558E+04     5.3390E-05     4.8290E-05    -6.7380E-02
MG BCs: +ve charge blocks (gridpoints):     30528 (   17076583).
MG BCs: -ve charge blocks (gridpoints):      8273 (    1090473).
MG BCs:     Elided blocks (gridpoints):    173747 (  181010825).
MG BCs: Computational effort saved:  99.9805%.
MG BCs: Charge after coarse-graining:           -9.0009486.
MG DL_MG: Calling solver with defect correction order = 8
MG DL_MG: Solver finished
MG Hartree energy from (\int phi*rho dr):              1430.280728
MG Hartree energy from (\int eps (grad phi)^2 dr):     1429.628671
MG Discrepancy due to finite box and discretization:     -0.652057 (  -0.04559%)
MG Correction to account for finite box:                  0.469049
MG Remaining discrepancy, due to discretization:         -0.183008 (  -0.01280%)
      ideal mu1:      -0.766836528343
   10        -1.153213190585E+04     5.6783E-05     5.1359E-05    -5.5970E-02
Finished density kernel iterations (  10)

Writing density kernel to file "host_6181.vacuum_dkn" ... done


>>> Density kernel optimised for the current NGWF basis:
     ~~~~~~~~~~~~~~~~~~~~~~~~~~~~~~~~~~~~~~~~~~~~~~~~~~~~~~~~~~~
     Total energy                =  -1.15321319058520E+04  Eh
     Estimated bandgap           =  -4.0905E-01  Eh
     RMS occupancy error         =   2.4000E-11
     [H,K] commutator            =   5.1359E-05
     Occupancy bounds            = [  0.000:  1.000]
     ~~~~~~~~~~~~~~~~~~~~~~~~~~~~~~~~~~~~~~~~~~~~~~~~~~~~~~~~~~~




################################################################################
########################### NGWF CG iteration  001 #############################
################################################################################
****** Reciprocal space K.E. preconditioning with k_zero =  3.5000 a0^-1 *******

>>> Checking for convergence of NGWFs:   NOT CONVERGED
  ========================================================================
         NGWF RMS gradient =  1.6024E-03 >  2.0000E-06  | above tolerance
  ========================================================================

>>> Improving NGWFs using line search:
============ Calculation of NGWF S^-1 using Hotelling algorithm ================ 
         Iteration  |  Frobenius norm and Maximum abs value    (of I-S*S_n^-1)   
               1       0.19931116E+00     0.53765563E-02
               2       0.93260681E-03     0.42556533E-04
               3       0.35132314E-07     0.27027104E-08
               4       0.12556467E-12     0.48849813E-14
================================================================================
MG BCs: +ve charge blocks (gridpoints):     30086 (   17023465).
MG BCs: -ve charge blocks (gridpoints):      8291 (    1090384).
MG BCs:     Elided blocks (gridpoints):    174190 (  181064032).
MG BCs: Computational effort saved:  99.9807%.
MG BCs: Charge after coarse-graining:           -9.0009507.
MG DL_MG: Calling solver with defect correction order = 8
MG DL_MG: Solver finished
MG Hartree energy from (\int phi*rho dr):              1398.467814
MG Hartree energy from (\int eps (grad phi)^2 dr):     1397.816680
MG Discrepancy due to finite box and discretization:     -0.651133 (  -0.04656%)
MG Correction to account for finite box:                  0.468974
MG Remaining discrepancy, due to discretization:         -0.182160 (  -0.01303%)
============ Calculation of NGWF S^-1 using Hotelling algorithm ================ 
         Iteration  |  Frobenius norm and Maximum abs value    (of I-S*S_n^-1)   
               1       0.18441043E+01     0.42150022E-01
               2       0.71087467E-01     0.24415373E-02
               3       0.14499285E-03     0.95083422E-05
               4       0.11079403E-08     0.14899038E-09
               5       0.11013384E-12     0.58841820E-14
================================================================================
------------------------------- NGWF line search -------------------------------
RMS gradient                =       0.00160238239360
Trial step length           =               0.122474
Gradient along search dir.  =       -277.73322448803
Functional at step 0        =  -11532.13190585200209
Functional at step 1        =  -11563.53190336062107
Functional predicted        =  -11642.73720498316470
Selected quadratic step     =               0.796486
--------------------------- NGWF line search finished --------------------------
                                               
Writing NGWFs to file "host_6181.vacuum_tightbox_ngwfs"....  done

>>> Optimising kernel for current NGWFs:
   Initial electron number for spin 1:    7226.71529529
     Final electron number for spin 1:    7192.00000000

=================== Penalty functional idempotency correction ==================
 RMS occupancy error at iteration   1:  0.004317 (step -0.4858 Ne1=   7192.0000)
 RMS occupancy error at iteration   2:  0.000072 (step -0.5003 Ne1=   7192.0000)
            Final RMS occupancy error   :  0.000000 (Ne1=   7192.0000)
               Final occupancy bounds   : [  0.0000,  1.0000]
================================================================================

................................................................................
<<<<<<<<<<<<<< LNV (Original version) density kernel optimisation >>>>>>>>>>>>>>
~~~~~~~~~~~~~~~~~~~~~~~~~~~~~~~~~~~~~~~~~~~~~~~~~~~~~~~~~~~~~~~~~~~~~~~~~~~~~~~~
   iter  |      energy (Eh)       | rms gradient |  commutator  |   dE (Eh)
MG BCs: +ve charge blocks (gridpoints):     24539 (   16757547).
MG BCs: -ve charge blocks (gridpoints):      8435 (    1073846).
MG BCs:     Elided blocks (gridpoints):    179749 (  181346488).
MG BCs: Computational effort saved:  99.9834%.
MG BCs: Charge after coarse-graining:           -9.0006547.
MG DL_MG: Calling solver with defect correction order = 8
MG DL_MG: Solver finished
MG Hartree energy from (\int phi*rho dr):              1245.396952
MG Hartree energy from (\int eps (grad phi)^2 dr):     1244.746106
MG Discrepancy due to finite box and discretization:     -0.650846 (  -0.05226%)
MG Correction to account for finite box:                  0.468625
MG Remaining discrepancy, due to discretization:         -0.182221 (  -0.01463%)
      ideal mu1:      -0.707570923713
             Q0:  -11641.946815543808
             G0:      -9.934302768185
   RMS gradient:       0.000484530807
MG BCs: +ve charge blocks (gridpoints):     24599 (   16771505).
MG BCs: -ve charge blocks (gridpoints):      8421 (    1070993).
MG BCs:     Elided blocks (gridpoints):    179689 (  181335383).
MG BCs: Computational effort saved:  99.9834%.
MG BCs: Charge after coarse-graining:           -9.0006502.
MG DL_MG: Calling solver with defect correction order = 8
MG DL_MG: Solver finished
MG Hartree energy from (\int phi*rho dr):              1261.559526
MG Hartree energy from (\int eps (grad phi)^2 dr):     1260.903426
MG Discrepancy due to finite box and discretization:     -0.656099 (  -0.05201%)
MG Correction to account for finite box:                  0.467534
MG Remaining discrepancy, due to discretization:         -0.188565 (  -0.01495%)
     Trial step:       0.773247438228
             Q1:  -11640.585597339319
 Quadratic coef:       9.042892370571
 Linear coef   :      -7.681674166082
           Qmin:  -11643.578155262776
Quadratic minimum step length (  0.328425609131) accepted
    Initial Ne1:    7191.99955131
      Final Ne1:    7192.00000000

=================== Penalty functional idempotency correction ==================
 RMS occupancy error at iteration   1:  0.000354 (step -0.4986 Ne1=   7192.0000)
 RMS occupancy error at iteration   2:  0.000000 (step -0.5000 Ne1=   7192.0000)
            Final RMS occupancy error   :  0.000000 (Ne1=   7192.0000)
               Final occupancy bounds   : [  0.0000,  1.0000]
================================================================================

    1        -1.164194681554E+04     4.8453E-04     4.3825E-04
MG BCs: +ve charge blocks (gridpoints):     24560 (   16763473).
MG BCs: -ve charge blocks (gridpoints):      8430 (    1072678).
MG BCs:     Elided blocks (gridpoints):    179728 (  181341730).
MG BCs: Computational effort saved:  99.9834%.
MG BCs: Charge after coarse-graining:           -9.0006528.
MG DL_MG: Calling solver with defect correction order = 8
MG DL_MG: Solver finished
MG Hartree energy from (\int phi*rho dr):              1251.179478
MG Hartree energy from (\int eps (grad phi)^2 dr):     1250.526518
MG Discrepancy due to finite box and discretization:     -0.652959 (  -0.05219%)
MG Correction to account for finite box:                  0.468133
MG Remaining discrepancy, due to discretization:         -0.184827 (  -0.01477%)
      ideal mu1:      -0.714109776780
             Q0:  -11643.549430669053
             G0:      -0.963075162491
   RMS gradient:       0.000151684261
MG BCs: +ve charge blocks (gridpoints):     24562 (   16763515).
MG BCs: -ve charge blocks (gridpoints):      8430 (    1073474).
MG BCs:     Elided blocks (gridpoints):    179726 (  181340892).
MG BCs: Computational effort saved:  99.9834%.
MG BCs: Charge after coarse-graining:           -9.0006527.
MG DL_MG: Calling solver with defect correction order = 8
MG DL_MG: Solver finished
MG Hartree energy from (\int phi*rho dr):              1252.290629
MG Hartree energy from (\int eps (grad phi)^2 dr):     1251.637503
MG Discrepancy due to finite box and discretization:     -0.653126 (  -0.05215%)
MG Correction to account for finite box:                  0.467929
MG Remaining discrepancy, due to discretization:         -0.185197 (  -0.01479%)
     Trial step:       0.503938747180
             Q1:  -11643.750418588519
 Quadratic coef:       0.284342971359
 Linear coef   :      -0.485330890826
           Qmin:  -11643.756527465277
Quadratic minimum step length (  0.430074005208) accepted
    Initial Ne1:    7191.99994241
      Final Ne1:    7192.00000000

=================== Penalty functional idempotency correction ==================
 RMS occupancy error at iteration   1:  0.000149 (step -0.4990 Ne1=   7192.0000)
 RMS occupancy error at iteration   2:  0.000000 (step -0.5000 Ne1=   7192.0000)
            Final RMS occupancy error   :  0.000000 (Ne1=   7192.0000)
               Final occupancy bounds   : [  0.0000,  1.0000]
================================================================================

    2        -1.164354943067E+04     1.5168E-04     1.3719E-04    -1.6026E+00
MG BCs: +ve charge blocks (gridpoints):     24562 (   16763490).
MG BCs: -ve charge blocks (gridpoints):      8430 (    1073384).
MG BCs:     Elided blocks (gridpoints):    179726 (  181341007).
MG BCs: Computational effort saved:  99.9834%.
MG BCs: Charge after coarse-graining:           -9.0006527.
MG DL_MG: Calling solver with defect correction order = 8
MG DL_MG: Solver finished
MG Hartree energy from (\int phi*rho dr):              1252.127620
MG Hartree energy from (\int eps (grad phi)^2 dr):     1251.474519
MG Discrepancy due to finite box and discretization:     -0.653100 (  -0.05216%)
MG Correction to account for finite box:                  0.467960
MG Remaining discrepancy, due to discretization:         -0.185141 (  -0.01479%)
      ideal mu1:      -0.715388320687
             Q0:  -11643.756979347439
             G0:      -0.173611363886
   RMS gradient:       0.000063985277
MG BCs: +ve charge blocks (gridpoints):     24564 (   16763193).
MG BCs: -ve charge blocks (gridpoints):      8431 (    1073597).
MG BCs:     Elided blocks (gridpoints):    179724 (  181341091).
MG BCs: Computational effort saved:  99.9834%.
MG BCs: Charge after coarse-graining:           -9.0006527.
MG DL_MG: Calling solver with defect correction order = 8
MG DL_MG: Solver finished
MG Hartree energy from (\int phi*rho dr):              1251.788226
MG Hartree energy from (\int eps (grad phi)^2 dr):     1251.135333
MG Discrepancy due to finite box and discretization:     -0.652893 (  -0.05216%)
MG Correction to account for finite box:                  0.467774
MG Remaining discrepancy, due to discretization:         -0.185119 (  -0.01479%)
     Trial step:       0.465543720159
             Q1:  -11643.814686569502
 Quadratic coef:       0.023116458144
 Linear coef   :      -0.080823680205
           Qmin:  -11643.827626710903
Quadratic minimum step length (  0.813856442145) accepted
    Initial Ne1:    7191.99998058
      Final Ne1:    7192.00000000

=================== Penalty functional idempotency correction ==================
 RMS occupancy error at iteration   1:  0.000258 (step -0.4840 Ne1=   7192.0000)
 RMS occupancy error at iteration   2:  0.000003 (step -0.5000 Ne1=   7192.0000)
            Final RMS occupancy error   :  0.000000 (Ne1=   7192.0000)
               Final occupancy bounds   : [  0.0000,  1.0000]
================================================================================

    3        -1.164375697935E+04     6.3985E-05     5.7873E-05    -2.0755E-01
MG BCs: +ve charge blocks (gridpoints):     24564 (   16762988).
MG BCs: -ve charge blocks (gridpoints):      8428 (    1073814).
MG BCs:     Elided blocks (gridpoints):    179724 (  181341079).
MG BCs: Computational effort saved:  99.9834%.
MG BCs: Charge after coarse-graining:           -9.0006526.
MG DL_MG: Calling solver with defect correction order = 8
MG DL_MG: Solver finished
MG Hartree energy from (\int phi*rho dr):              1251.534573
MG Hartree energy from (\int eps (grad phi)^2 dr):     1250.881838
MG Discrepancy due to finite box and discretization:     -0.652734 (  -0.05215%)
MG Correction to account for finite box:                  0.467631
MG Remaining discrepancy, due to discretization:         -0.185104 (  -0.01479%)
      ideal mu1:      -0.714914735231
             Q0:  -11643.827455888153
             G0:      -0.091749914699
   RMS gradient:       0.000046614817
MG BCs: +ve charge blocks (gridpoints):     24563 (   16762599).
MG BCs: -ve charge blocks (gridpoints):      8428 (    1073944).
MG BCs:     Elided blocks (gridpoints):    179725 (  181341338).
MG BCs: Computational effort saved:  99.9834%.
MG BCs: Charge after coarse-graining:           -9.0006528.
MG DL_MG: Calling solver with defect correction order = 8
MG DL_MG: Solver finished
MG Hartree energy from (\int phi*rho dr):              1251.428011
MG Hartree energy from (\int eps (grad phi)^2 dr):     1250.775724
MG Discrepancy due to finite box and discretization:     -0.652287 (  -0.05212%)
MG Correction to account for finite box:                  0.467337
MG Remaining discrepancy, due to discretization:         -0.184950 (  -0.01478%)
     Trial step:       0.615536965382
             Q1:  -11643.864543050411
 Quadratic coef:       0.019388301809
 Linear coef   :      -0.056475464068
           Qmin:  -11643.868582208461
Quadratic minimum step length (  0.896487379687) accepted
    Initial Ne1:    7191.99998673
      Final Ne1:    7192.00000000

=================== Penalty functional idempotency correction ==================
 RMS occupancy error at iteration   1:  0.000724 (step -0.4513 Ne1=   7192.0000)
 RMS occupancy error at iteration   2:  0.000016 (step -0.4992 Ne1=   7192.0000)
            Final RMS occupancy error   :  0.000000 (Ne1=   7192.0000)
               Final occupancy bounds   : [ -0.0000,  1.0000]
================================================================================

    4        -1.164382745589E+04     4.6615E-05     4.2162E-05    -7.0477E-02
MG BCs: +ve charge blocks (gridpoints):     24562 (   16762455).
MG BCs: -ve charge blocks (gridpoints):      8429 (    1073977).
MG BCs:     Elided blocks (gridpoints):    179726 (  181341449).
MG BCs: Computational effort saved:  99.9834%.
MG BCs: Charge after coarse-graining:           -9.0006528.
MG DL_MG: Calling solver with defect correction order = 8
MG DL_MG: Solver finished
MG Hartree energy from (\int phi*rho dr):              1251.382664
MG Hartree energy from (\int eps (grad phi)^2 dr):     1250.730580
MG Discrepancy due to finite box and discretization:     -0.652084 (  -0.05211%)
MG Correction to account for finite box:                  0.467204
MG Remaining discrepancy, due to discretization:         -0.184880 (  -0.01477%)
      ideal mu1:      -0.715309491577
             Q0:  -11643.867768803728
             G0:      -0.115650344907
   RMS gradient:       0.000052704941
MG BCs: +ve charge blocks (gridpoints):     24560 (   16764117).
MG BCs: -ve charge blocks (gridpoints):      8429 (    1073373).
MG BCs:     Elided blocks (gridpoints):    179728 (  181340391).
MG BCs: Computational effort saved:  99.9834%.
MG BCs: Charge after coarse-graining:           -9.0006524.
MG DL_MG: Calling solver with defect correction order = 8
MG DL_MG: Solver finished
MG Hartree energy from (\int phi*rho dr):              1252.468356
MG Hartree energy from (\int eps (grad phi)^2 dr):     1251.816978
MG Discrepancy due to finite box and discretization:     -0.651378 (  -0.05201%)
MG Correction to account for finite box:                  0.466605
MG Remaining discrepancy, due to discretization:         -0.184772 (  -0.01475%)
     Trial step:       0.742846633697
             Q1:  -11643.913630425697
 Quadratic coef:       0.040048847432
 Linear coef   :      -0.085910469400
           Qmin:  -11643.913841345298
Quadratic minimum step length (  0.796755800557) accepted
    Initial Ne1:    7192.00030074
      Final Ne1:    7192.00000000

=================== Penalty functional idempotency correction ==================
 RMS occupancy error at iteration   1:  0.002453 (step -0.3685 Ne1=   7192.0000)
 RMS occupancy error at iteration   2:  0.000136 (step -0.4912 Ne1=   7192.0000)
 RMS occupancy error at iteration   3:  0.000001 (step -0.5000 Ne1=   7192.0000)
            Final RMS occupancy error   :  0.000000 (Ne1=   7192.0000)
               Final occupancy bounds   : [  0.0000,  1.0000]
================================================================================

    5        -1.164386776880E+04     5.2705E-05     4.7670E-05    -4.0313E-02
MG BCs: +ve charge blocks (gridpoints):     24560 (   16764252).
MG BCs: -ve charge blocks (gridpoints):      8428 (    1073316).
MG BCs:     Elided blocks (gridpoints):    179728 (  181340313).
MG BCs: Computational effort saved:  99.9834%.
MG BCs: Charge after coarse-graining:           -9.0006524.
MG DL_MG: Calling solver with defect correction order = 8
MG DL_MG: Solver finished
MG Hartree energy from (\int phi*rho dr):              1252.547992
MG Hartree energy from (\int eps (grad phi)^2 dr):     1251.896647
MG Discrepancy due to finite box and discretization:     -0.651345 (  -0.05200%)
MG Correction to account for finite box:                  0.466580
MG Remaining discrepancy, due to discretization:         -0.184765 (  -0.01475%)
      ideal mu1:      -0.716911935716
             Q0:  -11643.914136042935
             G0:      -0.107651823945
   RMS gradient:       0.000048832519
MG BCs: +ve charge blocks (gridpoints):     24561 (   16764472).
MG BCs: -ve charge blocks (gridpoints):      8429 (    1073325).
MG BCs:     Elided blocks (gridpoints):    179727 (  181340084).
MG BCs: Computational effort saved:  99.9834%.
MG BCs: Charge after coarse-graining:           -9.0006524.
MG DL_MG: Calling solver with defect correction order = 8
MG DL_MG: Solver finished
MG Hartree energy from (\int phi*rho dr):              1252.480716
MG Hartree energy from (\int eps (grad phi)^2 dr):     1251.829751
MG Discrepancy due to finite box and discretization:     -0.650965 (  -0.05197%)
MG Correction to account for finite box:                  0.466144
MG Remaining discrepancy, due to discretization:         -0.184821 (  -0.01476%)
     Trial step:       0.769329165132
             Q1:  -11643.958158302936
 Quadratic coef:       0.038797427840
 Linear coef   :      -0.082819687841
           Qmin:  -11643.958334209385
Quadratic minimum step length (  0.821131771485) accepted
    Initial Ne1:    7192.00026580
      Final Ne1:    7192.00000000

=================== Penalty functional idempotency correction ==================
 RMS occupancy error at iteration   1:  0.004034 (step -0.3219 Ne1=   7192.0000)
 RMS occupancy error at iteration   2:  0.000299 (step -0.4817 Ne1=   7192.0000)
 RMS occupancy error at iteration   3:  0.000006 (step -0.5004 Ne1=   7192.0000)
            Final RMS occupancy error   :  0.000000 (Ne1=   7192.0000)
               Final occupancy bounds   : [  0.0000,  1.0000]
================================================================================

    6        -1.164391413604E+04     4.8833E-05     4.4168E-05    -4.6367E-02
MG BCs: +ve charge blocks (gridpoints):     24561 (   16764471).
MG BCs: -ve charge blocks (gridpoints):      8428 (    1073318).
MG BCs:     Elided blocks (gridpoints):    179727 (  181340092).
MG BCs: Computational effort saved:  99.9834%.
MG BCs: Charge after coarse-graining:           -9.0006524.
MG DL_MG: Calling solver with defect correction order = 8
MG DL_MG: Solver finished
MG Hartree energy from (\int phi*rho dr):              1252.472844
MG Hartree energy from (\int eps (grad phi)^2 dr):     1251.821942
MG Discrepancy due to finite box and discretization:     -0.650902 (  -0.05197%)
MG Correction to account for finite box:                  0.466076
MG Remaining discrepancy, due to discretization:         -0.184826 (  -0.01476%)
      ideal mu1:      -0.717125782013
             Q0:  -11643.961710937205
             G0:      -0.085769193804
   RMS gradient:       0.000045021334
MG BCs: +ve charge blocks (gridpoints):     24561 (   16761996).
MG BCs: -ve charge blocks (gridpoints):      8429 (    1074155).
MG BCs:     Elided blocks (gridpoints):    179727 (  181341730).
MG BCs: Computational effort saved:  99.9834%.
MG BCs: Charge after coarse-graining:           -9.0006529.
MG DL_MG: Calling solver with defect correction order = 8
MG DL_MG: Solver finished
MG Hartree energy from (\int phi*rho dr):              1251.094372
MG Hartree energy from (\int eps (grad phi)^2 dr):     1250.443426
MG Discrepancy due to finite box and discretization:     -0.650946 (  -0.05203%)
MG Correction to account for finite box:                  0.466084
MG Remaining discrepancy, due to discretization:         -0.184862 (  -0.01478%)
     Trial step:       0.794808543122
             Q1:  -11643.987976090633
 Quadratic coef:       0.041904934544
 Linear coef   :      -0.068170087972
           Qmin:  -11643.989435362411
Quadratic minimum step length (  0.646489117516) accepted
    Initial Ne1:    7191.99996674
      Final Ne1:    7192.00000000

=================== Penalty functional idempotency correction ==================
 RMS occupancy error at iteration   1:  0.000066 (step -0.4950 Ne1=   7192.0000)
 RMS occupancy error at iteration   2:  0.000000 (step -0.5000 Ne1=   7192.0000)
            Final RMS occupancy error   :  0.000000 (Ne1=   7192.0000)
               Final occupancy bounds   : [  0.0000,  1.0000]
================================================================================

    7        -1.164396171094E+04     4.5021E-05     4.0721E-05    -4.7575E-02
MG BCs: +ve charge blocks (gridpoints):     24561 (   16762463).
MG BCs: -ve charge blocks (gridpoints):      8430 (    1073990).
MG BCs:     Elided blocks (gridpoints):    179727 (  181341428).
MG BCs: Computational effort saved:  99.9834%.
MG BCs: Charge after coarse-graining:           -9.0006528.
MG DL_MG: Calling solver with defect correction order = 8
MG DL_MG: Solver finished
MG Hartree energy from (\int phi*rho dr):              1251.349757
MG Hartree energy from (\int eps (grad phi)^2 dr):     1250.698819
MG Discrepancy due to finite box and discretization:     -0.650938 (  -0.05202%)
MG Correction to account for finite box:                  0.466083
MG Remaining discrepancy, due to discretization:         -0.184855 (  -0.01477%)
      ideal mu1:      -0.716023840752
             Q0:  -11643.989461003803
             G0:      -0.073829017482
   RMS gradient:       0.000041772439
MG BCs: +ve charge blocks (gridpoints):     24562 (   16762582).
MG BCs: -ve charge blocks (gridpoints):      8430 (    1073932).
MG BCs:     Elided blocks (gridpoints):    179726 (  181341367).
MG BCs: Computational effort saved:  99.9834%.
MG BCs: Charge after coarse-graining:           -9.0006528.
MG DL_MG: Calling solver with defect correction order = 8
MG DL_MG: Solver finished
MG Hartree energy from (\int phi*rho dr):              1251.238030
[...]
MG DL_MG: Solver finished
MG Hartree energy from (\int phi*rho dr):              1209.470640
MG Hartree energy from (\int eps (grad phi)^2 dr):     1209.279874
MG Discrepancy due to finite box and discretization:     -0.190767 (  -0.01577%)
MG Correction to account for finite box:                  0.006307
MG Remaining discrepancy, due to discretization:         -0.184460 (  -0.01525%)
             Q2:  -11678.620338537614
  Cubic LS coeff:       0.893798841186
Predicted energy:  -11678.620338537690
Cubic minimum step length accepted
    Initial Ne1:    7192.00000000
      Final Ne1:    7192.00000000

=================== Penalty functional idempotency correction ==================
 RMS occupancy error at iteration   1:  0.000000 (step -0.5000 Ne1=   7192.0000)
            Final RMS occupancy error   :  0.000000 (Ne1=   7192.0000)
               Final occupancy bounds   : [ -0.0000,  1.0000]
================================================================================

    7        -1.167862033853E+04     8.9622E-09     8.1061E-09    -1.8626E-09

Reusing previously generated solute cavity.
MG BCs: +ve charge blocks (gridpoints):     28658 (   18918648).
MG BCs: -ve charge blocks (gridpoints):      8409 (    1043227).
MG BCs:     Elided blocks (gridpoints):    175630 (  179216006).
MG BCs: Computational effort saved:  99.9814%.
MG BCs: Charge after coarse-graining:           -9.0009238.
MG DL_MG: Calling solver with defect correction order = 8
MG DL_MG: Solver finished
MG Hartree energy from (\int phi*rho dr):              1209.470633
MG Hartree energy from (\int eps (grad phi)^2 dr):     1209.279866
MG Discrepancy due to finite box and discretization:     -0.190767 (  -0.01577%)
MG Correction to account for finite box:                  0.006307
MG Remaining discrepancy, due to discretization:         -0.184460 (  -0.01525%)
      ideal mu1:      -0.480809404585
             Q0:  -11678.620338537963
             G0:      -0.000000003395
   RMS gradient:       0.000000007685

Reusing previously generated solute cavity.
MG BCs: +ve charge blocks (gridpoints):     28658 (   18918648).
MG BCs: -ve charge blocks (gridpoints):      8409 (    1043227).
MG BCs:     Elided blocks (gridpoints):    175630 (  179216006).
MG BCs: Computational effort saved:  99.9814%.
MG BCs: Charge after coarse-graining:           -9.0009238.
MG DL_MG: Calling solver with defect correction order = 8
MG DL_MG: Solver finished
MG Hartree energy from (\int phi*rho dr):              1209.470614
MG Hartree energy from (\int eps (grad phi)^2 dr):     1209.279847
MG Discrepancy due to finite box and discretization:     -0.190767 (  -0.01577%)
MG Correction to account for finite box:                  0.006307
MG Remaining discrepancy, due to discretization:         -0.184460 (  -0.01525%)
     Trial step:       0.593484543631
             Q1:  -11678.620338539127
 Quadratic coef:       0.000000000851
 Linear coef   :      -0.000000002015
           Qmin:  -11678.620338539155
Quadratic minimum step length (  0.702263726620) accepted
    Initial Ne1:    7192.00000000
      Final Ne1:    7192.00000000

=================== Penalty functional idempotency correction ==================
 RMS occupancy error at iteration   1:  0.000000 (step -0.5000 Ne1=   7192.0000)
            Final RMS occupancy error   :  0.000000 (Ne1=   7192.0000)
               Final occupancy bounds   : [  0.0000,  1.0000]
================================================================================

    8        -1.167862033854E+04     7.6848E-09     6.9507E-09    -3.4925E-09

Reusing previously generated solute cavity.
MG BCs: +ve charge blocks (gridpoints):     28658 (   18918648).
MG BCs: -ve charge blocks (gridpoints):      8409 (    1043227).
MG BCs:     Elided blocks (gridpoints):    175630 (  179216006).
MG BCs: Computational effort saved:  99.9814%.
MG BCs: Charge after coarse-graining:           -9.0009238.
MG DL_MG: Calling solver with defect correction order = 8
MG DL_MG: Solver finished
MG Hartree energy from (\int phi*rho dr):              1209.470610
MG Hartree energy from (\int eps (grad phi)^2 dr):     1209.279844
MG Discrepancy due to finite box and discretization:     -0.190767 (  -0.01577%)
MG Correction to account for finite box:                  0.006307
MG Remaining discrepancy, due to discretization:         -0.184460 (  -0.01525%)
      ideal mu1:      -0.480809382213
             Q0:  -11678.620338539127
             G0:      -0.000000001631
   RMS gradient:       0.000000004958

Reusing previously generated solute cavity.
MG BCs: +ve charge blocks (gridpoints):     28658 (   18918648).
MG BCs: -ve charge blocks (gridpoints):      8409 (    1043227).
MG BCs:     Elided blocks (gridpoints):    175630 (  179216006).
MG BCs: Computational effort saved:  99.9814%.
MG BCs: Charge after coarse-graining:           -9.0009238.
MG DL_MG: Calling solver with defect correction order = 8
MG DL_MG: Solver finished
MG Hartree energy from (\int phi*rho dr):              1209.470632
MG Hartree energy from (\int eps (grad phi)^2 dr):     1209.279865
MG Discrepancy due to finite box and discretization:     -0.190767 (  -0.01577%)
MG Correction to account for finite box:                  0.006307
MG Remaining discrepancy, due to discretization:         -0.184460 (  -0.01525%)
     Trial step:       0.645587071820
             Q1:  -11678.620338539477
 Quadratic coef:       0.000000000704
 Linear coef   :      -0.000000001053
           Qmin:  -11678.620338539520
Quadratic minimum step length (  0.482738125151) accepted
    Initial Ne1:    7192.00000000
      Final Ne1:    7192.00000000

=================== Penalty functional idempotency correction ==================
 RMS occupancy error at iteration   1:  0.000000 (step -0.5000 Ne1=   7192.0000)
            Final RMS occupancy error   :  0.000000 (Ne1=   7192.0000)
               Final occupancy bounds   : [  0.0000,  1.0000]
================================================================================

    9        -1.167862033854E+04     4.9578E-09     4.4842E-09    -1.1642E-09

Reusing previously generated solute cavity.
MG BCs: +ve charge blocks (gridpoints):     28658 (   18918648).
MG BCs: -ve charge blocks (gridpoints):      8409 (    1043227).
MG BCs:     Elided blocks (gridpoints):    175630 (  179216006).
MG BCs: Computational effort saved:  99.9814%.
MG BCs: Charge after coarse-graining:           -9.0009238.
MG DL_MG: Calling solver with defect correction order = 8
MG DL_MG: Solver finished
MG Hartree energy from (\int phi*rho dr):              1209.470627
MG Hartree energy from (\int eps (grad phi)^2 dr):     1209.279860
MG Discrepancy due to finite box and discretization:     -0.190767 (  -0.01577%)
MG Correction to account for finite box:                  0.006307
MG Remaining discrepancy, due to discretization:         -0.184460 (  -0.01525%)
      ideal mu1:      -0.480809394071
   10        -1.167862033854E+04     3.3051E-09     2.9894E-09    -4.6566E-10
Finished density kernel iterations (  10)


>>> Density kernel optimised for the current NGWF basis:
     ~~~~~~~~~~~~~~~~~~~~~~~~~~~~~~~~~~~~~~~~~~~~~~~~~~~~~~~~~~~
     Total energy                =  -1.16786203385396E+04  Eh
     Estimated bandgap           =   9.0917E-02  Eh
     RMS occupancy error         =   4.4346E-16
     [H,K] commutator            =   2.9894E-09
     Occupancy bounds            = [  0.000:  1.000]
     ~~~~~~~~~~~~~~~~~~~~~~~~~~~~~~~~~~~~~~~~~~~~~~~~~~~~~~~~~~~




################################################################################
########################### NGWF CG iteration  004 #############################
################################################################################
****** Reciprocal space K.E. preconditioning with k_zero =  3.5000 a0^-1 *******

>>> Checking for convergence of NGWFs: 
           ........................................................
           |         *** NGWF optimisation converged ***          |
           | RMS NGWF gradient =    0.00000196697614              |
           | Criteria satisfied:                                  |
           | -> RMS NGWF gradient lower than set threshold.       |
           ========================================================

Reusing previously generated solute cavity.
MG BCs: +ve charge blocks (gridpoints):     28658 (   18918648).
MG BCs: -ve charge blocks (gridpoints):      8409 (    1043227).
MG BCs:     Elided blocks (gridpoints):    175630 (  179216006).
MG BCs: Computational effort saved:  99.9814%.
MG BCs: Charge after coarse-graining:           -9.0009238.
MG DL_MG: Calling solver with defect correction order = 8
MG DL_MG: Solver finished
MG Hartree energy from (\int phi*rho dr):              1209.470627
MG Hartree energy from (\int eps (grad phi)^2 dr):     1209.279860
MG Discrepancy due to finite box and discretization:     -0.190767 (  -0.01577%)
MG Correction to account for finite box:                  0.006307
MG Remaining discrepancy, due to discretization:         -0.184460 (  -0.01525%)

================================================================================
           ---------------- ENERGY COMPONENTS (Eh) ----------------
           | Kinetic                    :     8527.05555091671340 |
           | Pseudo. (local,OBC,corr'd) :    -5049.78475720326060 |
           | Pseudopotential (non-local):     1403.49415598117002 |
           | Hartree (molecular)        :     1209.47062650739031 |
           | Exchange-correlation       :    -3357.11000709102018 |
           | Ion-ion (open BC)          :   829796.32342468225397 |
           | Dispersion Correction      :       -3.27546977282169 |
           | Smeared ion non-self corr. :  -829748.27070726489183 |
           | Smeared ion self corr.     :   -14457.16956389741972 |
           | Solvent cavitation energy  :        2.29977266714113 |
           | Solute-solvent dis-rep en. :       -1.65336406472444 |
           | Total                      :   -11678.62033853949288 |
           --------------------------------------------------------
           ------ LOCAL ENERGY COMPONENTS FROM MATRIX TRACES ------
           | Pseudopotential (local)    :    -5049.78475720324695 |
           | Hartree                    :    -1989.05974868894646 |
           --------------------------------------------------------
           Integrated density           :     7191.99999999894953
           Integrated density tr(KS)    :     7192.00000000000182
================================================================================


                        <<<<< CALCULATION SUMMARY >>>>>                         
|ITER|    RMS GRADIENT   |     TOTAL ENERGY    |   step   |     Epredicted              
   0     0.00004040746869 -11678.55661948386114   0.624438 -11678.61176093427275        
   1     0.00000980904975 -11678.61980793636758   0.084846 -11678.62024945487065        
   2     0.00000436940651 -11678.62031988939270   0.015816 -11678.62033622057061        
   3     0.00000196697614 -11678.62033853959292  <-- CG                                 

=================== Finished the calculation in solvent ========================
= Adjusting the following parameters: 
= read_denskern: F
= read_tightbox_ngwfs: F
= maxit_pen: 0 (restored to user-specified value)
= restart read filename prefix: ""
= restart write filename prefix: ""
================================================================================

================================================================================
IS: Calculation in solvent completed (NGWFs converged).      

Individual components of total energy in solvent:     hartree           kcal/mol
- Usual non-electrostatic DFT terms:    -12888.73737364940098    -8087804.635210
- Electrostatic fixed charge energy:      1209.47062650739031      758954.260269
- Apolar cavitation energy:                  2.29977266714113        1443.129106
- Apolar dispersion-repulsion energy:       -1.65336406472444       -1037.501592
 -------------------------------------------------------------------------------
- Total energy in solvent:              -11678.62033853959292    -7328444.747428

Components of total energy in solvent:                hartree           kcal/mol
- Usual non-electrostatic DFT terms:    -12888.73737364940098    -8087804.635210
- Electrostatic energy:                   1209.47062650739031      758954.260269
- Apolar energy terms:                       0.64640860241669         405.627513
 -------------------------------------------------------------------------------
- Total energy in solvent:              -11678.62033853959292    -7328444.747428

Calculation of free energy of solvation:              hartree           kcal/mol
- Total energy in solvent:         (+)  -11678.62033853959292    -7328444.747428
- Total energy in vacuum:          (-)  -11674.66957956203260    -7325965.608794
 -------------------------------------------------------------------------------
- Total free energy of solvation:           -3.95075897756033       -2479.138634

Components of polar term in f.e. of solvation:        hartree           kcal/mol
- Electrostatic:                            -4.75821166075525       -2985.822832
- Change in nonelectrostatic DFT terms:      0.16104408077808         101.056684
 -------------------------------------------------------------------------------
- Polar term in f.e. of solvation:          -4.59716757997717       -2884.766148

Components of free energy of solvation:               hartree           kcal/mol
- Polar term in f.e. of solvation: (+)      -4.59716757997717       -2884.766148
- Apolar (cavitation, dis., rep.): (+)       0.64640860241669         405.627513
 -------------------------------------------------------------------------------
- Total free energy of solvation:           -3.95075897756047       -2479.138634
================================================================================


------------------------------ TIMING INFORMATION ------------------------------
AVERAGE TIME:   32809.807s on     60 node(s)                                    
TOTAL TIME:     32809.807s on     60 node(s)                                    
================= AVERAGE TIMINGS FROM ALL NODES (CUMULATIVE) ==================
|| TAG                                    #calls    cpu time   %total  Gflops ||
|| work_imbalance                       :     1        0.00s   0.000%  ------ ||
|| sparse_set_to_garbage                :   182        0.03s   0.000%  ------ ||
|| parallel_prepare_fd_halos_request    :  1953        0.03s   0.000%  ------ ||
|| ngwfs_initialise_from_radial         :     1        0.10s   0.000%  ------ ||
|| basis_extract_function_from_box      :  3577        0.16s   0.000%  ------ ||
|| parallel_prepare_fd_halos_satisfy    :  1953        0.67s   0.002%  ------ ||
|| parallel_prepare_fd_halos_alloc      :  1953        1.55s   0.005%  ------ ||
|| pseudopotentials_nonlocal_mat        :    31        2.23s   0.007%  ------ ||
|| density_init_guess_real              :     1        4.52s   0.014%  ------ ||
|| restart_kernel_read                  :     1        6.54s   0.020%  ------ ||
|| openbc_locps_radial                  :     1        8.54s   0.026%  ------ ||
|| restart_ngwfs_tightbox_input         :     1        9.54s   0.029%  ------ ||
|| parallel_prepare_fd_halos_comms_imbal:  1953       10.30s   0.031%  ------ ||
|| parallel_prepare_fd_halos_clear      :  1953       20.75s   0.063%  ------ ||
|| sparse_init                          :     2       22.43s   0.068%  ------ ||
|| projectors_func_ovlp_box             :    31       27.82s   0.085%  ------ ||
|| parallel_prepare_fd_halos_comms_wait :  1953       28.91s   0.088%  ------ ||
|| projectors_init_fftbox_recip         :   143       32.38s   0.099%  ------ ||
|| function_ops_brappd_ketppd           :    31       33.65s   0.103%  ------ ||
|| palser_mano_kernel_optimise          :     1       37.67s   0.115%  ------ ||
|| basis_copy_function_to_box           : 58002       41.72s   0.127%  ------ ||
|| ngwf_gradient_coeffs                 :    16       49.99s   0.152%  ------ ||
|| fourier_apply_box_pair               :  5156       53.33s   0.163% 559.779 ||
|| pseudo_make_structure_factor         :     2       60.38s   0.184%  ------ ||
|| parallel_prepare_fd_halos            :  1953       62.23s   0.190%  ------ ||
|| restart_kernel_write                 :    13       78.52s   0.239%  ------ ||
|| sparse_embed_hotelling_invert_embed  :    31       85.97s   0.262%  ------ ||
|| finite_difference_derivative         :  1953      151.40s   0.461%  ------ ||
|| projectors_gradient_batch            :   112      153.03s   0.466%  ------ ||
|| integrals_kinetic                    :    31      161.71s   0.493%  ------ ||
|| basis_dot_function_with_box          : 8.886M     177.33s   0.540%  ------ ||
|| fourier_apply_cell_backward          :  1303      186.80s   0.569%  98.942 ||
|| sparse_trace                         :  5504      204.19s   0.622%  ------ ||
|| fourier_apply_cell_forward           :  1301      248.08s   0.756%  74.390 ||
|| openbc_locps_on_grid                 :     2      275.24s   0.839%  ------ ||
|| kernel_purify                        :   496      309.36s   0.943%  ------ ||
|| basis_add_function_to_box            : 18.52M     426.13s   1.299%  ------ ||
|| lnv_gradient_norm                    :   160      441.29s   1.345%  ------ ||
|| xc_energy_potential                  :   325      501.51s   1.529%  ------ ||
|| hamiltonian_energy_components        :     4      503.21s   1.534%  ------ ||
|| kernel_fix                           :   160      568.99s   1.734%  ------ ||
|| ngwf_gradient_build_batch            :   112      771.04s   2.350%  ------ ||
|| integrals_locpot_mat_els_batch       :  1183      838.01s   2.554%  ------ ||
|| ngwf_gradient_batch                  :   112     1087.65s   3.315%  ------ ||
|| density_batch_row_sums               :  2268     1176.22s   3.585%  ------ ||
|| restart_ngwfs_tightbox_output        :    11     1211.85s   3.694%  ------ ||
|| ngwf_gradient_lnv                    :    16     1238.12s   3.774%  ------ ||
|| cell_grid_deposit_box_real           : 37312     1344.25s   4.097%  ------ ||
|| cell_grid_extract_box_real           : 41134     1593.47s   4.857%  ------ ||
|| sparse_product                       :  6783     1916.38s   5.841%  ------ ||
|| density_fftbox_deposit_to_cell       : 35316     1927.43s   5.875%  ------ ||
|| potential_apply_to_ngwf_batch        :  1183     3596.17s  10.961%  ------ ||
|| density_fftbox_interpolate_multiply  : 35316     3680.57s  11.218%  ------ ||
|| integrals_locpot_dbl_grid            :   169     4454.80s  13.578%  ------ ||
|| fourier_apply_box                    : 121.6k    4516.44s  13.766% 755.311 ||
|| multigrid_prepare_bound_cond         :   325     4651.29s  14.177%  ------ ||
|| density_batch_interp_deposit         :  2268     6508.81s  19.838%  ------ ||
|| density_on_dbl_grid                  :   324     8113.73s  24.730%  ------ ||
|| dl_mg_solver_calls                   :   325     8650.15s  26.365%  ------ ||
|| multigrid_calculate_hartree          :   325    13511.59s  41.182%  ------ ||
|| hamiltonian_lhxc_calculate           :   320    22071.80s  67.272%  ------ ||
|| lnv_denskernel_optimise_cg           :    16    27367.31s  83.412%  ------ ||
|| ngwf_cg_optimise                     :     2    31809.79s  96.952%  ------ ||
|| total_time                           :     1    32809.81s 100.000%  ------ ||
================================================================================
Overhead of generating timer report: 
- 0 ms averaging over threads,
- 15 ms ensuring consistency across MPI ranks,
- 1 ms printing in order.

Job completed: 20-06-2020 04:39 (+0100)

Application 40892496 resources: utime ~6856333s, stime ~225362s, Rss ~3694344, inblocks ~333549376, outblocks ~52470611
