 +---------------------------------------------------------------+
 |                                                               |
 |        ####### #     # ####### ####### ####### ######         |
 |        #     # ##    # #          #    #       #     #        |
 |        #     # # #   # #          #    #       #     #        |
 |        #     # #  #  # #####      #    #####   ######         |
 |        #     # #   # # #          #    #       #              |
 |        #     # #    ## #          #    #       #              |
 |        ####### #     # #######    #    ####### #              |
 |                                                               |
 |        Linear-Scaling Ab Initio Total Energy Program          |
 |                                                               |
 |          Release for academic collaborators of ODG            |
 |                                             Version 5.3.2.6.  |
 |                                                               |
 +---------------------------------------------------------------+
 |                                                               |
 |  Authors:                                                     |
 |  Jacek Dziedzic, Peter D. Haynes, Nicholas D. M. Hine,        |
 |  Arash. A. Mostofi, Mike C. Payne and Chris-Kriton Skylaris   |
 |                                                               |
 |  Contributors:                                                |
 |  J. Aarons, L. Andrinopoulos, P. W. Avraam, R. A. Bell,       |
 |  A. Bhandari, G. A. Bramley, R. J. Charlton, S. J. Clark,     |
 |  R. J. Clements, G. C. Constantinescu, F. Corsetti,           |
 |  N. Corsini, O. Dieguez, S. M. M. Dubois, K. K. B. Duff,      |
 |  J. M. Escartin, A. Greco, H. Helal, Q. O. Hill, L. P. Lee,   |
 |  J.-H. Li, E. B. Linscott, G. Moynihan, D. D. O`Regan,        |
 |  O. K. Okan, M. J. S. Phipps, C. J. Pickard,                  |
 |  J. C. A. Prentice, M. I. J. Probert, L. E. Ratcliff,         |
 |  M. Robinson, A. Ruiz Serrano, J. S. Spencer, E. W. Tait,     |
 |  G. Teobaldi, D. Turban, V. Vitale, K. A. Wilkinson,          |
 |  C. Weber, J. C. Womack, N. Yeung and T. J. Zuehlsdorff       |
 |                                                               |
 |                                   Copyright (c) 2004-2019     |
 |                                                               |
 |  Please cite:                                                 |
 |  "Introducing ONETEP: Linear-scaling density functional       |
 |   simulations on parallel computers".                         |
 |   C.-K. Skylaris, P. D. Haynes, A. A. Mostofi, M. C. Payne.   |
 |   J. Chem. Phys. 122 084119 (2005).                           |
 |                                                               |
 |          in all publications arising from your use of ONETEP. |
 |                                                               |
 +---------------------------------------------------------------+
 |                                                               |
 |   ONETEP is based on developments described in the following  |
 |   publications:                                               |
 |                                                               |
 |  "Nonorthogonal generalized Wannier function pseudopotential  |
 |   plane-wave method".                                         |
 |   C.-K. Skylaris, A. A. Mostofi, P. D. Haynes, O. Dieguez,    |
 |   M. C. Payne.                                                |
 |   Phys. Rev. B 66 035119 (2002).                              |
 |                                                               |
 |  "Preconditioned iterative minimization for linear-scaling    |
 |   electronic structure calculations".                         |
 |   A. A. Mostofi, P. D. Haynes, C.-K. Skylaris, M. C. Payne.   |
 |   J. Chem. Phys. 119(17), pp.8842-8848 (2003).                |
 |                                                               |
 |  "Total-energy calculations on a real space grid with         |
 |   localized functions and a plane-wave basis".                |
 |   A. A. Mostofi, C.-K. Skylaris, P. D. Haynes, M. C. Payne.   |
 |   Comput. Phys. Commun. 147, pp.788-802 (2002).               |
 |                                                               |
 |  "Accurate kinetic energy evaluation in electronic structure  |
 |   calculations with localized functions on real space grids"  |
 |   C.-K. Skylaris, A. A. Mostofi, P. D. Haynes, C. J. Pickard, |
 |   M. C. Payne.                                                |
 |   Comput. Phys. Commun. 140, pp.315-322 (2001).               |
 |                                                               |
 |  "Accurate ionic forces and geometry optimization in linear-  |
 |   scaling density-functional theory with local orbitals"      |
 |   N. D. M. Hine, M. Robinson, P. D. Haynes, C.-K. Skylaris,   |
 |   M. C. Payne, and A. A. Mostofi.                             |
 |   Phys. Rev. B 83 195102 (2011).                              |
 |                                                               |
 +---------------------------------------------------------------+

Job started: 26-06-2020 17:07 (+0100)
 
Reading parameters from file "host_32021.dat" ...... done

If your calculation crashes here, before "Checking processes and threads..."
is displayed, then your stack size is insufficient.
If so, use "ulimit -s unlimited" at runtime.
You can disable this check with "check_stack_size F".

Checking processes and threads...
   Determining the default number of threads...
      No default threads set at compilation time: defaulting to 1.
      OpenMP library call suggests 4 threads.
      Hybrid MPI-OpenMP compilation detected.
      Number of MPI processes > 1.
      OMP_NUM_THREADS environment variable present and
      its value matches the one obtained from the OpenMP library call.
      Using this value as default.
      Default threads: 4
      Default applies to threads_max and threads_num_fftboxes.
      Settings in the input file override this default.
   ... done

   Running with 60 MPI processes.
   There are 6 MPI processes running on the same node as the root process.
   Each MPI process is using: 
               1 threads for simulation cell FFTs.
               1 threads for parallel FFT box operations.
               4 threads for loops over batched FFT box operations.
               4 threads in other parallel regions.
... done

Basic input checks...... done

Reading geometry and species blocks from file "host_32021.dat" ...
  <species_atomic_set> block not found: NGWF initialisation set to SOLVE
IS: Dielectric excluded regions:
    - NONE.
    
  Number of PPD points along a3 set to 1.  This is 
  the default value, it may have been provided also in the input file.
... done
 Writing xyz coordinates to file "host_32021.xyz" ... done


--------------------------------------------------------------------------------
---------------------------------- INPUT FILE ----------------------------------
--------------------------------------------------------------------------------

cutoff_energy       : 800 eV                                                    
xc_functional PBE                                                               
task SINGLEPOINT                                                                
write_xyz true                                                                  
output_detail VERBOSE                                                           
ngwf_threshold_orig : 0.000002                                                  
kernel_cutoff       : 1000                                                      
k_zero              : 3.5                                                       
elec_cg_max 0                                                                   
occ_mix 1.0                                                                     
dispersion 1                                                                    
maxit_ngwf_cg 40                                                                
minit_lnv 10                                                                    
maxit_lnv 10                                                                    
write_denskern F                                                                
write_tightbox_ngwfs F                                                          
charge 9                                                                        
is_implicit_solvent T                                                           
is_auto_solvation T                                                             
is_include_apolar T                                                             
is_smeared_ion_rep T                                                            
is_solvent_surf_tension 4.7624E-5 Ha/bohr**2                                    
is_apolar_scaling_factor 0.281075                                               
is_solvation_beta 1.3                                                           
is_density_threshold 0.00035                                                    
is_bulk_permittivity 78.54                                                      
is_dielectric_model fix_initial                                                 
is_smeared_ion_width 0.8                                                        
mg_defco_fd_order 8                                                             
is_bc_coarseness 10                                                             
is_bc_surface_coarseness 1                                                      
fine_grid_scale 2.0                                                             
%block species                                                                  
N   N   7 4 8.0                                                                 
H   H   1 1 8.0                                                                 
C   C   6 4 8.0                                                                 
S   S  16 9 8.0                                                                 
O   O   8 4 8.0                                                                 
%endblock species                                                               
%block species_pot                                                              
N   N_00.recpot                                                                 
H   H_04.recpot                                                                 
C   C_01.recpot                                                                 
S   S_00.recpot                                                                 
O   O_02.recpot                                                                 
%endblock species_pot                                                           
%block lattice_cart                                                             
140.777   0.000   0.000                                                         
0.000 144.511   0.000                                                           
0.000   0.000   162.462                                                         
%endblock lattice_cart                                                          
%block positions_abs                                                            
     Hash =   000004554740605021457966
%endblock positions_abs                                                         

--------------------------------------------------------------------------------
-------------------------------- END INPUT FILE --------------------------------
--------------------------------------------------------------------------------


 
 ESDF WARNING(1): "kernelcutoff" (esdf_physical) has no units. Assume "bohr".
 ESDF WARNING(2): "kzero" (esdf_physical) has no units. Assume "1/bohr".
 ESDF WARNING(3
 ): "issmearedionwidth" (esdf_physical) has no units. Assume "bohr".
<<<<<<<<<<<<<<<<<<<<<<<<<<<<<<<<< Full system >>>>>>>>>>>>>>>>>>>>>>>>>>>>>>>>>>
<<<<<<<<<<<<<<<<<<<<<<<<< Pseudopotential information >>>>>>>>>>>>>>>>>>>>>>>>>>
File: N_00.recpot [ 2001 points up to Gmax=  52.9 (1/bohr)]
  Atomic number:  7;  ionic charge:  5.000000
    Shell 1: l = 0; rc = 1.48 bohr
File: H_04.recpot [ 2001 points up to Gmax=  52.9 (1/bohr)]
  Atomic number:  1;  ionic charge:  1.000000
    Local potential
File: C_01.recpot [ 2001 points up to Gmax=  52.9 (1/bohr)]
  Atomic number:  6;  ionic charge:  4.000000
    Shell 1: l = 0; rc = 1.48 bohr
File: S_00.recpot [ 2001 points up to Gmax=  52.9 (1/bohr)]
  Atomic number: 16;  ionic charge:  6.000000
    Shell 1: l = 0; rc = 1.90 bohr
    Shell 2: l = 2; rc = 1.84 bohr
File: O_02.recpot [ 2001 points up to Gmax=  52.9 (1/bohr)]
  Atomic number:  8;  ionic charge:  6.000000
    Shell 1: l = 0; rc = 1.31 bohr
<<<<<<<<<<<<<<<<<<<<<<<<<<<<<<<<<<<<<<<<>>>>>>>>>>>>>>>>>>>>>>>>>>>>>>>>>>>>>>>>

-------------------------- Atom counting information ---------------------------
Symbol    Natoms    Nngwfs    Nprojs
  N        236       944       236
  H       1311      1311         0
  C        810      3240       810
  S          6        54        36
  O        239       956       239
.......   ......    ......    ......
Totals:   2602      6505      1321
--------------------------------------------------------------------------------

=============================== PSINC grid sizes ===============================
                      Simulation cell:  280 x 286 x 320
                              FFT-box:   99 x  99 x  99
                                  PPD:    5 x  11 x   1
Grid space d1=  0.502775000000a0 (KE cutoff=  30.05084Eh = 817.72503eV)
Grid space d2=  0.505283216783a0 (KE cutoff=  29.75324Eh = 809.62684eV)
Grid space d3=  0.507693750000a0 (KE cutoff=  29.47137Eh = 801.95686eV)
================================================================================

********************* Fourier parallelisation information **********************
       Coarse grid (whole simulation cell) dimensions:    280   286   320
          Real-space ('12') slabs/node (min max mean):      5     6     5
         Recip-space ('23') slabs/node (min max mean):      2     3     2
********************************************************************************

********************* Fourier parallelisation information **********************
       Double grid (whole simulation cell) dimensions:    560   572   640
          Real-space ('12') slabs/node (min max mean):     10    11    10
         Recip-space ('23') slabs/node (min max mean):      4     5     4
********************************************************************************
ONETEP fine grid is 560 x 572 x 640 gridpoints, 140.7770 x 144.5110 x 162.4620 bohr.
FD multigrid is     553 x 569 x 633 gridpoints, 139.0173 x 143.7531 x 160.6851 bohr.


Calculating local pseudopotential in open BC on a radial grid ...
Discrepancy between calculated realspace psloc and -Z/x on [5a0,259.028a0]:
max |rel. diff| # avg |rel. diff| #  avg rel. diff #  f # pseudopotential file
 0.000261578119    0.000004844123   0.000000072210   55  'N_00.recpot'
 0.000419583258    0.000017514079  -0.000000069370   55  'H_04.recpot'
 0.000363553651    0.000016734795   0.000000141192   55  'C_01.recpot'
 0.000449990737    0.000019382085   0.000000449342   55  'S_00.recpot'
 0.000706973137    0.000028359832   0.000000146371   55  'O_02.recpot'
... done

Atom SCF Calculation for N  : Z (AE atom) =   7 : Z (PS atom) =   5
Config String:
Orbitals (num,occ):  2     2.00 3.00
Orbitals   (num,l):  2        0    1
Real-space Grid (nr,dr,rmax): 1203    0.0066555740    8.0000000000
Spherical Bessel Basis (nsws,lmax,cutoff):   47    1  176.3951722778
Confining potential (l,width,scale):  0    3.0000000000  100.0000000000
Confining potential (l,width,scale):  1    3.0000000000  100.0000000000
  1         -4.7312375307   -3.4155304497    7.0523828109   -1.9351020946
  2         -9.7309464766   -2.0532547791    8.2966052865   -2.2494486027
  3         -9.6627394379   -2.1124926340    8.2327997121   -2.2369778124
  4         -9.6814993499   -2.1215521045    8.2229805960   -2.2365178421
  5         -9.6843326483   -2.1250939529    8.2191374534   -2.2362718126
  6         -9.6859628709   -2.1267894855    8.2172963573   -2.2362066344
  7         -9.6867347035   -2.1276425665    8.2163697352   -2.2361903369
  8         -9.6870802100   -2.1280764625    8.2158983890   -2.2361891460
  9         -9.6872290423   -2.1282977424    8.2156580222   -2.2361920435
 10         -9.6872901988   -2.1284107021    8.2155353368   -2.2361953393
 11         -9.6873135296   -2.1284684031    8.2154726809   -2.2361979819
 12         -9.6873212476   -2.1284978948    8.2154406648   -2.2361998431
 13         -9.6873229586   -2.1285129774    8.2154242957   -2.2362010676
 14         -9.6873226456   -2.1285206957    8.2154159216   -2.2362018403
 15         -9.6873218534   -2.1285246479    8.2154116349   -2.2362023142
 16         -9.6873212599   -2.1285262679    8.2154098784   -2.2362025420
 17         -9.6873207834   -2.1285272564    8.2154088068   -2.2362026955
 18         -9.6873204210   -2.1285278596    8.2154081529   -2.2362027982
 19         -9.6873201550   -2.1285282280    8.2154077538   -2.2362028667
 20         -9.6873199645   -2.1285284529    8.2154075102   -2.2362029121
 21         -9.6873198305   -2.1285285903    8.2154073614   -2.2362029421
 22         -9.6873197377   -2.1285286742    8.2154072705   -2.2362029618
Atom SCF converged after  22 iterations to a total energy of     -9.68731974

Atom SCF Calculation for H  : Z (AE atom) =   1 : Z (PS atom) =   1
Config String:
Orbitals (num,occ):  1     1.00
Orbitals   (num,l):  1        0
Real-space Grid (nr,dr,rmax): 1203    0.0066555740    8.0000000000
Spherical Bessel Basis (nsws,lmax,cutoff):   47    0  176.3951722778
Confining potential (l,width,scale):  0    3.0000000000  100.0000000000
  1         -0.3194257691   -0.2393854593    0.2820953124   -0.2424203209
  2         -0.3951823392   -0.2377116493    0.2886404059   -0.2475147891
  3         -0.4317044583   -0.2352244387    0.2921333887   -0.2514046172
  4         -0.4470703708   -0.2341892222    0.2934391879   -0.2531009782
  5         -0.4532132900   -0.2338556667    0.2938388426   -0.2537313520
  6         -0.4556579251   -0.2337612552    0.2939448584   -0.2539550462
  7         -0.4566418315   -0.2337377355    0.2939680120   -0.2540342273
  8         -0.4570437922   -0.2337331116    0.2939708287   -0.2540627372
  9         -0.4572102946   -0.2337328328    0.2939698291   -0.2540732650
 10         -0.4572800424   -0.2337332404    0.2939687193   -0.2540772588
 11         -0.4573095100   -0.2337335791    0.2939680317   -0.2540788122
 12         -0.4573220379   -0.2337337762    0.2939676699   -0.2540794294
 13         -0.4573273880   -0.2337338775    0.2939674931   -0.2540796787
 14         -0.4573296803   -0.2337339266    0.2939674099   -0.2540797808
 15         -0.4573306647   -0.2337339495    0.2939673718   -0.2540798230
 16         -0.4573310882   -0.2337339601    0.2939673545   -0.2540798406
 17         -0.4573312706   -0.2337339649    0.2939673467   -0.2540798479
 18         -0.4573313493   -0.2337339670    0.2939673433   -0.2540798510
Atom SCF converged after  18 iterations to a total energy of     -0.45733135

Atom SCF Calculation for C  : Z (AE atom) =   6 : Z (PS atom) =   4
Config String:
Orbitals (num,occ):  2     2.00 2.00
Orbitals   (num,l):  2        0    1
Real-space Grid (nr,dr,rmax): 1203    0.0066555740    8.0000000000
Spherical Bessel Basis (nsws,lmax,cutoff):   47    1  176.3951722778
Confining potential (l,width,scale):  0    3.0000000000  100.0000000000
Confining potential (l,width,scale):  1    3.0000000000  100.0000000000
  1         -5.2976922011   -1.3069684169    4.5135249990   -1.4493313817
  2         -5.3721716256   -1.3429755895    4.4750154450   -1.4361613026
  3         -5.3809959565   -1.3617365618    4.4541655428   -1.4305930207
  4         -5.3918938866   -1.3667928461    4.4484735100   -1.4294652294
  5         -5.3956096428   -1.3688539142    4.4461376126   -1.4290734646
  6         -5.3968271862   -1.3696852393    4.4451910874   -1.4289366866
  7         -5.3972028401   -1.3700178062    4.4448112275   -1.4288900460
  8         -5.3973067903   -1.3701500158    4.4446598370   -1.4288749220
  9         -5.3973286940   -1.3702023868    4.4445997329   -1.4288704293
 10         -5.3973289850   -1.3702230869    4.4445759233   -1.4288693188
 11         -5.3973254264   -1.3702312560    4.4445665049   -1.4288691775
 12         -5.3973224003   -1.3702344755    4.4445627836   -1.4288692549
 13         -5.3973208708   -1.3702354890    4.4445616088   -1.4288693270
 14         -5.3973198783   -1.3702360102    4.4445610034   -1.4288693814
 15         -5.3973192535   -1.3702362780    4.4445606917   -1.4288694190
 16         -5.3973188684   -1.3702364155    4.4445605313   -1.4288694437
 17         -5.3973186349   -1.3702364860    4.4445604489   -1.4288694595
 18         -5.3973184951   -1.3702365221    4.4445604065   -1.4288694693
 19         -5.3973184122   -1.3702365405    4.4445603848   -1.4288694753
Atom SCF converged after  19 iterations to a total energy of     -5.39731841

Atom SCF Calculation for S  : Z (AE atom) =  16 : Z (PS atom) =   6
Config String:
Orbitals (num,occ):  3     2.00 4.00 0.00
Orbitals   (num,l):  3        0    1    2
Real-space Grid (nr,dr,rmax): 1203    0.0066555740    8.0000000000
Spherical Bessel Basis (nsws,lmax,cutoff):   47    2  176.3951722778
Confining potential (l,width,scale):  0    3.0000000000  100.0000000000
Confining potential (l,width,scale):  1    3.0000000000  100.0000000000
Confining potential (l,width,scale):  2    3.0000000000  100.0000000000
  1        -12.4735062396   -1.0328741412   10.1554312477   -2.4512393157
  2         -9.9458301913   -2.4607392455    8.3041325857   -2.0306994528
  3        -10.1450417646   -2.2931184565    8.4831893826   -2.0812538287
  4        -10.1528335592   -2.2733105793    8.5050388867   -2.0896035179
  5        -10.1571940363   -2.2633716629    8.5160794258   -2.0939370707
  6        -10.1594380571   -2.2584938667    8.5215163935   -2.0961289008
  7        -10.1605856507   -2.2561081821    8.5241804044   -2.0972291378
  8        -10.1611799191   -2.2549395235    8.5254868240   -2.0977806248
  9        -10.1614918752   -2.2543658586    8.5261285885   -2.0980571586
 10        -10.1616572884   -2.2540839121    8.5264441898   -2.0981959233
 11        -10.1617455602   -2.2539453058    8.5265994231   -2.0982656006
 12        -10.1617928447   -2.2538772062    8.5266757320   -2.0983006047
 13        -10.1618182292   -2.2538437891    8.5267131983   -2.0983181961
 14        -10.1618318741   -2.2538274201    8.5267315620   -2.0983270391
 15        -10.1618392144   -2.2538194197    8.5267405433   -2.0983314852
 16        -10.1618431651   -2.2538155200    8.5267449245   -2.0983337210
 17        -10.1618452923   -2.2538136252    8.5267470551   -2.0983348455
 18        -10.1618464380   -2.2538127080    8.5267480875   -2.0983354110
 19        -10.1618470552   -2.2538122659    8.5267485856   -2.0983356955
 20        -10.1618473878   -2.2538120540    8.5267488248   -2.0983358386
 21        -10.1618475670   -2.2538119530    8.5267489389   -2.0983359106
 22        -10.1618476637   -2.2538119053    8.5267489929   -2.0983359468
Atom SCF converged after  22 iterations to a total energy of    -10.16184766

Atom SCF Calculation for O  : Z (AE atom) =   8 : Z (PS atom) =   6
Config String:
Orbitals (num,occ):  2     2.00 4.00
Orbitals   (num,l):  2        0    1
Real-space Grid (nr,dr,rmax): 1203    0.0066555740    8.0000000000
Spherical Bessel Basis (nsws,lmax,cutoff):   47    1  176.3951722778
Confining potential (l,width,scale):  0    3.0000000000  100.0000000000
Confining potential (l,width,scale):  1    3.0000000000  100.0000000000
  1         -1.8735052164   -7.5539365035   10.1554312477   -2.4512393157
  2        -16.0318313751   -3.1285771268   13.6395848164   -3.2358799643
  3        -15.9524020423   -3.0762819706   13.6967272503   -3.2536856837
  4        -15.8521515939   -3.0781493909   13.6951909330   -3.2561700440
  5        -15.8357139793   -3.0748501933   13.6988803334   -3.2580493133
  6        -15.8246052853   -3.0740779781   13.6997881576   -3.2588327446
  7        -15.8189019501   -3.0737449687   13.7001869911   -3.2592378801
  8        -15.8159785510   -3.0736026016   13.7003615168   -3.2594475790
  9        -15.8144776168   -3.0735437994   13.7004360379   -3.2595560735
 10        -15.8137058024   -3.0735207882   13.7004667348   -3.2596122456
 11        -15.8133083127   -3.0735125946   13.7004786868   -3.2596413656
 12        -15.8131032938   -3.0735102195   13.7004828997   -3.2596564858
 13        -15.8129973902   -3.0735099286   13.7004840891   -3.2596643505
 14        -15.8129426040   -3.0735102506   13.7004842061   -3.2596684489
 15        -15.8129142203   -3.0735106556   13.7004840157   -3.2596705887
 16        -15.8128994940   -3.0735109855   13.7004837906   -3.2596717080
 17        -15.8128918425   -3.0735112169   13.7004836103   -3.2596722946
 18        -15.8128878614   -3.0735113674   13.7004834848   -3.2596726026
 19        -15.8128857871   -3.0735114608   13.7004834035   -3.2596727646
 20        -15.8128847048   -3.0735115170   13.7004833533   -3.2596728500
 21        -15.8128841394   -3.0735115501   13.7004833231   -3.2596728951
 22        -15.8128838436   -3.0735115693   13.7004833054   -3.2596729190
 23        -15.8128836887   -3.0735115802   13.7004832951   -3.2596729316
 24        -15.8128836074   -3.0735115864   13.7004832893   -3.2596729383
Atom SCF converged after  24 iterations to a total energy of    -15.81288361

========================== Calculation in vacuum ==============================
= Adjusting the following parameters: 
= is_implicit_solvent: F
= is_include_apolar: F
= write_denskern: T
= write_tightbox_ngwfs: T
= restart read filename prefix: ""
= restart write filename prefix: "vacuum_"
===============================================================================

Determining parallel strategy ...
... using space-filling curve
... NGWF load balancing: max    109;  min    108;  average    108
... Projector load balancing: max     25;  min     21;  average     22
... done
Calculating direct Ion-Ion energy ...
Ion-Ion Energy        :    824100.19811488687992
======================= Empirical dispersion information =======================
Model : Elstner
Dispersion Correction Energy: -0.31953673E+01 Hartree
================================================================================
Basis initialisation ...... NGWF spheres initialised
... Projector spheres initialised
... NGWF tight boxes initialised
... Tight-boxes gathered
... NGWF basis size (local,global):    1028268  62003051
... Nonlocal pseudopotential projector initialisation
... done

========================== Sparse matrix information ===========================
                        Overlap matrix filling:   6.63%
                        Density kernel filling: 100.00%
              NGWF-Proj overlap matrix filling:   1.77%
                    Hamiltonian matrix filling:   7.47%
                  NGWF diagonal matrix filling:   0.05%
                             KS matrix filling: 100.00% 
                           KSKS matrix filling: 100.00% 
================================================================================

Sparse matrix initialisation ... done

Generating smeared ion density ... done
Smeared ion self correction:     -14457.169564
Smeared ion non-self correction: -824052.108357
NGWF initialisation ...... done
============ Calculation of NGWF S^-1 using Hotelling algorithm ================ 
         Iteration  |  Frobenius norm and Maximum abs value    (of I-S*S_n^-1)   
               1       0.78567847E+02     0.98338151E+00
               2       0.76779143E+02     0.96716860E+00
               3       0.73860084E+02     0.93588740E+00
               4       0.69671788E+02     0.87748130E+00
               5       0.64415692E+02     0.77627520E+00
               6       0.58474560E+02     0.70674560E+00
               7       0.52455494E+02     0.67287110E+00
               8       0.46889636E+02     0.64513819E+00
               9       0.40908850E+02     0.60784208E+00
              10       0.32802430E+02     0.54205121E+00
              11       0.22323280E+02     0.43431219E+00
              12       0.11619317E+02     0.29628006E+00
              13       0.39400373E+01     0.14009014E+00
              14       0.65214148E+00     0.37556380E-01
              15       0.33711183E-01     0.36994940E-02
              16       0.21818782E-03     0.39142768E-04
              17       0.17012290E-07     0.45164388E-08
              18       0.98760848E-13     0.48849813E-14
================================================================================
Calculating local pseudopotential in open BC on the fine real space grid ...
... done

MG BCs: +ve charge blocks (gridpoints):     20510 (   16114527).
MG BCs: -ve charge blocks (gridpoints):      8019 (    1073690).
MG BCs:     Elided blocks (gridpoints):    183778 (  181989664).
MG BCs: Computational effort saved:  99.9857%.
MG BCs: Charge after coarse-graining:           -9.0002261.
MG DL_MG: Calling solver with defect correction order = 8
MG DL_MG: Solver finished
MG Hartree energy from (\int phi*rho dr):              1462.566158
MG Hartree energy from (\int eps (grad phi)^2 dr):     1461.952133
MG Discrepancy due to finite box and discretization:     -0.614024 (  -0.04198%)
MG Correction to account for finite box:                  0.460070
MG Remaining discrepancy, due to discretization:         -0.153954 (  -0.01053%)
Up spin density kernel initialisation ... 
======= Optimisation of K by Palser-Manolopoulos canonical purification ======== 
         Iteration  |  Band structure energy |    c_n   
               1       -2577.87200224732169    0.5268725
               2       -2753.49864027357489    0.5170422
               3       -2933.53439344150775    0.5153859
               4       -3083.94861071603100    0.5288436
               5       -3176.51734797113113    0.5647251
               6       -3215.20891085112999    0.6093482
               7       -3228.35186287947272    0.6203841
               8       -3234.07661082413597    0.6196600
               9       -3236.83107355812626    0.6380860
              10       -3237.94306111797005    0.6698262
              11       -3238.36430131111410    0.6878194
              12       -3238.55204280281123    0.6776516
              13       -3238.65604371341851    0.6425827
              14       -3238.71978270102409    0.6022572
              15       -3238.75463018873143    0.5770866
              16       -3238.76897387805730    0.5607032
              17       -3238.77400618505681    0.5402465
              18       -3238.77573102336055    0.5129371
              19       -3238.77621653349706    0.5010808
              20       -3238.77626881801552    0.5000075
              21       -3238.77626949407932    0.5001371
              22       -3238.77626949421210    0.5001371
Termination criterion satisfied: band energy change below threshold.
Final occupancy bounds: [    0.00000000000000:    1.00000000000000]
Closest occupancy to 0.5:     1.00000000000000
================================================================================
... done

Writing density kernel to file "host_32021.vacuum_dkn" ... done

>>> Optimising kernel for current NGWFs:
   Initial electron number for spin 1:    7192.00000000
     Final electron number for spin 1:    7192.00000000

=================== Penalty functional idempotency correction ==================
 RMS occupancy error at iteration   1:  0.000000 (step -0.5000 Ne1=   7192.0000)
            Final RMS occupancy error   :  0.000000 (Ne1=   7192.0000)
               Final occupancy bounds   : [  0.0000,  1.0000]
================================================================================

................................................................................
<<<<<<<<<<<<<< LNV (Original version) density kernel optimisation >>>>>>>>>>>>>>
~~~~~~~~~~~~~~~~~~~~~~~~~~~~~~~~~~~~~~~~~~~~~~~~~~~~~~~~~~~~~~~~~~~~~~~~~~~~~~~~
   iter  |      energy (Eh)       | rms gradient |  commutator  |   dE (Eh)
MG BCs: +ve charge blocks (gridpoints):     30845 (   17248396).
MG BCs: -ve charge blocks (gridpoints):      8392 (    1106457).
MG BCs:     Elided blocks (gridpoints):    173427 (  180823028).
MG BCs: Computational effort saved:  99.9803%.
MG BCs: Charge after coarse-graining:           -9.0009304.
MG DL_MG: Calling solver with defect correction order = 8
MG DL_MG: Solver finished
MG Hartree energy from (\int phi*rho dr):              1416.386109
MG Hartree energy from (\int eps (grad phi)^2 dr):     1415.727635
MG Discrepancy due to finite box and discretization:     -0.658474 (  -0.04649%)
MG Correction to account for finite box:                  0.461076
MG Remaining discrepancy, due to discretization:         -0.197398 (  -0.01394%)
      ideal mu1:      -0.715734852950
             Q0:  -11508.019960500184
             G0:    -141.332349196953
   RMS gradient:       0.001827567760
MG BCs: +ve charge blocks (gridpoints):     30834 (   17330943).
MG BCs: -ve charge blocks (gridpoints):      8264 (    1086586).
MG BCs:     Elided blocks (gridpoints):    173436 (  180760352).
MG BCs: Computational effort saved:  99.9804%.
MG BCs: Charge after coarse-graining:           -9.0009508.
MG DL_MG: Calling solver with defect correction order = 8
MG DL_MG: Solver finished
MG Hartree energy from (\int phi*rho dr):              1442.345309
MG Hartree energy from (\int eps (grad phi)^2 dr):     1441.703452
MG Discrepancy due to finite box and discretization:     -0.641858 (  -0.04450%)
MG Correction to account for finite box:                  0.460473
MG Remaining discrepancy, due to discretization:         -0.181385 (  -0.01258%)
     Trial step:       0.500000000000
             Q1:  -11518.897536690463
 Quadratic coef:      59.788598408197
 Linear coef   :     -70.666174598477
           Qmin:  -11528.900648312469
Quadratic minimum step length (  0.295483488825) accepted
    Initial Ne1:    7192.00000000
      Final Ne1:    7192.00000000

=================== Penalty functional idempotency correction ==================
 RMS occupancy error at iteration   1:  0.003293 (step -0.4889 Ne1=   7192.0000)
 RMS occupancy error at iteration   2:  0.000024 (step -0.5000 Ne1=   7192.0000)
            Final RMS occupancy error   :  0.000000 (Ne1=   7192.0000)
               Final occupancy bounds   : [  0.0000,  1.0000]
================================================================================

    1        -1.150801996050E+04     1.8276E-03     1.6530E-03
MG BCs: +ve charge blocks (gridpoints):     30849 (   17298618).
MG BCs: -ve charge blocks (gridpoints):      8320 (    1094885).
MG BCs:     Elided blocks (gridpoints):    173423 (  180784378).
MG BCs: Computational effort saved:  99.9803%.
MG BCs: Charge after coarse-graining:           -9.0009425.
MG DL_MG: Calling solver with defect correction order = 8
MG DL_MG: Solver finished
MG Hartree energy from (\int phi*rho dr):              1423.903725
MG Hartree energy from (\int eps (grad phi)^2 dr):     1423.256003
MG Discrepancy due to finite box and discretization:     -0.647722 (  -0.04549%)
MG Correction to account for finite box:                  0.460627
MG Remaining discrepancy, due to discretization:         -0.187095 (  -0.01314%)
      ideal mu1:      -0.755061878974
             Q0:  -11529.283277771203
             G0:     -11.540161369647
   RMS gradient:       0.000518798598
MG BCs: +ve charge blocks (gridpoints):     30844 (   17316252).
MG BCs: -ve charge blocks (gridpoints):      8297 (    1089834).
MG BCs:     Elided blocks (gridpoints):    173425 (  180771795).
MG BCs: Computational effort saved:  99.9803%.
MG BCs: Charge after coarse-graining:           -9.0009459.
MG DL_MG: Calling solver with defect correction order = 8
MG DL_MG: Solver finished
MG Hartree energy from (\int phi*rho dr):              1429.417290
MG Hartree energy from (\int eps (grad phi)^2 dr):     1428.773060
MG Discrepancy due to finite box and discretization:     -0.644229 (  -0.04507%)
MG Correction to account for finite box:                  0.460367
MG Remaining discrepancy, due to discretization:         -0.183862 (  -0.01286%)
     Trial step:       0.384371882963
             Q1:  -11531.987756699673
 Quadratic coef:       1.731234626879
 Linear coef   :      -4.435713555349
           Qmin:  -11532.124538343229
Quadratic minimum step length (  0.492412624229) accepted
    Initial Ne1:    7191.99992252
      Final Ne1:    7192.00000000

=================== Penalty functional idempotency correction ==================
 RMS occupancy error at iteration   1:  0.001716 (step -0.4936 Ne1=   7192.0000)
 RMS occupancy error at iteration   2:  0.000009 (step -0.5000 Ne1=   7192.0000)
            Final RMS occupancy error   :  0.000000 (Ne1=   7192.0000)
               Final occupancy bounds   : [  0.0000,  1.0000]
================================================================================

    2        -1.152928327777E+04     5.1880E-04     4.6924E-04    -2.1263E+01
MG BCs: +ve charge blocks (gridpoints):     30847 (   17321054).
MG BCs: -ve charge blocks (gridpoints):      8288 (    1088394).
MG BCs:     Elided blocks (gridpoints):    173422 (  180768433).
MG BCs: Computational effort saved:  99.9804%.
MG BCs: Charge after coarse-graining:           -9.0009470.
MG DL_MG: Calling solver with defect correction order = 8
MG DL_MG: Solver finished
MG Hartree energy from (\int phi*rho dr):              1431.007300
MG Hartree energy from (\int eps (grad phi)^2 dr):     1430.363980
MG Discrepancy due to finite box and discretization:     -0.643320 (  -0.04496%)
MG Correction to account for finite box:                  0.460304
MG Remaining discrepancy, due to discretization:         -0.183017 (  -0.01279%)
      ideal mu1:      -0.776218060906
             Q0:  -11532.157897855504
             G0:      -1.797936891694
   RMS gradient:       0.000204910074
MG BCs: +ve charge blocks (gridpoints):     30850 (   17320533).
MG BCs: -ve charge blocks (gridpoints):      8301 (    1089332).
MG BCs:     Elided blocks (gridpoints):    173418 (  180768016).
MG BCs: Computational effort saved:  99.9803%.
MG BCs: Charge after coarse-graining:           -9.0009467.
MG DL_MG: Calling solver with defect correction order = 8
MG DL_MG: Solver finished
MG Hartree energy from (\int phi*rho dr):              1428.882589
MG Hartree energy from (\int eps (grad phi)^2 dr):     1428.239510
MG Discrepancy due to finite box and discretization:     -0.643079 (  -0.04501%)
MG Correction to account for finite box:                  0.460233
MG Remaining discrepancy, due to discretization:         -0.182846 (  -0.01280%)
     Trial step:       0.435051224075
             Q1:  -11532.609084968455
 Quadratic coef:       0.331007532592
 Linear coef   :      -0.782194645542
           Qmin:  -11532.619993429829
Quadratic minimum step length (  0.514028691951) accepted
    Initial Ne1:    7191.99996975
      Final Ne1:    7192.00000000

=================== Penalty functional idempotency correction ==================
 RMS occupancy error at iteration   1:  0.000564 (step -0.4978 Ne1=   7192.0000)
 RMS occupancy error at iteration   2:  0.000001 (step -0.5000 Ne1=   7192.0000)
            Final RMS occupancy error   :  0.000000 (Ne1=   7192.0000)
               Final occupancy bounds   : [  0.0000,  1.0000]
================================================================================

    3        -1.153215789786E+04     2.0491E-04     1.8534E-04    -2.8746E+00
MG BCs: +ve charge blocks (gridpoints):     30850 (   17320478).
MG BCs: -ve charge blocks (gridpoints):      8303 (    1089470).
MG BCs:     Elided blocks (gridpoints):    173418 (  180767933).
MG BCs: Computational effort saved:  99.9803%.
MG BCs: Charge after coarse-graining:           -9.0009467.
MG DL_MG: Calling solver with defect correction order = 8
MG DL_MG: Solver finished
MG Hartree energy from (\int phi*rho dr):              1428.504918
MG Hartree energy from (\int eps (grad phi)^2 dr):     1427.861875
MG Discrepancy due to finite box and discretization:     -0.643044 (  -0.04502%)
MG Correction to account for finite box:                  0.460220
MG Remaining discrepancy, due to discretization:         -0.182824 (  -0.01280%)
      ideal mu1:      -0.776849063776
             Q0:  -11532.624019639567
             G0:      -0.417045002438
   RMS gradient:       0.000098798818
MG BCs: +ve charge blocks (gridpoints):     30852 (   17321311).
MG BCs: -ve charge blocks (gridpoints):      8304 (    1089345).
MG BCs:     Elided blocks (gridpoints):    173416 (  180767225).
MG BCs: Computational effort saved:  99.9803%.
MG BCs: Charge after coarse-graining:           -9.0009468.
MG DL_MG: Calling solver with defect correction order = 8
MG DL_MG: Solver finished
MG Hartree energy from (\int phi*rho dr):              1429.659209
MG Hartree energy from (\int eps (grad phi)^2 dr):     1429.016073
MG Discrepancy due to finite box and discretization:     -0.643137 (  -0.04499%)
MG Correction to account for finite box:                  0.460193
MG Remaining discrepancy, due to discretization:         -0.182944 (  -0.01280%)
     Trial step:       0.472894080787
             Q1:  -11532.719106923905
 Quadratic coef:       0.102130828736
 Linear coef   :      -0.197218113075
           Qmin:  -11532.719228364997
Quadratic minimum step length (  0.456587298130) accepted
    Initial Ne1:    7191.99999364
      Final Ne1:    7192.00000000

=================== Penalty functional idempotency correction ==================
 RMS occupancy error at iteration   1:  0.000179 (step -0.4993 Ne1=   7192.0000)
            Final RMS occupancy error   :  0.000000 (Ne1=   7192.0000)
               Final occupancy bounds   : [ -0.0000,  1.0000]
================================================================================

    4        -1.153262401964E+04     9.8799E-05     8.9361E-05    -4.6612E-01
MG BCs: +ve charge blocks (gridpoints):     30852 (   17321254).
MG BCs: -ve charge blocks (gridpoints):      8304 (    1089366).
MG BCs:     Elided blocks (gridpoints):    173416 (  180767261).
MG BCs: Computational effort saved:  99.9803%.
MG BCs: Charge after coarse-graining:           -9.0009468.
MG DL_MG: Calling solver with defect correction order = 8
MG DL_MG: Solver finished
MG Hartree energy from (\int phi*rho dr):              1429.619370
MG Hartree energy from (\int eps (grad phi)^2 dr):     1428.976237
MG Discrepancy due to finite box and discretization:     -0.643133 (  -0.04499%)
MG Correction to account for finite box:                  0.460194
MG Remaining discrepancy, due to discretization:         -0.182939 (  -0.01280%)
      ideal mu1:      -0.777333312768
             Q0:  -11532.719618026400
             G0:      -0.101516260164
   RMS gradient:       0.000048883723
MG BCs: +ve charge blocks (gridpoints):     30849 (   17321484).
MG BCs: -ve charge blocks (gridpoints):      8302 (    1089264).
MG BCs:     Elided blocks (gridpoints):    173420 (  180767133).
MG BCs: Computational effort saved:  99.9803%.
MG BCs: Charge after coarse-graining:           -9.0009467.
MG DL_MG: Calling solver with defect correction order = 8
MG DL_MG: Solver finished
MG Hartree energy from (\int phi*rho dr):              1429.989190
MG Hartree energy from (\int eps (grad phi)^2 dr):     1429.345912
MG Discrepancy due to finite box and discretization:     -0.643279 (  -0.04498%)
MG Correction to account for finite box:                  0.460197
MG Remaining discrepancy, due to discretization:         -0.183082 (  -0.01280%)
     Trial step:       0.464669162575
             Q1:  -11532.744541014661
 Quadratic coef:       0.022248487337
 Linear coef   :      -0.047171475598
           Qmin:  -11532.744621390408
Quadratic minimum step length (  0.492598209737) accepted
    Initial Ne1:    7192.00151672
      Final Ne1:    7192.00000000

=================== Penalty functional idempotency correction ==================
 RMS occupancy error at iteration   1:  0.000064 (step -0.4997 Ne1=   7192.0000)
            Final RMS occupancy error   :  0.000000 (Ne1=   7192.0000)
               Final occupancy bounds   : [ -0.0000,  1.0000]
================================================================================

    5        -1.153271961803E+04     4.8884E-05     4.4214E-05    -9.5598E-02
MG BCs: +ve charge blocks (gridpoints):     30849 (   17321485).
MG BCs: -ve charge blocks (gridpoints):      8302 (    1089267).
MG BCs:     Elided blocks (gridpoints):    173420 (  180767129).
MG BCs: Computational effort saved:  99.9803%.
MG BCs: Charge after coarse-graining:           -9.0009467.
MG DL_MG: Calling solver with defect correction order = 8
MG DL_MG: Solver finished
MG Hartree energy from (\int phi*rho dr):              1430.011452
MG Hartree energy from (\int eps (grad phi)^2 dr):     1429.368165
MG Discrepancy due to finite box and discretization:     -0.643287 (  -0.04498%)
MG Correction to account for finite box:                  0.460197
MG Remaining discrepancy, due to discretization:         -0.183091 (  -0.01280%)
      ideal mu1:      -0.777291742107
             Q0:  -11532.744667566032
             G0:      -0.030115238765
   RMS gradient:       0.000026645403
MG BCs: +ve charge blocks (gridpoints):     30850 (   17321116).
MG BCs: -ve charge blocks (gridpoints):      8303 (    1089437).
MG BCs:     Elided blocks (gridpoints):    173419 (  180767328).
MG BCs: Computational effort saved:  99.9803%.
MG BCs: Charge after coarse-graining:           -9.0009466.
MG DL_MG: Calling solver with defect correction order = 8
MG DL_MG: Solver finished
MG Hartree energy from (\int phi*rho dr):              1429.390449
MG Hartree energy from (\int eps (grad phi)^2 dr):     1428.747168
MG Discrepancy due to finite box and discretization:     -0.643280 (  -0.04500%)
MG Correction to account for finite box:                  0.460199
MG Remaining discrepancy, due to discretization:         -0.183081 (  -0.01281%)
     Trial step:       0.478429929671
             Q1:  -11532.754098341917
 Quadratic coef:       0.004977255679
 Linear coef   :      -0.014408031564
           Qmin:  -11532.755094565715
Quadratic minimum step length (  0.692473319820) accepted
    Initial Ne1:    7192.00093502
      Final Ne1:    7192.00000000

=================== Penalty functional idempotency correction ==================
 RMS occupancy error at iteration   1:  0.000038 (step -0.4998 Ne1=   7192.0000)
            Final RMS occupancy error   :  0.000000 (Ne1=   7192.0000)
               Final occupancy bounds   : [ -0.0000,  1.0000]
================================================================================

    6        -1.153274466757E+04     2.6645E-05     2.4100E-05    -2.5050E-02
MG BCs: +ve charge blocks (gridpoints):     30849 (   17320983).
MG BCs: -ve charge blocks (gridpoints):      8303 (    1089510).
MG BCs:     Elided blocks (gridpoints):    173420 (  180767388).
MG BCs: Computational effort saved:  99.9803%.
MG BCs: Charge after coarse-graining:           -9.0009466.
MG DL_MG: Calling solver with defect correction order = 8
MG DL_MG: Solver finished
MG Hartree energy from (\int phi*rho dr):              1429.111959
MG Hartree energy from (\int eps (grad phi)^2 dr):     1428.468682
MG Discrepancy due to finite box and discretization:     -0.643277 (  -0.04501%)
MG Correction to account for finite box:                  0.460200
MG Remaining discrepancy, due to discretization:         -0.183077 (  -0.01281%)
      ideal mu1:      -0.777032124705
             Q0:  -11532.755102979136
             G0:      -0.015329873859
   RMS gradient:       0.000019033646
MG BCs: +ve charge blocks (gridpoints):     30850 (   17321429).
MG BCs: -ve charge blocks (gridpoints):      8302 (    1089287).
MG BCs:     Elided blocks (gridpoints):    173418 (  180767165).
MG BCs: Computational effort saved:  99.9803%.
MG BCs: Charge after coarse-graining:           -9.0009467.
MG DL_MG: Calling solver with defect correction order = 8
MG DL_MG: Solver finished
MG Hartree energy from (\int phi*rho dr):              1429.718269
MG Hartree energy from (\int eps (grad phi)^2 dr):     1429.075014
MG Discrepancy due to finite box and discretization:     -0.643255 (  -0.04499%)
MG Correction to account for finite box:                  0.460197
MG Remaining discrepancy, due to discretization:         -0.183058 (  -0.01280%)
     Trial step:       0.575586623976
             Q1:  -11532.759094081703
 Quadratic coef:       0.004832567774
 Linear coef   :      -0.008823670341
           Qmin:  -11532.759130711487
Quadratic minimum step length (  0.525474950328) accepted
    Initial Ne1:    7192.00015868
      Final Ne1:    7192.00000000

=================== Penalty functional idempotency correction ==================
 RMS occupancy error at iteration   1:  0.000002 (step -0.5000 Ne1=   7192.0000)
            Final RMS occupancy error   :  0.000000 (Ne1=   7192.0000)
               Final occupancy bounds   : [  0.0000,  1.0000]
================================================================================

    7        -1.153275510298E+04     1.9034E-05     1.7215E-05    -1.0435E-02
MG BCs: +ve charge blocks (gridpoints):     30851 (   17321387).
MG BCs: -ve charge blocks (gridpoints):      8301 (    1089311).
MG BCs:     Elided blocks (gridpoints):    173418 (  180767183).
MG BCs: Computational effort saved:  99.9803%.
MG BCs: Charge after coarse-graining:           -9.0009467.
MG DL_MG: Calling solver with defect correction order = 8
MG DL_MG: Solver finished
MG Hartree energy from (\int phi*rho dr):              1429.665409
MG Hartree energy from (\int eps (grad phi)^2 dr):     1429.022152
MG Discrepancy due to finite box and discretization:     -0.643256 (  -0.04499%)
MG Correction to account for finite box:                  0.460197
MG Remaining discrepancy, due to discretization:         -0.183059 (  -0.01280%)
      ideal mu1:      -0.777369353617
             Q0:  -11532.759130806895
             G0:      -0.009041538474
   RMS gradient:       0.000014617947
MG BCs: +ve charge blocks (gridpoints):     30851 (   17321361).
MG BCs: -ve charge blocks (gridpoints):      8302 (    1089288).
MG BCs:     Elided blocks (gridpoints):    173417 (  180767232).
MG BCs: Computational effort saved:  99.9803%.
MG BCs: Charge after coarse-graining:           -9.0009468.
MG DL_MG: Calling solver with defect correction order = 8
MG DL_MG: Solver finished
MG Hartree energy from (\int phi*rho dr):              1429.708053
MG Hartree energy from (\int eps (grad phi)^2 dr):     1429.064830
MG Discrepancy due to finite box and discretization:     -0.643223 (  -0.04499%)
MG Correction to account for finite box:                  0.460194
MG Remaining discrepancy, due to discretization:         -0.183029 (  -0.01280%)
     Trial step:       0.549960319153
             Q1:  -11532.762791942921
 Quadratic coef:       0.001311351358
 Linear coef   :      -0.004972487385
           Qmin:  -11532.763844576139
Quadratic minimum step length (  1.042691850970) accepted
    Initial Ne1:    7192.00018461
      Final Ne1:    7192.00000000

=================== Penalty functional idempotency correction ==================
 RMS occupancy error at iteration   1:  0.000024 (step -0.4993 Ne1=   7192.0000)
            Final RMS occupancy error   :  0.000000 (Ne1=   7192.0000)
               Final occupancy bounds   : [ -0.0000,  1.0000]
================================================================================

    8        -1.153275913081E+04     1.4618E-05     1.3222E-05    -4.0278E-03
MG BCs: +ve charge blocks (gridpoints):     30850 (   17321426).
MG BCs: -ve charge blocks (gridpoints):      8302 (    1089285).
MG BCs:     Elided blocks (gridpoints):    173418 (  180767170).
MG BCs: Computational effort saved:  99.9803%.
MG BCs: Charge after coarse-graining:           -9.0009468.
MG DL_MG: Calling solver with defect correction order = 8
MG DL_MG: Solver finished
MG Hartree energy from (\int phi*rho dr):              1429.744651
MG Hartree energy from (\int eps (grad phi)^2 dr):     1429.101458
MG Discrepancy due to finite box and discretization:     -0.643192 (  -0.04499%)
MG Correction to account for finite box:                  0.460191
MG Remaining discrepancy, due to discretization:         -0.183002 (  -0.01280%)
      ideal mu1:      -0.777431105759
             Q0:  -11532.763832826051
             G0:      -0.013013302890
   RMS gradient:       0.000017579824
MG BCs: +ve charge blocks (gridpoints):     30851 (   17321297).
MG BCs: -ve charge blocks (gridpoints):      8303 (    1089402).
MG BCs:     Elided blocks (gridpoints):    173417 (  180767182).
MG BCs: Computational effort saved:  99.9803%.
MG BCs: Charge after coarse-graining:           -9.0009468.
MG DL_MG: Calling solver with defect correction order = 8
MG DL_MG: Solver finished
MG Hartree energy from (\int phi*rho dr):              1429.422384
MG Hartree energy from (\int eps (grad phi)^2 dr):     1428.779239
MG Discrepancy due to finite box and discretization:     -0.643145 (  -0.04499%)
MG Correction to account for finite box:                  0.460189
MG Remaining discrepancy, due to discretization:         -0.182955 (  -0.01280%)
     Trial step:       0.757257646470
             Q1:  -11532.769936330966
 Quadratic coef:       0.003750918204
 Linear coef   :      -0.009854423119
           Qmin:  -11532.770305218259
Quadratic minimum step length (  0.994734736022) accepted
    Initial Ne1:    7192.00048156
      Final Ne1:    7192.00000000

=================== Penalty functional idempotency correction ==================
 RMS occupancy error at iteration   1:  0.000132 (step -0.4960 Ne1=   7192.0000)
 RMS occupancy error at iteration   2:  0.000000 (step -0.5000 Ne1=   7192.0000)
            Final RMS occupancy error   :  0.000000 (Ne1=   7192.0000)
               Final occupancy bounds   : [  0.0000,  1.0000]
================================================================================

    9        -1.153276383283E+04     1.7580E-05     1.5901E-05    -4.7020E-03
MG BCs: +ve charge blocks (gridpoints):     30851 (   17321270).
MG BCs: -ve charge blocks (gridpoints):      8302 (    1089433).
MG BCs:     Elided blocks (gridpoints):    173417 (  180767178).
MG BCs: Computational effort saved:  99.9803%.
MG BCs: Charge after coarse-graining:           -9.0009467.
MG DL_MG: Calling solver with defect correction order = 8
MG DL_MG: Solver finished
MG Hartree energy from (\int phi*rho dr):              1429.318591
MG Hartree energy from (\int eps (grad phi)^2 dr):     1428.675462
MG Discrepancy due to finite box and discretization:     -0.643129 (  -0.04500%)
MG Correction to account for finite box:                  0.460189
MG Remaining discrepancy, due to discretization:         -0.182940 (  -0.01280%)
      ideal mu1:      -0.777122982275
   10        -1.153277026401E+04     1.9406E-05     1.7552E-05    -6.4312E-03
Finished density kernel iterations (  10)

Writing density kernel to file "host_32021.vacuum_dkn" ... done


>>> Density kernel optimised for the current NGWF basis:
     ~~~~~~~~~~~~~~~~~~~~~~~~~~~~~~~~~~~~~~~~~~~~~~~~~~~~~~~~~~~
     Total energy                =  -1.15327702640125E+04  Eh
     Estimated bandgap           =  -1.9972E-01  Eh
     RMS occupancy error         =   6.8037E-12
     [H,K] commutator            =   1.7552E-05
     Occupancy bounds            = [  0.000:  1.000]
     ~~~~~~~~~~~~~~~~~~~~~~~~~~~~~~~~~~~~~~~~~~~~~~~~~~~~~~~~~~~




################################################################################
########################### NGWF CG iteration  001 #############################
################################################################################
****** Reciprocal space K.E. preconditioning with k_zero =  3.5000 a0^-1 *******

>>> Checking for convergence of NGWFs:   NOT CONVERGED
  ========================================================================
         NGWF RMS gradient =  1.6025E-03 >  2.0000E-06  | above tolerance
  ========================================================================

>>> Improving NGWFs using line search:
============ Calculation of NGWF S^-1 using Hotelling algorithm ================ 
         Iteration  |  Frobenius norm and Maximum abs value    (of I-S*S_n^-1)   
               1       0.19894975E+00     0.55961814E-02
               2       0.92823336E-03     0.49398093E-04
               3       0.34940545E-07     0.38401471E-08
               4       0.12495357E-12     0.53290705E-14
================================================================================
MG BCs: +ve charge blocks (gridpoints):     30386 (   17272226).
MG BCs: -ve charge blocks (gridpoints):      8299 (    1089056).
MG BCs:     Elided blocks (gridpoints):    173886 (  180816599).
MG BCs: Computational effort saved:  99.9806%.
MG BCs: Charge after coarse-graining:           -9.0009504.
MG DL_MG: Calling solver with defect correction order = 8
MG DL_MG: Solver finished
MG Hartree energy from (\int phi*rho dr):              1397.466101
MG Hartree energy from (\int eps (grad phi)^2 dr):     1396.823800
MG Discrepancy due to finite box and discretization:     -0.642301 (  -0.04596%)
MG Correction to account for finite box:                  0.460167
MG Remaining discrepancy, due to discretization:         -0.182134 (  -0.01303%)
============ Calculation of NGWF S^-1 using Hotelling algorithm ================ 
         Iteration  |  Frobenius norm and Maximum abs value    (of I-S*S_n^-1)   
               1       0.18435356E+01     0.45249108E-01
               2       0.70969695E-01     0.29124944E-02
               3       0.14470486E-03     0.13539188E-04
               4       0.12045378E-08     0.29986491E-09
               5       0.10918272E-12     0.51070259E-14
================================================================================
------------------------------- NGWF line search -------------------------------
RMS gradient                =       0.00160250916725
Trial step length           =               0.122474
Gradient along search dir.  =       -277.77717235746
Functional at step 0        =  -11532.77026401250623
Functional at step 1        =  -11564.17390830093063
Functional predicted        =  -11643.33718733532442
Selected quadratic step     =               0.796084
--------------------------- NGWF line search finished --------------------------
                                               
Writing NGWFs to file "host_32021.vacuum_tightbox_ngwfs"....  done

>>> Optimising kernel for current NGWFs:
   Initial electron number for spin 1:    7226.56223990
     Final electron number for spin 1:    7192.00000000

=================== Penalty functional idempotency correction ==================
 RMS occupancy error at iteration   1:  0.004303 (step -0.4858 Ne1=   7192.0000)
 RMS occupancy error at iteration   2:  0.000072 (step -0.5003 Ne1=   7192.0000)
            Final RMS occupancy error   :  0.000000 (Ne1=   7192.0000)
               Final occupancy bounds   : [  0.0000,  1.0000]
================================================================================

................................................................................
<<<<<<<<<<<<<< LNV (Original version) density kernel optimisation >>>>>>>>>>>>>>
~~~~~~~~~~~~~~~~~~~~~~~~~~~~~~~~~~~~~~~~~~~~~~~~~~~~~~~~~~~~~~~~~~~~~~~~~~~~~~~~
   iter  |      energy (Eh)       | rms gradient |  commutator  |   dE (Eh)
MG BCs: +ve charge blocks (gridpoints):     24657 (   16990039).
MG BCs: -ve charge blocks (gridpoints):      8428 (    1073202).
MG BCs:     Elided blocks (gridpoints):    179631 (  181114640).
MG BCs: Computational effort saved:  99.9834%.
MG BCs: Charge after coarse-graining:           -9.0006655.
MG DL_MG: Calling solver with defect correction order = 8
MG DL_MG: Solver finished
MG Hartree energy from (\int phi*rho dr):              1244.280923
MG Hartree energy from (\int eps (grad phi)^2 dr):     1243.638454
MG Discrepancy due to finite box and discretization:     -0.642469 (  -0.05163%)
MG Correction to account for finite box:                  0.460071
MG Remaining discrepancy, due to discretization:         -0.182398 (  -0.01466%)
      ideal mu1:      -0.716644887765
             Q0:  -11642.548929370125
             G0:      -9.712433321920
   RMS gradient:       0.000479089579
MG BCs: +ve charge blocks (gridpoints):     24723 (   17008630).
MG BCs: -ve charge blocks (gridpoints):      8406 (    1068859).
MG BCs:     Elided blocks (gridpoints):    179565 (  181100392).
MG BCs: Computational effort saved:  99.9834%.
MG BCs: Charge after coarse-graining:           -9.0006600.
MG DL_MG: Calling solver with defect correction order = 8
MG DL_MG: Solver finished
MG Hartree energy from (\int phi*rho dr):              1263.766930
MG Hartree energy from (\int eps (grad phi)^2 dr):     1263.117491
MG Discrepancy due to finite box and discretization:     -0.649439 (  -0.05139%)
MG Correction to account for finite box:                  0.459918
MG Remaining discrepancy, due to discretization:         -0.189521 (  -0.01500%)
     Trial step:       0.867911565231
             Q1:  -11639.885946965544
 Quadratic coef:      11.092515611213
 Linear coef   :      -8.429533206633
           Qmin:  -11644.150392748052
Quadratic minimum step length (  0.329775932528) accepted
    Initial Ne1:    7191.99957430
      Final Ne1:    7192.00000000

=================== Penalty functional idempotency correction ==================
 RMS occupancy error at iteration   1:  0.000352 (step -0.4986 Ne1=   7192.0000)
 RMS occupancy error at iteration   2:  0.000000 (step -0.5000 Ne1=   7192.0000)
            Final RMS occupancy error   :  0.000000 (Ne1=   7192.0000)
               Final occupancy bounds   : [  0.0000,  1.0000]
================================================================================

    1        -1.164254892937E+04     4.7909E-04     4.3333E-04
MG BCs: +ve charge blocks (gridpoints):     24683 (   16996975).
MG BCs: -ve charge blocks (gridpoints):      8417 (    1071707).
MG BCs:     Elided blocks (gridpoints):    179605 (  181109199).
MG BCs: Computational effort saved:  99.9834%.
MG BCs: Charge after coarse-graining:           -9.0006635.
MG DL_MG: Calling solver with defect correction order = 8
MG DL_MG: Solver finished
MG Hartree energy from (\int phi*rho dr):              1250.395226
MG Hartree energy from (\int eps (grad phi)^2 dr):     1249.750230
MG Discrepancy due to finite box and discretization:     -0.644996 (  -0.05158%)
MG Correction to account for finite box:                  0.459997
MG Remaining discrepancy, due to discretization:         -0.184999 (  -0.01480%)
      ideal mu1:      -0.723439099282
             Q0:  -11644.115596049582
             G0:      -0.973951719643
   RMS gradient:       0.000152869600
MG BCs: +ve charge blocks (gridpoints):     24688 (   16996789).
MG BCs: -ve charge blocks (gridpoints):      8417 (    1072610).
MG BCs:     Elided blocks (gridpoints):    179600 (  181108482).
MG BCs: Computational effort saved:  99.9834%.
MG BCs: Charge after coarse-graining:           -9.0006633.
MG DL_MG: Calling solver with defect correction order = 8
MG DL_MG: Solver finished
MG Hartree energy from (\int phi*rho dr):              1251.617400
MG Hartree energy from (\int eps (grad phi)^2 dr):     1250.972001
MG Discrepancy due to finite box and discretization:     -0.645399 (  -0.05157%)
MG Correction to account for finite box:                  0.460005
MG Remaining discrepancy, due to discretization:         -0.185394 (  -0.01481%)
     Trial step:       0.534991911879
             Q1:  -11644.307798948837
 Quadratic coef:       0.328853393314
 Linear coef   :      -0.521056292570
           Qmin:  -11644.321994756077
Quadratic minimum step length (  0.423837655056) accepted
    Initial Ne1:    7191.99994428
      Final Ne1:    7192.00000000

=================== Penalty functional idempotency correction ==================
 RMS occupancy error at iteration   1:  0.000141 (step -0.4994 Ne1=   7192.0000)
            Final RMS occupancy error   :  0.000000 (Ne1=   7192.0000)
               Final occupancy bounds   : [ -0.0000,  1.0000]
================================================================================

    2        -1.164411559605E+04     1.5287E-04     1.3827E-04    -1.5667E+00
MG BCs: +ve charge blocks (gridpoints):     24689 (   16996854).
MG BCs: -ve charge blocks (gridpoints):      8418 (    1072421).
MG BCs:     Elided blocks (gridpoints):    179599 (  181108606).
MG BCs: Computational effort saved:  99.9834%.
MG BCs: Charge after coarse-graining:           -9.0006633.
MG DL_MG: Calling solver with defect correction order = 8
MG DL_MG: Solver finished
MG Hartree energy from (\int phi*rho dr):              1251.363100
MG Hartree energy from (\int eps (grad phi)^2 dr):     1250.717787
MG Discrepancy due to finite box and discretization:     -0.645312 (  -0.05157%)
MG Correction to account for finite box:                  0.460003
MG Remaining discrepancy, due to discretization:         -0.185309 (  -0.01481%)
      ideal mu1:      -0.724424985763
             Q0:  -11644.322463942226
             G0:      -0.144380551298
   RMS gradient:       0.000058346622
MG BCs: +ve charge blocks (gridpoints):     24688 (   16996223).
MG BCs: -ve charge blocks (gridpoints):      8421 (    1072842).
MG BCs:     Elided blocks (gridpoints):    179600 (  181108816).
MG BCs: Computational effort saved:  99.9834%.
MG BCs: Charge after coarse-graining:           -9.0006633.
MG DL_MG: Calling solver with defect correction order = 8
MG DL_MG: Solver finished
MG Hartree energy from (\int phi*rho dr):              1250.883848
MG Hartree energy from (\int eps (grad phi)^2 dr):     1250.238569
MG Discrepancy due to finite box and discretization:     -0.645280 (  -0.05159%)
MG Correction to account for finite box:                  0.459999
MG Remaining discrepancy, due to discretization:         -0.185280 (  -0.01481%)
     Trial step:       0.476182441302
             Q1:  -11644.366458635079
 Quadratic coef:       0.024756790541
 Linear coef   :      -0.068751483394
           Qmin:  -11644.370195962063
Quadratic minimum step length (  0.661197362228) accepted
    Initial Ne1:    7192.00059383
      Final Ne1:    7192.00000000

=================== Penalty functional idempotency correction ==================
 RMS occupancy error at iteration   1:  0.000061 (step -0.4998 Ne1=   7192.0000)
            Final RMS occupancy error   :  0.000000 (Ne1=   7192.0000)
               Final occupancy bounds   : [ -0.0000,  1.0000]
================================================================================

    3        -1.164432246394E+04     5.8347E-05     5.2773E-05    -2.0687E-01
MG BCs: +ve charge blocks (gridpoints):     24686 (   16996029).
MG BCs: -ve charge blocks (gridpoints):      8422 (    1072946).
MG BCs:     Elided blocks (gridpoints):    179602 (  181108906).
MG BCs: Computational effort saved:  99.9834%.
MG BCs: Charge after coarse-graining:           -9.0006633.
MG DL_MG: Calling solver with defect correction order = 8
MG DL_MG: Solver finished
MG Hartree energy from (\int phi*rho dr):              1250.697707
MG Hartree energy from (\int eps (grad phi)^2 dr):     1250.052440
MG Discrepancy due to finite box and discretization:     -0.645267 (  -0.05159%)
MG Correction to account for finite box:                  0.459998
MG Remaining discrepancy, due to discretization:         -0.185270 (  -0.01481%)
      ideal mu1:      -0.723540553842
             Q0:  -11644.370282026124
             G0:      -0.034386060719
   RMS gradient:       0.000028465616
MG BCs: +ve charge blocks (gridpoints):     24686 (   16995849).
MG BCs: -ve charge blocks (gridpoints):      8423 (    1073001).
MG BCs:     Elided blocks (gridpoints):    179602 (  181109031).
MG BCs: Computational effort saved:  99.9834%.
MG BCs: Charge after coarse-graining:           -9.0006634.
MG DL_MG: Calling solver with defect correction order = 8
MG DL_MG: Solver finished
MG Hartree energy from (\int phi*rho dr):              1250.711121
MG Hartree energy from (\int eps (grad phi)^2 dr):     1250.065962
MG Discrepancy due to finite box and discretization:     -0.645159 (  -0.05158%)
MG Correction to account for finite box:                  0.459997
MG Remaining discrepancy, due to discretization:         -0.185162 (  -0.01480%)
     Trial step:       0.561115473079
             Q1:  -11644.378904703888
 Quadratic coef:       0.010671872964
 Linear coef   :      -0.019294550728
           Qmin:  -11644.379003074648
Quadratic minimum step length (  0.507243245682) accepted
    Initial Ne1:    7192.00021760
      Final Ne1:    7192.00000000

=================== Penalty functional idempotency correction ==================
 RMS occupancy error at iteration   1:  0.000018 (step -0.4999 Ne1=   7192.0000)
            Final RMS occupancy error   :  0.000000 (Ne1=   7192.0000)
               Final occupancy bounds   : [ -0.0000,  1.0000]
================================================================================

    4        -1.164437028203E+04     2.8466E-05     2.5747E-05    -4.7818E-02
MG BCs: +ve charge blocks (gridpoints):     24686 (   16995876).
MG BCs: -ve charge blocks (gridpoints):      8423 (    1072994).
MG BCs:     Elided blocks (gridpoints):    179602 (  181109011).
MG BCs: Computational effort saved:  99.9834%.
MG BCs: Charge after coarse-graining:           -9.0006634.
MG DL_MG: Calling solver with defect correction order = 8
MG DL_MG: Solver finished
MG Hartree energy from (\int phi*rho dr):              1250.709675
MG Hartree energy from (\int eps (grad phi)^2 dr):     1250.064506
MG Discrepancy due to finite box and discretization:     -0.645169 (  -0.05158%)
MG Correction to account for finite box:                  0.459997
MG Remaining discrepancy, due to discretization:         -0.185172 (  -0.01481%)
      ideal mu1:      -0.723490077766
             Q0:  -11644.379007747048
             G0:      -0.011436615881
   RMS gradient:       0.000016436912
MG BCs: +ve charge blocks (gridpoints):     24688 (   16996370).
MG BCs: -ve charge blocks (gridpoints):      8421 (    1072802).
MG BCs:     Elided blocks (gridpoints):    179600 (  181108709).
MG BCs: Computational effort saved:  99.9834%.
MG BCs: Charge after coarse-graining:           -9.0006633.
MG DL_MG: Calling solver with defect correction order = 8
MG DL_MG: Solver finished
MG Hartree energy from (\int phi*rho dr):              1251.111192
MG Hartree energy from (\int eps (grad phi)^2 dr):     1250.466063
MG Discrepancy due to finite box and discretization:     -0.645129 (  -0.05156%)
MG Correction to account for finite box:                  0.459990
MG Remaining discrepancy, due to discretization:         -0.185139 (  -0.01480%)
     Trial step:       0.533499797345
             Q1:  -11644.382217456587
 Quadratic coef:       0.002891722716
 Linear coef   :      -0.006101432255
           Qmin:  -11644.382226198402
Quadratic minimum step length (  0.562832814843) accepted
    Initial Ne1:    7192.00009247
      Final Ne1:    7192.00000000

=================== Penalty functional idempotency correction ==================
 RMS occupancy error at iteration   1:  0.000009 (step -0.5000 Ne1=   7192.0000)
            Final RMS occupancy error   :  0.000000 (Ne1=   7192.0000)
               Final occupancy bounds   : [ -0.0000,  1.0000]
================================================================================

    5        -1.164437900775E+04     1.6437E-05     1.4867E-05    -8.7257E-03
MG BCs: +ve charge blocks (gridpoints):     24688 (   16996397).
MG BCs: -ve charge blocks (gridpoints):      8421 (    1072793).
MG BCs:     Elided blocks (gridpoints):    179600 (  181108691).
MG BCs: Computational effort saved:  99.9834%.
MG BCs: Charge after coarse-graining:           -9.0006633.
MG DL_MG: Calling solver with defect correction order = 8
MG DL_MG: Solver finished
MG Hartree energy from (\int phi*rho dr):              1251.133292
MG Hartree energy from (\int eps (grad phi)^2 dr):     1250.488166
MG Discrepancy due to finite box and discretization:     -0.645127 (  -0.05156%)
MG Correction to account for finite box:                  0.459990
MG Remaining discrepancy, due to discretization:         -0.185137 (  -0.01480%)
      ideal mu1:      -0.723871453579
             Q0:  -11644.382227165159
             G0:      -0.003706563416
   RMS gradient:       0.000009357522
MG BCs: +ve charge blocks (gridpoints):     24688 (   16996387).
MG BCs: -ve charge blocks (gridpoints):      8421 (    1072841).
MG BCs:     Elided blocks (gridpoints):    179600 (  181108653).
MG BCs: Computational effort saved:  99.9834%.
MG BCs: Charge after coarse-graining:           -9.0006632.
MG DL_MG: Calling solver with defect correction order = 8
MG DL_MG: Solver finished
MG Hartree energy from (\int phi*rho dr):              1251.096494
MG Hartree energy from (\int eps (grad phi)^2 dr):     1250.451375
MG Discrepancy due to finite box and discretization:     -0.645120 (  -0.05156%)
MG Correction to account for finite box:                  0.459987
MG Remaining discrepancy, due to discretization:         -0.185133 (  -0.01480%)
     Trial step:       0.547970065476
             Q1:  -11644.383519862429
 Quadratic coef:       0.000738388528
 Linear coef   :      -0.002031085798
           Qmin:  -11644.383623892412
Quadratic minimum step length (  0.753650805755) accepted
    Initial Ne1:    7192.00004871
      Final Ne1:    7192.00000000

=================== Penalty functional idempotency correction ==================
 RMS occupancy error at iteration   1:  0.000007 (step -0.4999 Ne1=   7192.0000)
            Final RMS occupancy error   :  0.000000 (Ne1=   7192.0000)
               Final occupancy bounds   : [ -0.0000,  1.0000]
================================================================================

    6        -1.164438222717E+04     9.3575E-06     8.4637E-06    -3.2194E-03
MG BCs: +ve charge blocks (gridpoints):     24688 (   16996393).
MG BCs: -ve charge blocks (gridpoints):      8422 (    1072855).
MG BCs:     Elided blocks (gridpoints):    179600 (  181108633).
MG BCs: Computational effort saved:  99.9834%.
MG BCs: Charge after coarse-graining:           -9.0006632.
MG DL_MG: Calling solver with defect correction order = 8
MG DL_MG: Solver finished
MG Hartree energy from (\int phi*rho dr):              1251.082634
MG Hartree energy from (\int eps (grad phi)^2 dr):     1250.437517
MG Discrepancy due to finite box and discretization:     -0.645117 (  -0.05156%)
MG Correction to account for finite box:                  0.459986
MG Remaining discrepancy, due to discretization:         -0.185131 (  -0.01480%)
      ideal mu1:      -0.723822038825
             Q0:  -11644.383623918286
             G0:      -0.002327297307
   RMS gradient:       0.000007416152
MG BCs: +ve charge blocks (gridpoints):     24689 (   16996209).
MG BCs: -ve charge blocks (gridpoints):      8423 (    1072891).
MG BCs:     Elided blocks (gridpoints):    179599 (  181108781).
MG BCs: Computational effort saved:  99.9834%.
MG BCs: Charge after coarse-graining:           -9.0006633.
MG DL_MG: Calling solver with defect correction order = 8
MG DL_MG: Solver finished
MG Hartree energy from (\int phi*rho dr):              1250.977479
MG Hartree energy from (\int eps (grad phi)^2 dr):     1250.332350
MG Discrepancy due to finite box and discretization:     -0.645129 (  -0.05157%)
MG Correction to account for finite box:                  0.459988
MG Remaining discrepancy, due to discretization:         -0.185141 (  -0.01480%)
     Trial step:       0.642633707002
             Q1:  -11644.384148810175
 Quadratic coef:       0.000970707806
 Linear coef   :      -0.001495599695
           Qmin:  -11644.384199997523
Quadratic minimum step length (  0.495062865673) accepted
    Initial Ne1:    7192.00001264
      Final Ne1:    7192.00000000

=================== Penalty functional idempotency correction ==================
 RMS occupancy error at iteration   1:  0.000001 (step -0.5000 Ne1=   7192.0000)
            Final RMS occupancy error   :  0.000000 (Ne1=   7192.0000)
               Final occupancy bounds   : [  0.0000,  1.0000]
================================================================================

    7        -1.164438362392E+04     7.4162E-06     6.7077E-06    -1.3968E-03
MG BCs: +ve charge blocks (gridpoints):     24689 (   16996255).
MG BCs: -ve charge blocks (gridpoints):      8422 (    1072879).
MG BCs:     Elided blocks (gridpoints):    179599 (  181108747).
MG BCs: Computational effort saved:  99.9834%.
MG BCs: Charge after coarse-graining:           -9.0006633.
MG DL_MG: Calling solver with defect correction order = 8
MG DL_MG: Solver finished
MG Hartree energy from (\int phi*rho dr):              1251.001576
MG Hartree energy from (\int eps (grad phi)^2 dr):     1250.356450
MG Discrepancy due to finite box and discretization:     -0.645126 (  -0.05157%)
MG Correction to account for finite box:                  0.459988
MG Remaining discrepancy, due to discretization:         -0.185139 (  -0.01480%)
      ideal mu1:      -0.723719909520
             Q0:  -11644.384199998691
             G0:      -0.001536989985
   RMS gradient:       0.000006026830
MG BCs: +ve charge blocks (gridpoints):     24689 (   16996201).
MG BCs: -ve charge blocks (gridpoints):      8422 (    1072907).
MG BCs:     Elided blocks (gridpoints):    179599 (  181108773).
MG BCs: Computational effort saved:  99.9834%.
MG BCs: Charge after coarse-graining:           -9.0006633.
MG DL_MG: Calling solver with defect correction order = 8
MG DL_MG: Solver finished
MG Hartree energy from (\int phi*rho dr):              1250.952284
MG Hartree energy from (\int eps (grad phi)^2 dr):     1250.307149
MG Discrepancy due to finite box and discretization:     -0.645135 (  -0.05157%)
MG Correction to account for finite box:                  0.459989
MG Remaining discrepancy, due to discretization:         -0.185146 (  -0.01480%)
     Trial step:       0.564042626551
             Q1:  -11644.384892810718
 Quadratic coef:       0.000174115841
 Linear coef   :      -0.000866927868
           Qmin:  -11644.385279113496
Quadratic minimum step length (  1.404192370955) accepted
    Initial Ne1:    7192.00002357
      Final Ne1:    7192.00000000

=================== Penalty functional idempotency correction ==================
 RMS occupancy error at iteration   1:  0.000014 (step -0.4994 Ne1=   7192.0000)
            Final RMS occupancy error   :  0.000000 (Ne1=   7192.0000)
               Final occupancy bounds   : [ -0.0000,  1.0000]
================================================================================

    8        -1.164438420000E+04     6.0268E-06     5.4511E-06    -5.7608E-04
MG BCs: +ve charge blocks (gridpoints):     24687 (   16996173).
MG BCs: -ve charge blocks (gridpoints):      8422 (    1072915).
MG BCs:     Elided blocks (gridpoints):    179601 (  181108793).
MG BCs: Computational effort saved:  99.9834%.
MG BCs: Charge after coarse-graining:           -9.0006633.
MG DL_MG: Calling solver with defect correction order = 8
MG DL_MG: Solver finished
MG Hartree energy from (\int phi*rho dr):              1250.878242
MG Hartree energy from (\int eps (grad phi)^2 dr):     1250.233094
[...]
MG Discrepancy due to finite box and discretization:     -0.190577 (  -0.01577%)
MG Correction to account for finite box:                  0.006299
MG Remaining discrepancy, due to discretization:         -0.184278 (  -0.01525%)
     Trial step:       0.554405346944
             Q1:  -11678.595110263908
 Quadratic coef:       0.000000005721
 Linear coef   :      -0.000000006070
           Qmin:  -11678.595110265169
Quadratic minimum step length (  0.294146840229) accepted
    Initial Ne1:    7192.00000000
      Final Ne1:    7192.00000000

=================== Penalty functional idempotency correction ==================
 RMS occupancy error at iteration   1:  0.000000 (step -0.5000 Ne1=   7192.0000)
            Final RMS occupancy error   :  0.000000 (Ne1=   7192.0000)
               Final occupancy bounds   : [ -0.0000,  1.0000]
================================================================================

    7        -1.167859511026E+04     1.6086E-08     1.4549E-08     0.0000E+00

Reusing previously generated solute cavity.
MG BCs: +ve charge blocks (gridpoints):     29089 (   19203808).
MG BCs: -ve charge blocks (gridpoints):      8407 (    1041989).
MG BCs:     Elided blocks (gridpoints):    175199 (  178932084).
MG BCs: Computational effort saved:  99.9812%.
MG BCs: Charge after coarse-graining:           -9.0009368.
MG DL_MG: Calling solver with defect correction order = 8
MG DL_MG: Solver finished
MG Hartree energy from (\int phi*rho dr):              1208.763074
MG Hartree energy from (\int eps (grad phi)^2 dr):     1208.572496
MG Discrepancy due to finite box and discretization:     -0.190577 (  -0.01577%)
MG Correction to account for finite box:                  0.006299
MG Remaining discrepancy, due to discretization:         -0.184278 (  -0.01525%)
      ideal mu1:      -0.481322352782
             Q0:  -11678.595110264607
             G0:      -0.000000003073
   RMS gradient:       0.000000007473

Reusing previously generated solute cavity.
MG BCs: +ve charge blocks (gridpoints):     29089 (   19203807).
MG BCs: -ve charge blocks (gridpoints):      8407 (    1041988).
MG BCs:     Elided blocks (gridpoints):    175199 (  178932086).
MG BCs: Computational effort saved:  99.9812%.
MG BCs: Charge after coarse-graining:           -9.0009368.
MG DL_MG: Calling solver with defect correction order = 8
MG DL_MG: Solver finished
MG Hartree energy from (\int phi*rho dr):              1208.763103
MG Hartree energy from (\int eps (grad phi)^2 dr):     1208.572526
MG Discrepancy due to finite box and discretization:     -0.190577 (  -0.01577%)
MG Correction to account for finite box:                  0.006299
MG Remaining discrepancy, due to discretization:         -0.184278 (  -0.01525%)
     Trial step:       0.403827414882
             Q1:  -11678.595110264025
 Quadratic coef:       0.000000001823
 Linear coef   :      -0.000000001241
           Qmin:  -11678.595110264818
Quadratic minimum step length (  0.137469387315) accepted
    Initial Ne1:    7192.00000000
      Final Ne1:    7192.00000000

=================== Penalty functional idempotency correction ==================
 RMS occupancy error at iteration   1:  0.000000 (step -0.5000 Ne1=   7192.0000)
            Final RMS occupancy error   :  0.000000 (Ne1=   7192.0000)
               Final occupancy bounds   : [  0.0000,  1.0000]
================================================================================

    8        -1.167859511026E+04     7.4729E-09     6.7590E-09    -1.0477E-09

Reusing previously generated solute cavity.
MG BCs: +ve charge blocks (gridpoints):     29089 (   19203807).
MG BCs: -ve charge blocks (gridpoints):      8407 (    1041989).
MG BCs:     Elided blocks (gridpoints):    175199 (  178932085).
MG BCs: Computational effort saved:  99.9812%.
MG BCs: Charge after coarse-graining:           -9.0009368.
MG DL_MG: Calling solver with defect correction order = 8
MG DL_MG: Solver finished
MG Hartree energy from (\int phi*rho dr):              1208.763083
MG Hartree energy from (\int eps (grad phi)^2 dr):     1208.572506
MG Discrepancy due to finite box and discretization:     -0.190577 (  -0.01577%)
MG Correction to account for finite box:                  0.006299
MG Remaining discrepancy, due to discretization:         -0.184278 (  -0.01525%)
      ideal mu1:      -0.481322357683
             Q0:  -11678.595110264607
             G0:      -0.000000001689
   RMS gradient:       0.000000006318

Reusing previously generated solute cavity.
MG BCs: +ve charge blocks (gridpoints):     29089 (   19203807).
MG BCs: -ve charge blocks (gridpoints):      8407 (    1041989).
MG BCs:     Elided blocks (gridpoints):    175199 (  178932085).
MG BCs: Computational effort saved:  99.9812%.
MG BCs: Charge after coarse-graining:           -9.0009368.
MG DL_MG: Calling solver with defect correction order = 8
MG DL_MG: Solver finished
MG Hartree energy from (\int phi*rho dr):              1208.763088
MG Hartree energy from (\int eps (grad phi)^2 dr):     1208.572511
MG Discrepancy due to finite box and discretization:     -0.190577 (  -0.01577%)
MG Correction to account for finite box:                  0.006299
MG Remaining discrepancy, due to discretization:         -0.184278 (  -0.01525%)
     Trial step:       0.235613894550
             Q1:  -11678.595110264374
 Quadratic coef:       0.000000000631
 Linear coef   :      -0.000000000398
           Qmin:  -11678.595110264669
Quadratic minimum step length (  0.074268278820) accepted
    Initial Ne1:    7192.00000000
      Final Ne1:    7192.00000000

=================== Penalty functional idempotency correction ==================
 RMS occupancy error at iteration   1:  0.000000 (step -0.5000 Ne1=   7192.0000)
            Final RMS occupancy error   :  0.000000 (Ne1=   7192.0000)
               Final occupancy bounds   : [ -0.0000,  1.0000]
================================================================================

    9        -1.167859511026E+04     6.3175E-09     5.7141E-09     0.0000E+00

Reusing previously generated solute cavity.
MG BCs: +ve charge blocks (gridpoints):     29089 (   19203807).
MG BCs: -ve charge blocks (gridpoints):      8407 (    1041989).
MG BCs:     Elided blocks (gridpoints):    175199 (  178932085).
MG BCs: Computational effort saved:  99.9812%.
MG BCs: Charge after coarse-graining:           -9.0009368.
MG DL_MG: Calling solver with defect correction order = 8
MG DL_MG: Solver finished
MG Hartree energy from (\int phi*rho dr):              1208.763085
MG Hartree energy from (\int eps (grad phi)^2 dr):     1208.572508
MG Discrepancy due to finite box and discretization:     -0.190577 (  -0.01577%)
MG Correction to account for finite box:                  0.006299
MG Remaining discrepancy, due to discretization:         -0.184278 (  -0.01525%)
      ideal mu1:      -0.481322356967
   10        -1.167859511026E+04     5.8521E-09     5.2931E-09     1.1642E-10
Finished density kernel iterations (  10)


>>> Density kernel optimised for the current NGWF basis:
     ~~~~~~~~~~~~~~~~~~~~~~~~~~~~~~~~~~~~~~~~~~~~~~~~~~~~~~~~~~~
     Total energy                =  -1.16785951102645E+04  Eh
     Estimated bandgap           =   9.5255E-02  Eh
     RMS occupancy error         =   4.8264E-16
     [H,K] commutator            =   5.2931E-09
     Occupancy bounds            = [ -0.000:  1.000]
     ~~~~~~~~~~~~~~~~~~~~~~~~~~~~~~~~~~~~~~~~~~~~~~~~~~~~~~~~~~~




################################################################################
########################### NGWF CG iteration  005 #############################
################################################################################
****** Reciprocal space K.E. preconditioning with k_zero =  3.5000 a0^-1 *******

>>> Checking for convergence of NGWFs: 
           ........................................................
           |         *** NGWF optimisation converged ***          |
           | RMS NGWF gradient =    0.00000096478020              |
           | Criteria satisfied:                                  |
           | -> RMS NGWF gradient lower than set threshold.       |
           ========================================================

Reusing previously generated solute cavity.
MG BCs: +ve charge blocks (gridpoints):     29089 (   19203807).
MG BCs: -ve charge blocks (gridpoints):      8407 (    1041989).
MG BCs:     Elided blocks (gridpoints):    175199 (  178932085).
MG BCs: Computational effort saved:  99.9812%.
MG BCs: Charge after coarse-graining:           -9.0009368.
MG DL_MG: Calling solver with defect correction order = 8
MG DL_MG: Solver finished
MG Hartree energy from (\int phi*rho dr):              1208.763085
MG Hartree energy from (\int eps (grad phi)^2 dr):     1208.572508
MG Discrepancy due to finite box and discretization:     -0.190577 (  -0.01577%)
MG Correction to account for finite box:                  0.006299
MG Remaining discrepancy, due to discretization:         -0.184278 (  -0.01525%)

================================================================================
           ---------------- ENERGY COMPONENTS (Eh) ----------------
           | Kinetic                    :     8529.36564289315356 |
           | Pseudo. (local,OBC,corr'd) :    -5050.71973247600909 |
           | Pseudopotential (non-local):     1403.27116727734619 |
           | Hartree (molecular)        :     1208.76308505301949 |
           | Exchange-correlation       :    -3357.67497136526117 |
           | Ion-ion (open BC)          :   824100.19811488687992 |
           | Dispersion Correction      :       -3.19536734564273 |
           | Smeared ion non-self corr. :  -824052.10835706524085 |
           | Smeared ion self corr.     :   -14457.16956389741972 |
           | Solvent cavitation energy  :        2.40103806695664 |
           | Solute-solvent dis-rep en. :       -1.72616629228681 |
           | Total                      :   -11678.59511026449945 |
           --------------------------------------------------------
           ------ LOCAL ENERGY COMPONENTS FROM MATRIX TRACES ------
           | Pseudopotential (local)    :    -5050.71973247600818 |
           | Hartree                    :    -1991.09792818418464 |
           --------------------------------------------------------
           Integrated density           :     7191.99999999895954
           Integrated density tr(KS)    :     7191.99999999999909
================================================================================


                        <<<<< CALCULATION SUMMARY >>>>>                         
|ITER|    RMS GRADIENT   |     TOTAL ENERGY    |   step   |     Epredicted              
   0     0.00004022217995 -11678.53230788232759   0.619572 -11678.58651905698571        
   1     0.00001042790900 -11678.59443824959453   0.094987 -11678.59499688191318        
   2     0.00000469718039 -11678.59508460620418   0.018015 -11678.59510610311918        
   3     0.00000213867310 -11678.59510916098952   0.003797 -11678.59511010024107        
   4     0.00000096478020 -11678.59511026449036  <-- CG                                 

=================== Finished the calculation in solvent ========================
= Adjusting the following parameters: 
= read_denskern: F
= read_tightbox_ngwfs: F
= maxit_pen: 0 (restored to user-specified value)
= restart read filename prefix: ""
= restart write filename prefix: ""
================================================================================

================================================================================
IS: Calculation in solvent completed (NGWFs converged).      

Individual components of total energy in solvent:     hartree           kcal/mol
- Usual non-electrostatic DFT terms:    -12888.03306709217941    -8087362.676183
- Electrostatic fixed charge energy:      1208.76308505301949      758510.271313
- Apolar cavitation energy:                  2.40103806695664        1506.674102
- Apolar dispersion-repulsion energy:       -1.72616629228681       -1083.185679
 -------------------------------------------------------------------------------
- Total energy in solvent:              -11678.59511026449036    -7328428.916447

Components of total energy in solvent:                hartree           kcal/mol
- Usual non-electrostatic DFT terms:    -12888.03306709217941    -8087362.676183
- Electrostatic energy:                   1208.76308505301949      758510.271313
- Apolar energy terms:                       0.67487177466984         423.488423
 -------------------------------------------------------------------------------
- Total energy in solvent:              -11678.59511026449036    -7328428.916447

Calculation of free energy of solvation:              hartree           kcal/mol
- Total energy in solvent:         (+)  -11678.59511026449036    -7328428.916447
- Total energy in vacuum:          (-)  -11674.70032432326116    -7325984.901422
 -------------------------------------------------------------------------------
- Total free energy of solvation:           -3.89478594122920       -2444.015025

Components of polar term in f.e. of solvation:        hartree           kcal/mol
- Electrostatic:                            -4.79919320487352       -3011.539139
- Change in nonelectrostatic DFT terms:      0.22953548897567         144.035691
 -------------------------------------------------------------------------------
- Polar term in f.e. of solvation:          -4.56965771589785       -2867.503448

Components of free energy of solvation:               hartree           kcal/mol
- Polar term in f.e. of solvation: (+)      -4.56965771589785       -2867.503448
- Apolar (cavitation, dis., rep.): (+)       0.67487177466984         423.488423
 -------------------------------------------------------------------------------
- Total free energy of solvation:           -3.89478594122801       -2444.015025
================================================================================


------------------------------ TIMING INFORMATION ------------------------------
AVERAGE TIME:   35389.728s on     60 node(s)                                    
TOTAL TIME:     35389.728s on     60 node(s)                                    
================= AVERAGE TIMINGS FROM ALL NODES (CUMULATIVE) ==================
|| TAG                                    #calls    cpu time   %total  Gflops ||
|| work_imbalance                       :     1        0.00s   0.000%  ------ ||
|| sparse_set_to_garbage                :   200        0.03s   0.000%  ------ ||
|| parallel_prepare_fd_halos_request    :  2205        0.04s   0.000%  ------ ||
|| ngwfs_initialise_from_radial         :     1        0.10s   0.000%  ------ ||
|| basis_extract_function_from_box      :  4011        0.18s   0.001%  ------ ||
|| parallel_prepare_fd_halos_satisfy    :  2205        0.76s   0.002%  ------ ||
|| parallel_prepare_fd_halos_alloc      :  2205        1.70s   0.005%  ------ ||
|| pseudopotentials_nonlocal_mat        :    34        2.39s   0.007%  ------ ||
|| density_init_guess_real              :     1        3.63s   0.010%  ------ ||
|| restart_kernel_read                  :     1        4.68s   0.013%  ------ ||
|| openbc_locps_radial                  :     1        4.72s   0.013%  ------ ||
|| restart_ngwfs_tightbox_input         :     1        8.35s   0.024%  ------ ||
|| parallel_prepare_fd_halos_comms_imbal:  2205       10.84s   0.031%  ------ ||
|| sparse_init                          :     2       23.05s   0.065%  ------ ||
|| parallel_prepare_fd_halos_clear      :  2205       23.12s   0.065%  ------ ||
|| palser_mano_kernel_optimise          :     1       29.30s   0.083%  ------ ||
|| projectors_func_ovlp_box             :    34       29.91s   0.085%  ------ ||
|| parallel_prepare_fd_halos_comms_wait :  2205       32.20s   0.091%  ------ ||
|| projectors_init_fftbox_recip         :   160       35.84s   0.101%  ------ ||
|| function_ops_brappd_ketppd           :    34       36.38s   0.103%  ------ ||
|| basis_copy_function_to_box           : 65158       46.90s   0.133%  ------ ||
|| ngwf_gradient_coeffs                 :    18       54.20s   0.153%  ------ ||
|| fourier_apply_box_pair               :  5753       59.59s   0.168% 558.927 ||
|| pseudo_make_structure_factor         :     2       63.82s   0.180%  ------ ||
|| parallel_prepare_fd_halos            :  2205       68.67s   0.194%  ------ ||
|| sparse_embed_hotelling_invert_embed  :    34       85.32s   0.241%  ------ ||
|| restart_kernel_write                 :    14       89.28s   0.252%  ------ ||
|| integrals_kinetic                    :    34      166.99s   0.472%  ------ ||
|| finite_difference_derivative         :  2205      167.40s   0.473%  ------ ||
|| projectors_gradient_batch            :   126      167.63s   0.474%  ------ ||
|| sparse_trace                         :  5590      187.69s   0.530%  ------ ||
|| basis_dot_function_with_box          : 9.714M     194.32s   0.549%  ------ ||
|| fourier_apply_cell_backward          :  1471      206.07s   0.582% 101.255 ||
|| fourier_apply_cell_forward           :  1469      266.40s   0.753%  78.219 ||
|| openbc_locps_on_grid                 :     2      269.43s   0.761%  ------ ||
|| kernel_purify                        :   560      329.55s   0.931%  ------ ||
|| basis_add_function_to_box            : 20.47M     471.63s   1.333%  ------ ||
|| lnv_gradient_norm                    :   180      481.85s   1.362%  ------ ||
|| hamiltonian_energy_components        :     4      486.11s   1.374%  ------ ||
|| kernel_fix                           :   180      515.48s   1.457%  ------ ||
|| xc_energy_potential                  :   367      547.52s   1.547%  ------ ||
|| ngwf_gradient_build_batch            :   126      859.01s   2.427%  ------ ||
|| integrals_locpot_mat_els_batch       :  1323      866.17s   2.448%  ------ ||
|| ngwf_gradient_batch                  :   126     1206.23s   3.408%  ------ ||
|| density_batch_row_sums               :  2562     1207.99s   3.413%  ------ ||
|| restart_ngwfs_tightbox_output        :    12     1375.36s   3.886%  ------ ||
|| ngwf_gradient_lnv                    :    18     1380.17s   3.900%  ------ ||
|| cell_grid_deposit_box_real           : 42142     1503.72s   4.249%  ------ ||
|| cell_grid_extract_box_real           : 46240     1715.02s   4.846%  ------ ||
|| sparse_product                       :  7264     1986.04s   5.612%  ------ ||
|| density_fftbox_deposit_to_cell       : 39894     2227.99s   6.296%  ------ ||
|| potential_apply_to_ngwf_batch        :  1323     4026.10s  11.376%  ------ ||
|| density_fftbox_interpolate_multiply  : 39894     4160.52s  11.756%  ------ ||
|| integrals_locpot_dbl_grid            :   189     4910.39s  13.875%  ------ ||
|| fourier_apply_box                    : 136.8k    5086.15s  14.372% 754.937 ||
|| multigrid_prepare_bound_cond         :   367     5200.32s  14.694%  ------ ||
|| density_batch_interp_deposit         :  2562     7393.97s  20.893%  ------ ||
|| dl_mg_solver_calls                   :   367     8774.80s  24.795%  ------ ||
|| density_on_dbl_grid                  :   366     9095.00s  25.700%  ------ ||
|| multigrid_calculate_hartree          :   367    14207.66s  40.146%  ------ ||
|| hamiltonian_lhxc_calculate           :   362    23840.74s  67.366%  ------ ||
|| lnv_denskernel_optimise_cg           :    18    29635.81s  83.741%  ------ ||
|| ngwf_cg_optimise                     :     2    34382.80s  97.155%  ------ ||
|| total_time                           :     1    35389.73s 100.000%  ------ ||
================================================================================
Overhead of generating timer report: 
- 0 ms averaging over threads,
- 15 ms ensuring consistency across MPI ranks,
- 1 ms printing in order.

Job completed: 27-06-2020 02:56 (+0100)

Application 40922948 resources: utime ~7392108s, stime ~245008s, Rss ~3681432, inblocks ~373687402, outblocks ~57041462
