 +---------------------------------------------------------------+
 |                                                               |
 |        ####### #     # ####### ####### ####### ######         |
 |        #     # ##    # #          #    #       #     #        |
 |        #     # # #   # #          #    #       #     #        |
 |        #     # #  #  # #####      #    #####   ######         |
 |        #     # #   # # #          #    #       #              |
 |        #     # #    ## #          #    #       #              |
 |        ####### #     # #######    #    ####### #              |
 |                                                               |
 |        Linear-Scaling Ab Initio Total Energy Program          |
 |                                                               |
 |          Release for academic collaborators of ODG            |
 |                                             Version 5.3.2.6.  |
 |                                                               |
 +---------------------------------------------------------------+
 |                                                               |
 |  Authors:                                                     |
 |  Jacek Dziedzic, Peter D. Haynes, Nicholas D. M. Hine,        |
 |  Arash. A. Mostofi, Mike C. Payne and Chris-Kriton Skylaris   |
 |                                                               |
 |  Contributors:                                                |
 |  J. Aarons, L. Andrinopoulos, P. W. Avraam, R. A. Bell,       |
 |  A. Bhandari, G. A. Bramley, R. J. Charlton, S. J. Clark,     |
 |  R. J. Clements, G. C. Constantinescu, F. Corsetti,           |
 |  N. Corsini, O. Dieguez, S. M. M. Dubois, K. K. B. Duff,      |
 |  J. M. Escartin, A. Greco, H. Helal, Q. O. Hill, L. P. Lee,   |
 |  J.-H. Li, E. B. Linscott, G. Moynihan, D. D. O`Regan,        |
 |  O. K. Okan, M. J. S. Phipps, C. J. Pickard,                  |
 |  J. C. A. Prentice, M. I. J. Probert, L. E. Ratcliff,         |
 |  M. Robinson, A. Ruiz Serrano, J. S. Spencer, E. W. Tait,     |
 |  G. Teobaldi, D. Turban, V. Vitale, K. A. Wilkinson,          |
 |  C. Weber, J. C. Womack, N. Yeung and T. J. Zuehlsdorff       |
 |                                                               |
 |                                   Copyright (c) 2004-2019     |
 |                                                               |
 |  Please cite:                                                 |
 |  "Introducing ONETEP: Linear-scaling density functional       |
 |   simulations on parallel computers".                         |
 |   C.-K. Skylaris, P. D. Haynes, A. A. Mostofi, M. C. Payne.   |
 |   J. Chem. Phys. 122 084119 (2005).                           |
 |                                                               |
 |          in all publications arising from your use of ONETEP. |
 |                                                               |
 +---------------------------------------------------------------+
 |                                                               |
 |   ONETEP is based on developments described in the following  |
 |   publications:                                               |
 |                                                               |
 |  "Nonorthogonal generalized Wannier function pseudopotential  |
 |   plane-wave method".                                         |
 |   C.-K. Skylaris, A. A. Mostofi, P. D. Haynes, O. Dieguez,    |
 |   M. C. Payne.                                                |
 |   Phys. Rev. B 66 035119 (2002).                              |
 |                                                               |
 |  "Preconditioned iterative minimization for linear-scaling    |
 |   electronic structure calculations".                         |
 |   A. A. Mostofi, P. D. Haynes, C.-K. Skylaris, M. C. Payne.   |
 |   J. Chem. Phys. 119(17), pp.8842-8848 (2003).                |
 |                                                               |
 |  "Total-energy calculations on a real space grid with         |
 |   localized functions and a plane-wave basis".                |
 |   A. A. Mostofi, C.-K. Skylaris, P. D. Haynes, M. C. Payne.   |
 |   Comput. Phys. Commun. 147, pp.788-802 (2002).               |
 |                                                               |
 |  "Accurate kinetic energy evaluation in electronic structure  |
 |   calculations with localized functions on real space grids"  |
 |   C.-K. Skylaris, A. A. Mostofi, P. D. Haynes, C. J. Pickard, |
 |   M. C. Payne.                                                |
 |   Comput. Phys. Commun. 140, pp.315-322 (2001).               |
 |                                                               |
 |  "Accurate ionic forces and geometry optimization in linear-  |
 |   scaling density-functional theory with local orbitals"      |
 |   N. D. M. Hine, M. Robinson, P. D. Haynes, C.-K. Skylaris,   |
 |   M. C. Payne, and A. A. Mostofi.                             |
 |   Phys. Rev. B 83 195102 (2011).                              |
 |                                                               |
 +---------------------------------------------------------------+

Job started: 17-06-2020 19:52 (+0100)
 
Reading parameters from file "host_25561.dat" ...... done

If your calculation crashes here, before "Checking processes and threads..."
is displayed, then your stack size is insufficient.
If so, use "ulimit -s unlimited" at runtime.
You can disable this check with "check_stack_size F".

Checking processes and threads...
   Determining the default number of threads...
      No default threads set at compilation time: defaulting to 1.
      OpenMP library call suggests 4 threads.
      Hybrid MPI-OpenMP compilation detected.
      Number of MPI processes > 1.
      OMP_NUM_THREADS environment variable present and
      its value matches the one obtained from the OpenMP library call.
      Using this value as default.
      Default threads: 4
      Default applies to threads_max and threads_num_fftboxes.
      Settings in the input file override this default.
   ... done

   Running with 60 MPI processes.
   There are 6 MPI processes running on the same node as the root process.
   Each MPI process is using: 
               1 threads for simulation cell FFTs.
               1 threads for parallel FFT box operations.
               4 threads for loops over batched FFT box operations.
               4 threads in other parallel regions.
... done

Basic input checks...... done

Reading geometry and species blocks from file "host_25561.dat" ...
  <species_atomic_set> block not found: NGWF initialisation set to SOLVE
IS: Dielectric excluded regions:
    - NONE.
    
  Number of PPD points along a3 set to 1.  This is 
  the default value, it may have been provided also in the input file.
... done
 Writing xyz coordinates to file "host_25561.xyz" ... done


--------------------------------------------------------------------------------
---------------------------------- INPUT FILE ----------------------------------
--------------------------------------------------------------------------------

cutoff_energy       : 800 eV                                                    
xc_functional PBE                                                               
task SINGLEPOINT                                                                
write_xyz true                                                                  
output_detail VERBOSE                                                           
ngwf_threshold_orig : 0.000002                                                  
kernel_cutoff       : 1000                                                      
k_zero              : 3.5                                                       
elec_cg_max 0                                                                   
occ_mix 1.0                                                                     
dispersion 1                                                                    
maxit_ngwf_cg 40                                                                
minit_lnv 10                                                                    
maxit_lnv 10                                                                    
write_denskern F                                                                
write_tightbox_ngwfs F                                                          
charge 9                                                                        
is_implicit_solvent T                                                           
is_auto_solvation T                                                             
is_include_apolar T                                                             
is_smeared_ion_rep T                                                            
is_solvent_surf_tension 4.7624E-5 Ha/bohr**2                                    
is_apolar_scaling_factor 0.281075                                               
is_solvation_beta 1.3                                                           
is_density_threshold 0.00035                                                    
is_bulk_permittivity 78.54                                                      
is_dielectric_model fix_initial                                                 
is_smeared_ion_width 0.8                                                        
mg_defco_fd_order 8                                                             
is_bc_coarseness 10                                                             
is_bc_surface_coarseness 1                                                      
fine_grid_scale 2.0                                                             
%block species                                                                  
N   N   7 4 8.0                                                                 
H   H   1 1 8.0                                                                 
C   C   6 4 8.0                                                                 
S   S  16 9 8.0                                                                 
O   O   8 4 8.0                                                                 
%endblock species                                                               
%block species_pot                                                              
N   N_00.recpot                                                                 
H   H_04.recpot                                                                 
C   C_01.recpot                                                                 
S   S_00.recpot                                                                 
O   O_02.recpot                                                                 
%endblock species_pot                                                           
%block lattice_cart                                                             
140.777   0.000   0.000                                                         
0.000 144.511   0.000                                                           
0.000   0.000   162.462                                                         
%endblock lattice_cart                                                          
%block positions_abs                                                            
     Hash =  -000007320279212845398304
%endblock positions_abs                                                         

--------------------------------------------------------------------------------
-------------------------------- END INPUT FILE --------------------------------
--------------------------------------------------------------------------------


 
 ESDF WARNING(1): "kernelcutoff" (esdf_physical) has no units. Assume "bohr".
 ESDF WARNING(2): "kzero" (esdf_physical) has no units. Assume "1/bohr".
 ESDF WARNING(3
 ): "issmearedionwidth" (esdf_physical) has no units. Assume "bohr".
<<<<<<<<<<<<<<<<<<<<<<<<<<<<<<<<< Full system >>>>>>>>>>>>>>>>>>>>>>>>>>>>>>>>>>
<<<<<<<<<<<<<<<<<<<<<<<<< Pseudopotential information >>>>>>>>>>>>>>>>>>>>>>>>>>
File: N_00.recpot [ 2001 points up to Gmax=  52.9 (1/bohr)]
  Atomic number:  7;  ionic charge:  5.000000
    Shell 1: l = 0; rc = 1.48 bohr
File: H_04.recpot [ 2001 points up to Gmax=  52.9 (1/bohr)]
  Atomic number:  1;  ionic charge:  1.000000
    Local potential
File: C_01.recpot [ 2001 points up to Gmax=  52.9 (1/bohr)]
  Atomic number:  6;  ionic charge:  4.000000
    Shell 1: l = 0; rc = 1.48 bohr
File: S_00.recpot [ 2001 points up to Gmax=  52.9 (1/bohr)]
  Atomic number: 16;  ionic charge:  6.000000
    Shell 1: l = 0; rc = 1.90 bohr
    Shell 2: l = 2; rc = 1.84 bohr
File: O_02.recpot [ 2001 points up to Gmax=  52.9 (1/bohr)]
  Atomic number:  8;  ionic charge:  6.000000
    Shell 1: l = 0; rc = 1.31 bohr
<<<<<<<<<<<<<<<<<<<<<<<<<<<<<<<<<<<<<<<<>>>>>>>>>>>>>>>>>>>>>>>>>>>>>>>>>>>>>>>>

-------------------------- Atom counting information ---------------------------
Symbol    Natoms    Nngwfs    Nprojs
  N        236       944       236
  H       1311      1311         0
  C        810      3240       810
  S          6        54        36
  O        239       956       239
.......   ......    ......    ......
Totals:   2602      6505      1321
--------------------------------------------------------------------------------

=============================== PSINC grid sizes ===============================
                      Simulation cell:  280 x 286 x 320
                              FFT-box:   99 x  99 x  99
                                  PPD:    5 x  11 x   1
Grid space d1=  0.502775000000a0 (KE cutoff=  30.05084Eh = 817.72503eV)
Grid space d2=  0.505283216783a0 (KE cutoff=  29.75324Eh = 809.62684eV)
Grid space d3=  0.507693750000a0 (KE cutoff=  29.47137Eh = 801.95686eV)
================================================================================

********************* Fourier parallelisation information **********************
       Coarse grid (whole simulation cell) dimensions:    280   286   320
          Real-space ('12') slabs/node (min max mean):      5     6     5
         Recip-space ('23') slabs/node (min max mean):      2     3     2
********************************************************************************

********************* Fourier parallelisation information **********************
       Double grid (whole simulation cell) dimensions:    560   572   640
          Real-space ('12') slabs/node (min max mean):     10    11    10
         Recip-space ('23') slabs/node (min max mean):      4     5     4
********************************************************************************
ONETEP fine grid is 560 x 572 x 640 gridpoints, 140.7770 x 144.5110 x 162.4620 bohr.
FD multigrid is     553 x 569 x 633 gridpoints, 139.0173 x 143.7531 x 160.6851 bohr.


Calculating local pseudopotential in open BC on a radial grid ...
Discrepancy between calculated realspace psloc and -Z/x on [5a0,259.028a0]:
max |rel. diff| # avg |rel. diff| #  avg rel. diff #  f # pseudopotential file
 0.000261578119    0.000004844123   0.000000072210   55  'N_00.recpot'
 0.000419583258    0.000017514079  -0.000000069370   55  'H_04.recpot'
 0.000363553651    0.000016734795   0.000000141192   55  'C_01.recpot'
 0.000449990737    0.000019382085   0.000000449342   55  'S_00.recpot'
 0.000706973137    0.000028359832   0.000000146371   55  'O_02.recpot'
... done

Atom SCF Calculation for N  : Z (AE atom) =   7 : Z (PS atom) =   5
Config String:
Orbitals (num,occ):  2     2.00 3.00
Orbitals   (num,l):  2        0    1
Real-space Grid (nr,dr,rmax): 1203    0.0066555740    8.0000000000
Spherical Bessel Basis (nsws,lmax,cutoff):   47    1  176.3951722778
Confining potential (l,width,scale):  0    3.0000000000  100.0000000000
Confining potential (l,width,scale):  1    3.0000000000  100.0000000000
  1         -4.7312375307   -3.4155304497    7.0523828109   -1.9351020946
  2         -9.7309464766   -2.0532547791    8.2966052865   -2.2494486027
  3         -9.6627394379   -2.1124926340    8.2327997121   -2.2369778124
  4         -9.6814993499   -2.1215521045    8.2229805960   -2.2365178421
  5         -9.6843326483   -2.1250939529    8.2191374534   -2.2362718126
  6         -9.6859628709   -2.1267894855    8.2172963573   -2.2362066344
  7         -9.6867347035   -2.1276425665    8.2163697352   -2.2361903369
  8         -9.6870802100   -2.1280764625    8.2158983890   -2.2361891460
  9         -9.6872290423   -2.1282977424    8.2156580222   -2.2361920435
 10         -9.6872901988   -2.1284107021    8.2155353368   -2.2361953393
 11         -9.6873135296   -2.1284684031    8.2154726809   -2.2361979819
 12         -9.6873212476   -2.1284978948    8.2154406648   -2.2361998431
 13         -9.6873229586   -2.1285129774    8.2154242957   -2.2362010676
 14         -9.6873226456   -2.1285206957    8.2154159216   -2.2362018403
 15         -9.6873218534   -2.1285246479    8.2154116349   -2.2362023142
 16         -9.6873212599   -2.1285262679    8.2154098784   -2.2362025420
 17         -9.6873207834   -2.1285272564    8.2154088068   -2.2362026955
 18         -9.6873204210   -2.1285278596    8.2154081529   -2.2362027982
 19         -9.6873201550   -2.1285282280    8.2154077538   -2.2362028667
 20         -9.6873199645   -2.1285284529    8.2154075102   -2.2362029121
 21         -9.6873198305   -2.1285285903    8.2154073614   -2.2362029421
 22         -9.6873197377   -2.1285286742    8.2154072705   -2.2362029618
Atom SCF converged after  22 iterations to a total energy of     -9.68731974

Atom SCF Calculation for H  : Z (AE atom) =   1 : Z (PS atom) =   1
Config String:
Orbitals (num,occ):  1     1.00
Orbitals   (num,l):  1        0
Real-space Grid (nr,dr,rmax): 1203    0.0066555740    8.0000000000
Spherical Bessel Basis (nsws,lmax,cutoff):   47    0  176.3951722778
Confining potential (l,width,scale):  0    3.0000000000  100.0000000000
  1         -0.3194257691   -0.2393854593    0.2820953124   -0.2424203209
  2         -0.3951823392   -0.2377116493    0.2886404059   -0.2475147891
  3         -0.4317044583   -0.2352244387    0.2921333887   -0.2514046172
  4         -0.4470703708   -0.2341892222    0.2934391879   -0.2531009782
  5         -0.4532132900   -0.2338556667    0.2938388426   -0.2537313520
  6         -0.4556579251   -0.2337612552    0.2939448584   -0.2539550462
  7         -0.4566418315   -0.2337377355    0.2939680120   -0.2540342273
  8         -0.4570437922   -0.2337331116    0.2939708287   -0.2540627372
  9         -0.4572102946   -0.2337328328    0.2939698291   -0.2540732650
 10         -0.4572800424   -0.2337332404    0.2939687193   -0.2540772588
 11         -0.4573095100   -0.2337335791    0.2939680317   -0.2540788122
 12         -0.4573220379   -0.2337337762    0.2939676699   -0.2540794294
 13         -0.4573273880   -0.2337338775    0.2939674931   -0.2540796787
 14         -0.4573296803   -0.2337339266    0.2939674099   -0.2540797808
 15         -0.4573306647   -0.2337339495    0.2939673718   -0.2540798230
 16         -0.4573310882   -0.2337339601    0.2939673545   -0.2540798406
 17         -0.4573312706   -0.2337339649    0.2939673467   -0.2540798479
 18         -0.4573313493   -0.2337339670    0.2939673433   -0.2540798510
Atom SCF converged after  18 iterations to a total energy of     -0.45733135

Atom SCF Calculation for C  : Z (AE atom) =   6 : Z (PS atom) =   4
Config String:
Orbitals (num,occ):  2     2.00 2.00
Orbitals   (num,l):  2        0    1
Real-space Grid (nr,dr,rmax): 1203    0.0066555740    8.0000000000
Spherical Bessel Basis (nsws,lmax,cutoff):   47    1  176.3951722778
Confining potential (l,width,scale):  0    3.0000000000  100.0000000000
Confining potential (l,width,scale):  1    3.0000000000  100.0000000000
  1         -5.2976922011   -1.3069684169    4.5135249990   -1.4493313817
  2         -5.3721716256   -1.3429755895    4.4750154450   -1.4361613026
  3         -5.3809959565   -1.3617365618    4.4541655428   -1.4305930207
  4         -5.3918938866   -1.3667928461    4.4484735100   -1.4294652294
  5         -5.3956096428   -1.3688539142    4.4461376126   -1.4290734646
  6         -5.3968271862   -1.3696852393    4.4451910874   -1.4289366866
  7         -5.3972028401   -1.3700178062    4.4448112275   -1.4288900460
  8         -5.3973067903   -1.3701500158    4.4446598370   -1.4288749220
  9         -5.3973286940   -1.3702023868    4.4445997329   -1.4288704293
 10         -5.3973289850   -1.3702230869    4.4445759233   -1.4288693188
 11         -5.3973254264   -1.3702312560    4.4445665049   -1.4288691775
 12         -5.3973224003   -1.3702344755    4.4445627836   -1.4288692549
 13         -5.3973208708   -1.3702354890    4.4445616088   -1.4288693270
 14         -5.3973198783   -1.3702360102    4.4445610034   -1.4288693814
 15         -5.3973192535   -1.3702362780    4.4445606917   -1.4288694190
 16         -5.3973188684   -1.3702364155    4.4445605313   -1.4288694437
 17         -5.3973186349   -1.3702364860    4.4445604489   -1.4288694595
 18         -5.3973184951   -1.3702365221    4.4445604065   -1.4288694693
 19         -5.3973184122   -1.3702365405    4.4445603848   -1.4288694753
Atom SCF converged after  19 iterations to a total energy of     -5.39731841

Atom SCF Calculation for S  : Z (AE atom) =  16 : Z (PS atom) =   6
Config String:
Orbitals (num,occ):  3     2.00 4.00 0.00
Orbitals   (num,l):  3        0    1    2
Real-space Grid (nr,dr,rmax): 1203    0.0066555740    8.0000000000
Spherical Bessel Basis (nsws,lmax,cutoff):   47    2  176.3951722778
Confining potential (l,width,scale):  0    3.0000000000  100.0000000000
Confining potential (l,width,scale):  1    3.0000000000  100.0000000000
Confining potential (l,width,scale):  2    3.0000000000  100.0000000000
  1        -12.4735062396   -1.0328741412   10.1554312477   -2.4512393157
  2         -9.9458301913   -2.4607392455    8.3041325857   -2.0306994528
  3        -10.1450417646   -2.2931184565    8.4831893826   -2.0812538287
  4        -10.1528335592   -2.2733105793    8.5050388867   -2.0896035179
  5        -10.1571940363   -2.2633716629    8.5160794258   -2.0939370707
  6        -10.1594380571   -2.2584938667    8.5215163935   -2.0961289008
  7        -10.1605856507   -2.2561081821    8.5241804044   -2.0972291378
  8        -10.1611799191   -2.2549395235    8.5254868240   -2.0977806248
  9        -10.1614918752   -2.2543658586    8.5261285885   -2.0980571586
 10        -10.1616572884   -2.2540839121    8.5264441898   -2.0981959233
 11        -10.1617455602   -2.2539453058    8.5265994231   -2.0982656006
 12        -10.1617928447   -2.2538772062    8.5266757320   -2.0983006047
 13        -10.1618182292   -2.2538437891    8.5267131983   -2.0983181961
 14        -10.1618318741   -2.2538274201    8.5267315620   -2.0983270391
 15        -10.1618392144   -2.2538194197    8.5267405433   -2.0983314852
 16        -10.1618431651   -2.2538155200    8.5267449245   -2.0983337210
 17        -10.1618452923   -2.2538136252    8.5267470551   -2.0983348455
 18        -10.1618464380   -2.2538127080    8.5267480875   -2.0983354110
 19        -10.1618470552   -2.2538122659    8.5267485856   -2.0983356955
 20        -10.1618473878   -2.2538120540    8.5267488248   -2.0983358386
 21        -10.1618475670   -2.2538119530    8.5267489389   -2.0983359106
 22        -10.1618476637   -2.2538119053    8.5267489929   -2.0983359468
Atom SCF converged after  22 iterations to a total energy of    -10.16184766

Atom SCF Calculation for O  : Z (AE atom) =   8 : Z (PS atom) =   6
Config String:
Orbitals (num,occ):  2     2.00 4.00
Orbitals   (num,l):  2        0    1
Real-space Grid (nr,dr,rmax): 1203    0.0066555740    8.0000000000
Spherical Bessel Basis (nsws,lmax,cutoff):   47    1  176.3951722778
Confining potential (l,width,scale):  0    3.0000000000  100.0000000000
Confining potential (l,width,scale):  1    3.0000000000  100.0000000000
  1         -1.8735052164   -7.5539365035   10.1554312477   -2.4512393157
  2        -16.0318313751   -3.1285771268   13.6395848164   -3.2358799643
  3        -15.9524020423   -3.0762819706   13.6967272503   -3.2536856837
  4        -15.8521515939   -3.0781493909   13.6951909330   -3.2561700440
  5        -15.8357139793   -3.0748501933   13.6988803334   -3.2580493133
  6        -15.8246052853   -3.0740779781   13.6997881576   -3.2588327446
  7        -15.8189019501   -3.0737449687   13.7001869911   -3.2592378801
  8        -15.8159785510   -3.0736026016   13.7003615168   -3.2594475790
  9        -15.8144776168   -3.0735437994   13.7004360379   -3.2595560735
 10        -15.8137058024   -3.0735207882   13.7004667348   -3.2596122456
 11        -15.8133083127   -3.0735125946   13.7004786868   -3.2596413656
 12        -15.8131032938   -3.0735102195   13.7004828997   -3.2596564858
 13        -15.8129973902   -3.0735099286   13.7004840891   -3.2596643505
 14        -15.8129426040   -3.0735102506   13.7004842061   -3.2596684489
 15        -15.8129142203   -3.0735106556   13.7004840157   -3.2596705887
 16        -15.8128994940   -3.0735109855   13.7004837906   -3.2596717080
 17        -15.8128918425   -3.0735112169   13.7004836103   -3.2596722946
 18        -15.8128878614   -3.0735113674   13.7004834848   -3.2596726026
 19        -15.8128857871   -3.0735114608   13.7004834035   -3.2596727646
 20        -15.8128847048   -3.0735115170   13.7004833533   -3.2596728500
 21        -15.8128841394   -3.0735115501   13.7004833231   -3.2596728951
 22        -15.8128838436   -3.0735115693   13.7004833054   -3.2596729190
 23        -15.8128836887   -3.0735115802   13.7004832951   -3.2596729316
 24        -15.8128836074   -3.0735115864   13.7004832893   -3.2596729383
Atom SCF converged after  24 iterations to a total energy of    -15.81288361

========================== Calculation in vacuum ==============================
= Adjusting the following parameters: 
= is_implicit_solvent: F
= is_include_apolar: F
= write_denskern: T
= write_tightbox_ngwfs: T
= restart read filename prefix: ""
= restart write filename prefix: "vacuum_"
===============================================================================

Determining parallel strategy ...
... using space-filling curve
... NGWF load balancing: max    109;  min    108;  average    108
... Projector load balancing: max     25;  min     21;  average     22
... done
Calculating direct Ion-Ion energy ...
Ion-Ion Energy        :    827775.14102750853635
======================= Empirical dispersion information =======================
Model : Elstner
Dispersion Correction Energy: -0.32886124E+01 Hartree
================================================================================
Basis initialisation ...... NGWF spheres initialised
... Projector spheres initialised
... NGWF tight boxes initialised
... Tight-boxes gathered
... NGWF basis size (local,global):    1027044  62015379
... Nonlocal pseudopotential projector initialisation
... done

========================== Sparse matrix information ===========================
                        Overlap matrix filling:   6.79%
                        Density kernel filling: 100.00%
              NGWF-Proj overlap matrix filling:   1.79%
                    Hamiltonian matrix filling:   7.66%
                  NGWF diagonal matrix filling:   0.05%
                             KS matrix filling: 100.00% 
                           KSKS matrix filling: 100.00% 
================================================================================

Sparse matrix initialisation ... done

Generating smeared ion density ... done
Smeared ion self correction:     -14457.169564
Smeared ion non-self correction: -827727.144024
NGWF initialisation ...... done
============ Calculation of NGWF S^-1 using Hotelling algorithm ================ 
         Iteration  |  Frobenius norm and Maximum abs value    (of I-S*S_n^-1)   
               1       0.78542116E+02     0.98313580E+00
               2       0.76735384E+02     0.96668236E+00
               3       0.73794070E+02     0.93493960E+00
               4       0.69585489E+02     0.87570434E+00
               5       0.64313977E+02     0.77429233E+00
               6       0.58363470E+02     0.70569436E+00
               7       0.52347120E+02     0.66887174E+00
               8       0.46785253E+02     0.64691629E+00
               9       0.40780948E+02     0.60734846E+00
              10       0.32631763E+02     0.53694169E+00
              11       0.22130673E+02     0.42696759E+00
              12       0.11460458E+02     0.28704472E+00
              13       0.38570285E+01     0.13213069E+00
              14       0.63230236E+00     0.34021661E-01
              15       0.32055603E-01     0.33966363E-02
              16       0.20979965E-03     0.36832637E-04
              17       0.18940405E-07     0.43682157E-08
              18       0.97672043E-13     0.43298698E-14
================================================================================
Calculating local pseudopotential in open BC on the fine real space grid ...
... done

MG BCs: +ve charge blocks (gridpoints):     20190 (   15848765).
MG BCs: -ve charge blocks (gridpoints):      7974 (    1073849).
MG BCs:     Elided blocks (gridpoints):    184098 (  182255267).
MG BCs: Computational effort saved:  99.9859%.
MG BCs: Charge after coarse-graining:           -9.0002229.
MG DL_MG: Calling solver with defect correction order = 8
MG DL_MG: Solver finished
MG Hartree energy from (\int phi*rho dr):              1462.462835
MG Hartree energy from (\int eps (grad phi)^2 dr):     1461.849806
MG Discrepancy due to finite box and discretization:     -0.613029 (  -0.04192%)
MG Correction to account for finite box:                  0.459230
MG Remaining discrepancy, due to discretization:         -0.153799 (  -0.01052%)
Up spin density kernel initialisation ... 
======= Optimisation of K by Palser-Manolopoulos canonical purification ======== 
         Iteration  |  Band structure energy |    c_n   
               1       -2584.28746939732810    0.5266118
               2       -2759.92651829576289    0.5168428
               3       -2939.75736757186223    0.5152858
               4       -3089.58125514282438    0.5288693
               5       -3181.36668102810472    0.5646467
               6       -3219.58918935158727    0.6082866
               7       -3232.60961901439896    0.6184837
               8       -3238.28733296770133    0.6173440
               9       -3241.01006305857800    0.6357647
              10       -3242.10058873254366    0.6624916
              11       -3242.51925367528020    0.6673953
              12       -3242.71378827674107    0.6437824
              13       -3242.81984694188031    0.5806797
              14       -3242.88141032922840    0.4689422
              15       -3242.90687318547634    0.3912967
              16       -3242.90872277553262    0.4055571
              17       -3242.91003423852089    0.4080948
              18       -3242.91080695109122    0.4324123
              19       -3242.91131423723618    0.4722759
              20       -3242.91165937297137    0.4952684
              21       -3242.91179601750810    0.4998625
              22       -3242.91181302343375    0.4999999
              23       -3242.91181326057949    0.4999999
Termination criterion satisfied: band energy change below threshold.
Final occupancy bounds: [    0.00000000000000:    0.99999999999985]
Closest occupancy to 0.5:     0.99999999999990
================================================================================
... done

Writing density kernel to file "host_25561.vacuum_dkn" ... done

>>> Optimising kernel for current NGWFs:
   Initial electron number for spin 1:    7192.00000000
     Final electron number for spin 1:    7192.00000000

=================== Penalty functional idempotency correction ==================
 RMS occupancy error at iteration   1:  0.000000 (step -0.5000 Ne1=   7192.0000)
            Final RMS occupancy error   :  0.000000 (Ne1=   7192.0000)
               Final occupancy bounds   : [ -0.0000,  1.0000]
================================================================================

................................................................................
<<<<<<<<<<<<<< LNV (Original version) density kernel optimisation >>>>>>>>>>>>>>
~~~~~~~~~~~~~~~~~~~~~~~~~~~~~~~~~~~~~~~~~~~~~~~~~~~~~~~~~~~~~~~~~~~~~~~~~~~~~~~~
   iter  |      energy (Eh)       | rms gradient |  commutator  |   dE (Eh)
MG BCs: +ve charge blocks (gridpoints):     30626 (   16992702).
MG BCs: -ve charge blocks (gridpoints):      8338 (    1106246).
MG BCs:     Elided blocks (gridpoints):    173652 (  181078933).
MG BCs: Computational effort saved:  99.9804%.
MG BCs: Charge after coarse-graining:           -9.0009296.
MG DL_MG: Calling solver with defect correction order = 8
MG DL_MG: Solver finished
MG Hartree energy from (\int phi*rho dr):              1417.643926
MG Hartree energy from (\int eps (grad phi)^2 dr):     1416.975692
MG Discrepancy due to finite box and discretization:     -0.668235 (  -0.04714%)
MG Correction to account for finite box:                  0.471546
MG Remaining discrepancy, due to discretization:         -0.196689 (  -0.01387%)
      ideal mu1:      -0.711835678814
             Q0:  -11506.839236771921
             G0:    -143.774594761537
   RMS gradient:       0.001843290459
MG BCs: +ve charge blocks (gridpoints):     30620 (   17070631).
MG BCs: -ve charge blocks (gridpoints):      8235 (    1086055).
MG BCs:     Elided blocks (gridpoints):    173654 (  181021195).
MG BCs: Computational effort saved:  99.9805%.
MG BCs: Charge after coarse-graining:           -9.0009497.
MG DL_MG: Calling solver with defect correction order = 8
MG DL_MG: Solver finished
MG Hartree energy from (\int phi*rho dr):              1442.894600
MG Hartree energy from (\int eps (grad phi)^2 dr):     1442.242289
MG Discrepancy due to finite box and discretization:     -0.652311 (  -0.04521%)
MG Correction to account for finite box:                  0.471584
MG Remaining discrepancy, due to discretization:         -0.180726 (  -0.01253%)
     Trial step:       0.500000000000
             Q1:  -11518.204568312038
 Quadratic coef:      60.521965840651
 Linear coef   :     -71.887297380769
           Qmin:  -11528.185963753316
Quadratic minimum step length (  0.296947134740) accepted
    Initial Ne1:    7192.00000000
      Final Ne1:    7192.00000000

=================== Penalty functional idempotency correction ==================
 RMS occupancy error at iteration   1:  0.003373 (step -0.4886 Ne1=   7192.0000)
 RMS occupancy error at iteration   2:  0.000027 (step -0.5001 Ne1=   7192.0000)
            Final RMS occupancy error   :  0.000000 (Ne1=   7192.0000)
               Final occupancy bounds   : [  0.0000,  1.0000]
================================================================================

    1        -1.150683923677E+04     1.8433E-03     1.6672E-03
MG BCs: +ve charge blocks (gridpoints):     30627 (   17040624).
MG BCs: -ve charge blocks (gridpoints):      8285 (    1094570).
MG BCs:     Elided blocks (gridpoints):    173651 (  181042687).
MG BCs: Computational effort saved:  99.9805%.
MG BCs: Charge after coarse-graining:           -9.0009414.
MG DL_MG: Calling solver with defect correction order = 8
MG DL_MG: Solver finished
MG Hartree energy from (\int phi*rho dr):              1424.752108
MG Hartree energy from (\int eps (grad phi)^2 dr):     1424.094272
MG Discrepancy due to finite box and discretization:     -0.657835 (  -0.04617%)
MG Correction to account for finite box:                  0.471467
MG Remaining discrepancy, due to discretization:         -0.186368 (  -0.01308%)
      ideal mu1:      -0.752042877262
             Q0:  -11528.575900686323
             G0:     -11.963078500333
   RMS gradient:       0.000528186065
MG BCs: +ve charge blocks (gridpoints):     30626 (   17056654).
MG BCs: -ve charge blocks (gridpoints):      8257 (    1089444).
MG BCs:     Elided blocks (gridpoints):    173650 (  181031783).
MG BCs: Computational effort saved:  99.9805%.
MG BCs: Charge after coarse-graining:           -9.0009451.
MG DL_MG: Calling solver with defect correction order = 8
MG DL_MG: Solver finished
MG Hartree energy from (\int phi*rho dr):              1429.897347
MG Hartree energy from (\int eps (grad phi)^2 dr):     1429.243519
MG Discrepancy due to finite box and discretization:     -0.653828 (  -0.04573%)
MG Correction to account for finite box:                  0.470581
MG Remaining discrepancy, due to discretization:         -0.183248 (  -0.01282%)
     Trial step:       0.385322679543
             Q1:  -11531.377868111827
 Quadratic coef:       1.807678037821
 Linear coef   :      -4.609645463326
           Qmin:  -11531.514592042440
Quadratic minimum step length (  0.491293500421) accepted
    Initial Ne1:    7191.99987803
      Final Ne1:    7192.00000000

=================== Penalty functional idempotency correction ==================
 RMS occupancy error at iteration   1:  0.001786 (step -0.4930 Ne1=   7192.0000)
 RMS occupancy error at iteration   2:  0.000013 (step -0.5002 Ne1=   7192.0000)
            Final RMS occupancy error   :  0.000000 (Ne1=   7192.0000)
               Final occupancy bounds   : [  0.0000,  1.0000]
================================================================================

    2        -1.152857590069E+04     5.2819E-04     4.7773E-04    -2.1737E+01
MG BCs: +ve charge blocks (gridpoints):     30632 (   17061069).
MG BCs: -ve charge blocks (gridpoints):      8249 (    1088115).
MG BCs:     Elided blocks (gridpoints):    173644 (  181028697).
MG BCs: Computational effort saved:  99.9805%.
MG BCs: Charge after coarse-graining:           -9.0009461.
MG DL_MG: Calling solver with defect correction order = 8
MG DL_MG: Solver finished
MG Hartree energy from (\int phi*rho dr):              1431.359640
MG Hartree energy from (\int eps (grad phi)^2 dr):     1430.706838
MG Discrepancy due to finite box and discretization:     -0.652802 (  -0.04561%)
MG Correction to account for finite box:                  0.470351
MG Remaining discrepancy, due to discretization:         -0.182451 (  -0.01275%)
      ideal mu1:      -0.774406569674
             Q0:  -11531.550707711140
             G0:      -1.914541046565
   RMS gradient:       0.000211353467
MG BCs: +ve charge blocks (gridpoints):     30630 (   17060572).
MG BCs: -ve charge blocks (gridpoints):      8264 (    1089135).
MG BCs:     Elided blocks (gridpoints):    173646 (  181028174).
MG BCs: Computational effort saved:  99.9805%.
MG BCs: Charge after coarse-graining:           -9.0009458.
MG DL_MG: Calling solver with defect correction order = 8
MG DL_MG: Solver finished
MG Hartree energy from (\int phi*rho dr):              1429.096218
MG Hartree energy from (\int eps (grad phi)^2 dr):     1428.444036
MG Discrepancy due to finite box and discretization:     -0.652182 (  -0.04564%)
MG Correction to account for finite box:                  0.469917
MG Remaining discrepancy, due to discretization:         -0.182265 (  -0.01275%)
     Trial step:       0.435093700281
             Q1:  -11532.041120923008
 Quadratic coef:       0.342591536421
 Linear coef   :      -0.833004748289
           Qmin:  -11532.057066477268
Quadratic minimum step length (  0.528960992544) accepted
    Initial Ne1:    7191.99989898
      Final Ne1:    7192.00000000

=================== Penalty functional idempotency correction ==================
 RMS occupancy error at iteration   1:  0.000639 (step -0.4969 Ne1=   7192.0000)
 RMS occupancy error at iteration   2:  0.000003 (step -0.5000 Ne1=   7192.0000)
            Final RMS occupancy error   :  0.000000 (Ne1=   7192.0000)
               Final occupancy bounds   : [  0.0000,  1.0000]
================================================================================

    3        -1.153155070771E+04     2.1135E-04     1.9116E-04    -2.9748E+00
MG BCs: +ve charge blocks (gridpoints):     30631 (   17060555).
MG BCs: -ve charge blocks (gridpoints):      8267 (    1089313).
MG BCs:     Elided blocks (gridpoints):    173645 (  181028013).
MG BCs: Computational effort saved:  99.9805%.
MG BCs: Charge after coarse-graining:           -9.0009457.
MG DL_MG: Calling solver with defect correction order = 8
MG DL_MG: Solver finished
MG Hartree energy from (\int phi*rho dr):              1428.617519
MG Hartree energy from (\int eps (grad phi)^2 dr):     1427.965460
MG Discrepancy due to finite box and discretization:     -0.652059 (  -0.04564%)
MG Correction to account for finite box:                  0.469825
MG Remaining discrepancy, due to discretization:         -0.182235 (  -0.01276%)
      ideal mu1:      -0.775363469989
             Q0:  -11532.061776081682
             G0:      -0.492312073478
   RMS gradient:       0.000107315125
MG BCs: +ve charge blocks (gridpoints):     30630 (   17061640).
MG BCs: -ve charge blocks (gridpoints):      8264 (    1089054).
MG BCs:     Elided blocks (gridpoints):    173646 (  181027187).
MG BCs: Computational effort saved:  99.9805%.
MG BCs: Charge after coarse-graining:           -9.0009459.
MG DL_MG: Calling solver with defect correction order = 8
MG DL_MG: Solver finished
MG Hartree energy from (\int phi*rho dr):              1429.958588
MG Hartree energy from (\int eps (grad phi)^2 dr):     1429.306679
MG Discrepancy due to finite box and discretization:     -0.651909 (  -0.04559%)
MG Correction to account for finite box:                  0.469558
MG Remaining discrepancy, due to discretization:         -0.182351 (  -0.01275%)
     Trial step:       0.479737006651
             Q1:  -11532.185840593651
 Quadratic coef:       0.112115808499
 Linear coef   :      -0.236180320468
           Qmin:  -11532.186158950884
Quadratic minimum step length (  0.505300909338) accepted
    Initial Ne1:    7191.99997519
      Final Ne1:    7192.00000000

=================== Penalty functional idempotency correction ==================
 RMS occupancy error at iteration   1:  0.000284 (step -0.4959 Ne1=   7192.0000)
 RMS occupancy error at iteration   2:  0.000003 (step -0.5000 Ne1=   7192.0000)
            Final RMS occupancy error   :  0.000000 (Ne1=   7192.0000)
               Final occupancy bounds   : [  0.0000,  1.0000]
================================================================================

    4        -1.153206177608E+04     1.0732E-04     9.7064E-05    -5.1107E-01
MG BCs: +ve charge blocks (gridpoints):     30630 (   17061696).
MG BCs: -ve charge blocks (gridpoints):      8264 (    1089039).
MG BCs:     Elided blocks (gridpoints):    173646 (  181027146).
MG BCs: Computational effort saved:  99.9805%.
MG BCs: Charge after coarse-graining:           -9.0009459.
MG DL_MG: Calling solver with defect correction order = 8
MG DL_MG: Solver finished
MG Hartree energy from (\int phi*rho dr):              1430.030631
MG Hartree energy from (\int eps (grad phi)^2 dr):     1429.378729
MG Discrepancy due to finite box and discretization:     -0.651902 (  -0.04559%)
MG Correction to account for finite box:                  0.469544
MG Remaining discrepancy, due to discretization:         -0.182358 (  -0.01275%)
      ideal mu1:      -0.775813545536
             Q0:  -11532.186758601223
             G0:      -0.189650062415
   RMS gradient:       0.000066790555
MG BCs: +ve charge blocks (gridpoints):     30629 (   17061754).
MG BCs: -ve charge blocks (gridpoints):      8261 (    1088923).
MG BCs:     Elided blocks (gridpoints):    173647 (  181027204).
MG BCs: Computational effort saved:  99.9805%.
MG BCs: Charge after coarse-graining:           -9.0009459.
MG DL_MG: Calling solver with defect correction order = 8
MG DL_MG: Solver finished
MG Hartree energy from (\int phi*rho dr):              1430.410185
MG Hartree energy from (\int eps (grad phi)^2 dr):     1429.758166
MG Discrepancy due to finite box and discretization:     -0.652019 (  -0.04558%)
MG Correction to account for finite box:                  0.469500
MG Remaining discrepancy, due to discretization:         -0.182519 (  -0.01276%)
     Trial step:       0.492353070168
             Q1:  -11532.248268500553
 Quadratic coef:       0.031864891158
 Linear coef   :      -0.093374790487
           Qmin:  -11532.255163444153
Quadratic minimum step length (  0.721379598393) accepted
    Initial Ne1:    7191.99998625
      Final Ne1:    7192.00000000

=================== Penalty functional idempotency correction ==================
 RMS occupancy error at iteration   1:  0.000489 (step -0.4750 Ne1=   7192.0000)
 RMS occupancy error at iteration   2:  0.000011 (step -0.5001 Ne1=   7192.0000)
            Final RMS occupancy error   :  0.000000 (Ne1=   7192.0000)
               Final occupancy bounds   : [  0.0000,  1.0000]
================================================================================

    5        -1.153218675860E+04     6.6791E-05     6.0411E-05    -1.2498E-01
MG BCs: +ve charge blocks (gridpoints):     30629 (   17061801).
MG BCs: -ve charge blocks (gridpoints):      8260 (    1088886).
MG BCs:     Elided blocks (gridpoints):    173647 (  181027194).
MG BCs: Computational effort saved:  99.9805%.
MG BCs: Charge after coarse-graining:           -9.0009459.
MG DL_MG: Calling solver with defect correction order = 8
MG DL_MG: Solver finished
MG Hartree energy from (\int phi*rho dr):              1430.585158
MG Hartree energy from (\int eps (grad phi)^2 dr):     1429.933084
MG Discrepancy due to finite box and discretization:     -0.652073 (  -0.04558%)
MG Correction to account for finite box:                  0.469478
MG Remaining discrepancy, due to discretization:         -0.182595 (  -0.01276%)
      ideal mu1:      -0.775957920004
             Q0:  -11532.254499203758
             G0:      -0.187003666055
   RMS gradient:       0.000066931068
MG BCs: +ve charge blocks (gridpoints):     30631 (   17061239).
MG BCs: -ve charge blocks (gridpoints):      8263 (    1089267).
MG BCs:     Elided blocks (gridpoints):    173646 (  181027375).
MG BCs: Computational effort saved:  99.9805%.
MG BCs: Charge after coarse-graining:           -9.0009455.
MG DL_MG: Calling solver with defect correction order = 8
MG DL_MG: Solver finished
MG Hartree energy from (\int phi*rho dr):              1429.213120
MG Hartree energy from (\int eps (grad phi)^2 dr):     1428.561092
MG Discrepancy due to finite box and discretization:     -0.652028 (  -0.04562%)
MG Correction to account for finite box:                  0.469443
MG Remaining discrepancy, due to discretization:         -0.182585 (  -0.01278%)
     Trial step:       0.595964311033
             Q1:  -11532.339207709301
 Quadratic coef:       0.026739005458
 Linear coef   :      -0.111447511001
           Qmin:  -11532.370626818602
Quadratic minimum step length (  1.241982227329) accepted
    Initial Ne1:    7191.99990048
      Final Ne1:    7192.00000000

=================== Penalty functional idempotency correction ==================
 RMS occupancy error at iteration   1:  0.004305 (step -0.3268 Ne1=   7192.0000)
 RMS occupancy error at iteration   2:  0.000313 (step -0.4926 Ne1=   7192.0000)
 RMS occupancy error at iteration   3:  0.000008 (step -0.5004 Ne1=   7192.0000)
            Final RMS occupancy error   :  0.000000 (Ne1=   7192.0000)
               Final occupancy bounds   : [  0.0000,  1.0000]
================================================================================

    6        -1.153225449920E+04     6.6931E-05     6.0538E-05    -6.7741E-02
MG BCs: +ve charge blocks (gridpoints):     30634 (   17060565).
MG BCs: -ve charge blocks (gridpoints):      8270 (    1089745).
MG BCs:     Elided blocks (gridpoints):    173643 (  181027571).
MG BCs: Computational effort saved:  99.9805%.
MG BCs: Charge after coarse-graining:           -9.0009452.
MG DL_MG: Calling solver with defect correction order = 8
MG DL_MG: Solver finished
MG Hartree energy from (\int phi*rho dr):              1427.744705
MG Hartree energy from (\int eps (grad phi)^2 dr):     1427.092709
MG Discrepancy due to finite box and discretization:     -0.651996 (  -0.04567%)
MG Correction to account for finite box:                  0.469422
MG Remaining discrepancy, due to discretization:         -0.182575 (  -0.01279%)
      ideal mu1:      -0.775215209743
             Q0:  -11532.346076293965
             G0:      -0.371416171932
   RMS gradient:       0.000093687814
MG BCs: +ve charge blocks (gridpoints):     30635 (   17063097).
MG BCs: -ve charge blocks (gridpoints):      8263 (    1088287).
MG BCs:     Elided blocks (gridpoints):    173641 (  181026497).
MG BCs: Computational effort saved:  99.9805%.
MG BCs: Charge after coarse-graining:           -9.0009463.
MG DL_MG: Calling solver with defect correction order = 8
MG DL_MG: Solver finished
MG Hartree energy from (\int phi*rho dr):              1431.540492
MG Hartree energy from (\int eps (grad phi)^2 dr):     1430.888793
MG Discrepancy due to finite box and discretization:     -0.651700 (  -0.04552%)
MG Correction to account for finite box:                  0.469329
MG Remaining discrepancy, due to discretization:         -0.182371 (  -0.01274%)
     Trial step:       0.860335447616
             Q1:  -11532.441103128484
 Quadratic coef:       0.224515664013
 Linear coef   :      -0.319542498531
           Qmin:  -11532.459773715498
Quadratic minimum step length (  0.612237323652) accepted
    Initial Ne1:    7191.99996396
      Final Ne1:    7192.00000000

=================== Penalty functional idempotency correction ==================
 RMS occupancy error at iteration   1:  0.000167 (step -0.4905 Ne1=   7192.0000)
 RMS occupancy error at iteration   2:  0.000001 (step -0.5000 Ne1=   7192.0000)
            Final RMS occupancy error   :  0.000000 (Ne1=   7192.0000)
               Final occupancy bounds   : [  0.0000,  1.0000]
================================================================================

    7        -1.153234607629E+04     9.3688E-05     8.4738E-05    -9.1577E-02
MG BCs: +ve charge blocks (gridpoints):     30632 (   17062366).
MG BCs: -ve charge blocks (gridpoints):      8265 (    1088711).
MG BCs:     Elided blocks (gridpoints):    173644 (  181026804).
MG BCs: Computational effort saved:  99.9805%.
MG BCs: Charge after coarse-graining:           -9.0009460.
MG DL_MG: Calling solver with defect correction order = 8
MG DL_MG: Solver finished
MG Hartree energy from (\int phi*rho dr):              1430.440690
MG Hartree energy from (\int eps (grad phi)^2 dr):     1429.788908
MG Discrepancy due to finite box and discretization:     -0.651783 (  -0.04557%)
MG Correction to account for finite box:                  0.469354
MG Remaining discrepancy, due to discretization:         -0.182428 (  -0.01275%)
      ideal mu1:      -0.776753774813
             Q0:  -11532.460002575186
             G0:      -0.248850542589
   RMS gradient:       0.000076611569
MG BCs: +ve charge blocks (gridpoints):     30632 (   17062111).
MG BCs: -ve charge blocks (gridpoints):      8261 (    1088788).
MG BCs:     Elided blocks (gridpoints):    173644 (  181026982).
MG BCs: Computational effort saved:  99.9805%.
MG BCs: Charge after coarse-graining:           -9.0009461.
MG DL_MG: Calling solver with defect correction order = 8
MG DL_MG: Solver finished
MG Hartree energy from (\int phi*rho dr):              1430.222824
MG Hartree energy from (\int eps (grad phi)^2 dr):     1429.571018
MG Discrepancy due to finite box and discretization:     -0.651806 (  -0.04557%)
MG Correction to account for finite box:                  0.469558
MG Remaining discrepancy, due to discretization:         -0.182248 (  -0.01274%)
     Trial step:       0.725761305039
             Q1:  -11532.560069294996
 Quadratic coef:       0.080539374740
 Linear coef   :      -0.180606094549
           Qmin:  -11532.561252930971
Quadratic minimum step length (  0.813744303962) accepted
    Initial Ne1:    7191.99996788
      Final Ne1:    7192.00000000

=================== Penalty functional idempotency correction ==================
 RMS occupancy error at iteration   1:  0.001156 (step -0.4392 Ne1=   7192.0000)
 RMS occupancy error at iteration   2:  0.000023 (step -0.4998 Ne1=   7192.0000)
            Final RMS occupancy error   :  0.000000 (Ne1=   7192.0000)
               Final occupancy bounds   : [ -0.0000,  1.0000]
================================================================================

    8        -1.153246000258E+04     7.6612E-05     6.9293E-05    -1.1393E-01
MG BCs: +ve charge blocks (gridpoints):     30632 (   17062111).
MG BCs: -ve charge blocks (gridpoints):      8260 (    1088793).
MG BCs:     Elided blocks (gridpoints):    173644 (  181026977).
MG BCs: Computational effort saved:  99.9805%.
MG BCs: Charge after coarse-graining:           -9.0009461.
MG DL_MG: Calling solver with defect correction order = 8
MG DL_MG: Solver finished
MG Hartree energy from (\int phi*rho dr):              1430.199083
MG Hartree energy from (\int eps (grad phi)^2 dr):     1429.547276
MG Discrepancy due to finite box and discretization:     -0.651807 (  -0.04557%)
MG Correction to account for finite box:                  0.469581
MG Remaining discrepancy, due to discretization:         -0.182226 (  -0.01274%)
      ideal mu1:      -0.776304585489
             Q0:  -11532.560587368556
             G0:      -0.239392486194
   RMS gradient:       0.000075331637
MG BCs: +ve charge blocks (gridpoints):     30629 (   17061015).
MG BCs: -ve charge blocks (gridpoints):      8263 (    1089303).
MG BCs:     Elided blocks (gridpoints):    173647 (  181027563).
MG BCs: Computational effort saved:  99.9805%.
MG BCs: Charge after coarse-graining:           -9.0009459.
MG DL_MG: Calling solver with defect correction order = 8
MG DL_MG: Solver finished
MG Hartree energy from (\int phi*rho dr):              1428.735932
MG Hartree energy from (\int eps (grad phi)^2 dr):     1428.083904
MG Discrepancy due to finite box and discretization:     -0.652027 (  -0.04564%)
MG Correction to account for finite box:                  0.469902
MG Remaining discrepancy, due to discretization:         -0.182125 (  -0.01275%)
     Trial step:       0.768494715669
             Q1:  -11532.636830167146
 Quadratic coef:       0.107729062021
 Linear coef   :      -0.183971860611
           Qmin:  -11532.639130810923
Quadratic minimum step length (  0.656189704331) accepted
    Initial Ne1:    7192.00001622
      Final Ne1:    7192.00000000

=================== Penalty functional idempotency correction ==================
 RMS occupancy error at iteration   1:  0.002648 (step -0.3811 Ne1=   7192.0000)
 RMS occupancy error at iteration   2:  0.000073 (step -0.4993 Ne1=   7192.0000)
 RMS occupancy error at iteration   3:  0.000000 (step -0.5000 Ne1=   7192.0000)
            Final RMS occupancy error   :  0.000000 (Ne1=   7192.0000)
               Final occupancy bounds   : [  0.0000,  1.0000]
================================================================================

    9        -1.153256058737E+04     7.5332E-05     6.8136E-05    -1.0058E-01
MG BCs: +ve charge blocks (gridpoints):     30629 (   17061216).
MG BCs: -ve charge blocks (gridpoints):      8261 (    1089184).
MG BCs:     Elided blocks (gridpoints):    173647 (  181027481).
MG BCs: Computational effort saved:  99.9805%.
MG BCs: Charge after coarse-graining:           -9.0009460.
MG DL_MG: Calling solver with defect correction order = 8
MG DL_MG: Solver finished
MG Hartree energy from (\int phi*rho dr):              1428.949026
MG Hartree energy from (\int eps (grad phi)^2 dr):     1428.297017
MG Discrepancy due to finite box and discretization:     -0.652009 (  -0.04563%)
MG Correction to account for finite box:                  0.469870
MG Remaining discrepancy, due to discretization:         -0.182138 (  -0.01275%)
      ideal mu1:      -0.775287938367
   10        -1.153264299451E+04     6.1491E-05     5.5617E-05    -8.2407E-02
Finished density kernel iterations (  10)

Writing density kernel to file "host_25561.vacuum_dkn" ... done


>>> Density kernel optimised for the current NGWF basis:
     ~~~~~~~~~~~~~~~~~~~~~~~~~~~~~~~~~~~~~~~~~~~~~~~~~~~~~~~~~~~
     Total energy                =  -1.15326429945078E+04  Eh
     Estimated bandgap           =  -4.6509E-01  Eh
     RMS occupancy error         =   1.5013E-11
     [H,K] commutator            =   5.5617E-05
     Occupancy bounds            = [  0.000:  1.000]
     ~~~~~~~~~~~~~~~~~~~~~~~~~~~~~~~~~~~~~~~~~~~~~~~~~~~~~~~~~~~




################################################################################
########################### NGWF CG iteration  001 #############################
################################################################################
****** Reciprocal space K.E. preconditioning with k_zero =  3.5000 a0^-1 *******

>>> Checking for convergence of NGWFs:   NOT CONVERGED
  ========================================================================
         NGWF RMS gradient =  1.5999E-03 >  2.0000E-06  | above tolerance
  ========================================================================

>>> Improving NGWFs using line search:
============ Calculation of NGWF S^-1 using Hotelling algorithm ================ 
         Iteration  |  Frobenius norm and Maximum abs value    (of I-S*S_n^-1)   
               1       0.19891973E+00     0.56519917E-02
               2       0.92920803E-03     0.46071663E-04
               3       0.35398396E-07     0.30562690E-08
               4       0.12599315E-12     0.57731597E-14
================================================================================
MG BCs: +ve charge blocks (gridpoints):     30151 (   17011485).
MG BCs: -ve charge blocks (gridpoints):      8265 (    1088952).
MG BCs:     Elided blocks (gridpoints):    174133 (  181077444).
MG BCs: Computational effort saved:  99.9807%.
MG BCs: Charge after coarse-graining:           -9.0009486.
MG DL_MG: Calling solver with defect correction order = 8
MG DL_MG: Solver finished
MG Hartree energy from (\int phi*rho dr):              1397.209360
MG Hartree energy from (\int eps (grad phi)^2 dr):     1396.558136
MG Discrepancy due to finite box and discretization:     -0.651225 (  -0.04661%)
MG Correction to account for finite box:                  0.469789
MG Remaining discrepancy, due to discretization:         -0.181435 (  -0.01299%)
============ Calculation of NGWF S^-1 using Hotelling algorithm ================ 
         Iteration  |  Frobenius norm and Maximum abs value    (of I-S*S_n^-1)   
               1       0.18418692E+01     0.44019999E-01
               2       0.70915105E-01     0.25768500E-02
               3       0.14543850E-03     0.96667192E-05
               4       0.11999282E-08     0.14980239E-09
               5       0.10765316E-12     0.53290705E-14
================================================================================
------------------------------- NGWF line search -------------------------------
RMS gradient                =       0.00159994939913
Trial step length           =               0.122474
Gradient along search dir.  =       -276.89046634489
Functional at step 0        =  -11532.64299450779799
Functional at step 1        =  -11563.94657372252550
Functional predicted        =  -11642.86457837344642
Selected quadratic step     =               0.796139
--------------------------- NGWF line search finished --------------------------
                                               
Writing NGWFs to file "host_25561.vacuum_tightbox_ngwfs"....  done

>>> Optimising kernel for current NGWFs:
   Initial electron number for spin 1:    7226.34942699
     Final electron number for spin 1:    7192.00000000

=================== Penalty functional idempotency correction ==================
 RMS occupancy error at iteration   1:  0.004268 (step -0.4861 Ne1=   7192.0000)
 RMS occupancy error at iteration   2:  0.000069 (step -0.5002 Ne1=   7192.0000)
            Final RMS occupancy error   :  0.000000 (Ne1=   7192.0000)
               Final occupancy bounds   : [  0.0000,  1.0000]
================================================================================

................................................................................
<<<<<<<<<<<<<< LNV (Original version) density kernel optimisation >>>>>>>>>>>>>>
~~~~~~~~~~~~~~~~~~~~~~~~~~~~~~~~~~~~~~~~~~~~~~~~~~~~~~~~~~~~~~~~~~~~~~~~~~~~~~~~
   iter  |      energy (Eh)       | rms gradient |  commutator  |   dE (Eh)
MG BCs: +ve charge blocks (gridpoints):     24368 (   16726202).
MG BCs: -ve charge blocks (gridpoints):      8386 (    1072764).
MG BCs:     Elided blocks (gridpoints):    179920 (  181378915).
MG BCs: Computational effort saved:  99.9836%.
MG BCs: Charge after coarse-graining:           -9.0006625.
MG DL_MG: Calling solver with defect correction order = 8
MG DL_MG: Solver finished
MG Hartree energy from (\int phi*rho dr):              1244.523205
MG Hartree energy from (\int eps (grad phi)^2 dr):     1243.871631
MG Discrepancy due to finite box and discretization:     -0.651574 (  -0.05236%)
MG Correction to account for finite box:                  0.469433
MG Remaining discrepancy, due to discretization:         -0.182141 (  -0.01464%)
      ideal mu1:      -0.715122137164
             Q0:  -11642.078030543867
             G0:      -9.852857333861
   RMS gradient:       0.000482540529
MG BCs: +ve charge blocks (gridpoints):     24424 (   16740220).
MG BCs: -ve charge blocks (gridpoints):      8375 (    1069663).
MG BCs:     Elided blocks (gridpoints):    179864 (  181367998).
MG BCs: Computational effort saved:  99.9835%.
MG BCs: Charge after coarse-graining:           -9.0006587.
MG DL_MG: Calling solver with defect correction order = 8
MG DL_MG: Solver finished
MG Hartree energy from (\int phi*rho dr):              1259.832219
MG Hartree energy from (\int eps (grad phi)^2 dr):     1259.175973
MG Discrepancy due to finite box and discretization:     -0.656246 (  -0.05209%)
MG Correction to account for finite box:                  0.468165
MG Remaining discrepancy, due to discretization:         -0.188081 (  -0.01493%)
     Trial step:       0.710125566541
             Q1:  -11641.575669223210
 Quadratic coef:       7.499127216910
 Linear coef   :      -6.996765896253
           Qmin:  -11643.710044896703
Quadratic minimum step length (  0.331277374174) accepted
    Initial Ne1:    7191.99962574
      Final Ne1:    7192.00000000

=================== Penalty functional idempotency correction ==================
 RMS occupancy error at iteration   1:  0.000359 (step -0.4985 Ne1=   7192.0000)
 RMS occupancy error at iteration   2:  0.000000 (step -0.5000 Ne1=   7192.0000)
            Final RMS occupancy error   :  0.000000 (Ne1=   7192.0000)
               Final occupancy bounds   : [  0.0000,  1.0000]
================================================================================

    1        -1.164207803054E+04     4.8254E-04     4.3645E-04
MG BCs: +ve charge blocks (gridpoints):     24394 (   16732925).
MG BCs: -ve charge blocks (gridpoints):      8378 (    1071335).
MG BCs:     Elided blocks (gridpoints):    179894 (  181373621).
MG BCs: Computational effort saved:  99.9835%.
MG BCs: Charge after coarse-graining:           -9.0006606.
MG DL_MG: Calling solver with defect correction order = 8
MG DL_MG: Solver finished
MG Hartree energy from (\int phi*rho dr):              1250.748466
MG Hartree energy from (\int eps (grad phi)^2 dr):     1250.094823
MG Discrepancy due to finite box and discretization:     -0.653643 (  -0.05226%)
MG Correction to account for finite box:                  0.468804
MG Remaining discrepancy, due to discretization:         -0.184839 (  -0.01478%)
      ideal mu1:      -0.722459206467
             Q0:  -11643.685297292075
             G0:      -1.023453081858
   RMS gradient:       0.000156147058
MG BCs: +ve charge blocks (gridpoints):     24397 (   16732397).
MG BCs: -ve charge blocks (gridpoints):      8381 (    1072285).
MG BCs:     Elided blocks (gridpoints):    179891 (  181373199).
MG BCs: Computational effort saved:  99.9835%.
MG BCs: Charge after coarse-graining:           -9.0006606.
MG DL_MG: Calling solver with defect correction order = 8
MG DL_MG: Solver finished
MG Hartree energy from (\int phi*rho dr):              1251.722721
MG Hartree energy from (\int eps (grad phi)^2 dr):     1251.068774
MG Discrepancy due to finite box and discretization:     -0.653947 (  -0.05224%)
MG Correction to account for finite box:                  0.468703
MG Remaining discrepancy, due to discretization:         -0.185245 (  -0.01480%)
     Trial step:       0.485024260236
             Q1:  -11643.901071782690
 Quadratic coef:       0.280625083300
 Linear coef   :      -0.496399573914
           Qmin:  -11643.904818417988
Quadratic minimum step length (  0.428981317863) accepted
    Initial Ne1:    7191.99994924
      Final Ne1:    7192.00000000

=================== Penalty functional idempotency correction ==================
 RMS occupancy error at iteration   1:  0.000155 (step -0.4992 Ne1=   7192.0000)
 RMS occupancy error at iteration   2:  0.000000 (step -0.5000 Ne1=   7192.0000)
            Final RMS occupancy error   :  0.000000 (Ne1=   7192.0000)
               Final occupancy bounds   : [  0.0000,  1.0000]
================================================================================

    2        -1.164368529729E+04     1.5615E-04     1.4123E-04    -1.6073E+00
MG BCs: +ve charge blocks (gridpoints):     24397 (   16732491).
MG BCs: -ve charge blocks (gridpoints):      8382 (    1072154).
MG BCs:     Elided blocks (gridpoints):    179891 (  181373236).
MG BCs: Computational effort saved:  99.9835%.
MG BCs: Charge after coarse-graining:           -9.0006606.
MG DL_MG: Calling solver with defect correction order = 8
MG DL_MG: Solver finished
MG Hartree energy from (\int phi*rho dr):              1251.609998
MG Hartree energy from (\int eps (grad phi)^2 dr):     1250.956087
MG Discrepancy due to finite box and discretization:     -0.653911 (  -0.05225%)
MG Correction to account for finite box:                  0.468714
MG Remaining discrepancy, due to discretization:         -0.185197 (  -0.01480%)
      ideal mu1:      -0.723283068114
             Q0:  -11643.905297077959
             G0:      -0.170810623165
   RMS gradient:       0.000063465447
MG BCs: +ve charge blocks (gridpoints):     24398 (   16731770).
MG BCs: -ve charge blocks (gridpoints):      8378 (    1072575).
MG BCs:     Elided blocks (gridpoints):    179890 (  181373536).
MG BCs: Computational effort saved:  99.9835%.
MG BCs: Charge after coarse-graining:           -9.0006606.
MG DL_MG: Calling solver with defect correction order = 8
MG DL_MG: Solver finished
MG Hartree energy from (\int phi*rho dr):              1251.081924
MG Hartree energy from (\int eps (grad phi)^2 dr):     1250.428119
MG Discrepancy due to finite box and discretization:     -0.653805 (  -0.05226%)
MG Correction to account for finite box:                  0.468627
MG Remaining discrepancy, due to discretization:         -0.185178 (  -0.01480%)
     Trial step:       0.456142901240
             Q1:  -11643.959153109696
 Quadratic coef:       0.024058021478
 Linear coef   :      -0.077914053213
           Qmin:  -11643.968379984566
Quadratic minimum step length (  0.738629781194) accepted
    Initial Ne1:    7191.99998556
      Final Ne1:    7192.00000000

=================== Penalty functional idempotency correction ==================
 RMS occupancy error at iteration   1:  0.000160 (step -0.4936 Ne1=   7192.0000)
 RMS occupancy error at iteration   2:  0.000001 (step -0.5000 Ne1=   7192.0000)
            Final RMS occupancy error   :  0.000000 (Ne1=   7192.0000)
               Final occupancy bounds   : [  0.0000,  1.0000]
================================================================================

    3        -1.164390529708E+04     6.3465E-05     5.7403E-05    -2.2000E-01
MG BCs: +ve charge blocks (gridpoints):     24397 (   16731361).
MG BCs: -ve charge blocks (gridpoints):      8380 (    1072841).
MG BCs:     Elided blocks (gridpoints):    179891 (  181373679).
MG BCs: Computational effort saved:  99.9835%.
MG BCs: Charge after coarse-graining:           -9.0006606.
MG DL_MG: Calling solver with defect correction order = 8
MG DL_MG: Solver finished
MG Hartree energy from (\int phi*rho dr):              1250.754931
MG Hartree energy from (\int eps (grad phi)^2 dr):     1250.101192
MG Discrepancy due to finite box and discretization:     -0.653739 (  -0.05227%)
MG Correction to account for finite box:                  0.468571
MG Remaining discrepancy, due to discretization:         -0.185168 (  -0.01480%)
      ideal mu1:      -0.722356734845
             Q0:  -11643.968448179308
             G0:      -0.069832959301
   RMS gradient:       0.000040579967
MG BCs: +ve charge blocks (gridpoints):     24395 (   16731236).
MG BCs: -ve charge blocks (gridpoints):      8379 (    1072900).
MG BCs:     Elided blocks (gridpoints):    179893 (  181373745).
MG BCs: Computational effort saved:  99.9835%.
MG BCs: Charge after coarse-graining:           -9.0006606.
MG DL_MG: Calling solver with defect correction order = 8
MG DL_MG: Solver finished
MG Hartree energy from (\int phi*rho dr):              1250.780733
MG Hartree energy from (\int eps (grad phi)^2 dr):     1250.127169
MG Discrepancy due to finite box and discretization:     -0.653564 (  -0.05225%)
MG Correction to account for finite box:                  0.468531
MG Remaining discrepancy, due to discretization:         -0.185032 (  -0.01479%)
     Trial step:       0.580448732737
             Q1:  -11643.993480513920
 Quadratic coef:       0.015502118118
 Linear coef   :      -0.040534452729
           Qmin:  -11643.994945233542
Quadratic minimum step length (  0.758869579619) accepted
    Initial Ne1:    7191.99999378
      Final Ne1:    7192.00000000

=================== Penalty functional idempotency correction ==================
 RMS occupancy error at iteration   1:  0.000276 (step -0.4847 Ne1=   7192.0000)
 RMS occupancy error at iteration   2:  0.000002 (step -0.5000 Ne1=   7192.0000)
            Final RMS occupancy error   :  0.000000 (Ne1=   7192.0000)
               Final occupancy bounds   : [  0.0000,  1.0000]
================================================================================

    4        -1.164396844818E+04     4.0580E-05     3.6704E-05    -6.3151E-02
MG BCs: +ve charge blocks (gridpoints):     24395 (   16731189).
MG BCs: -ve charge blocks (gridpoints):      8379 (    1072923).
MG BCs:     Elided blocks (gridpoints):    179893 (  181373769).
MG BCs: Computational effort saved:  99.9835%.
MG BCs: Charge after coarse-graining:           -9.0006606.
MG DL_MG: Calling solver with defect correction order = 8
MG DL_MG: Solver finished
MG Hartree energy from (\int phi*rho dr):              1250.789820
MG Hartree energy from (\int eps (grad phi)^2 dr):     1250.136312
MG Discrepancy due to finite box and discretization:     -0.653508 (  -0.05225%)
MG Correction to account for finite box:                  0.468517
MG Remaining discrepancy, due to discretization:         -0.184991 (  -0.01479%)
      ideal mu1:      -0.722660889545
             Q0:  -11643.994918802404
             G0:      -0.067296199928
   RMS gradient:       0.000039852092
MG BCs: +ve charge blocks (gridpoints):     24393 (   16732454).
MG BCs: -ve charge blocks (gridpoints):      8380 (    1072435).
MG BCs:     Elided blocks (gridpoints):    179895 (  181372992).
MG BCs: Computational effort saved:  99.9835%.
MG BCs: Charge after coarse-graining:           -9.0006604.
MG DL_MG: Calling solver with defect correction order = 8
MG DL_MG: Solver finished
MG Hartree energy from (\int phi*rho dr):              1251.666394
MG Hartree energy from (\int eps (grad phi)^2 dr):     1251.013159
MG Discrepancy due to finite box and discretization:     -0.653235 (  -0.05219%)
MG Correction to account for finite box:                  0.468333
MG Remaining discrepancy, due to discretization:         -0.184903 (  -0.01477%)
     Trial step:       0.663690353857
             Q1:  -11644.022177501698
 Quadratic coef:       0.017405139450
 Linear coef   :      -0.044663838744
           Qmin:  -11644.023572098993
Quadratic minimum step length (  0.851557639798) accepted
    Initial Ne1:    7191.99999288
      Final Ne1:    7192.00000000

=================== Penalty functional idempotency correction ==================
 RMS occupancy error at iteration   1:  0.000957 (step -0.4492 Ne1=   7192.0000)
 RMS occupancy error at iteration   2:  0.000009 (step -0.4999 Ne1=   7192.0000)
            Final RMS occupancy error   :  0.000000 (Ne1=   7192.0000)
               Final occupancy bounds   : [ -0.0000,  1.0000]
================================================================================

    5        -1.164399491880E+04     3.9852E-05     3.6045E-05    -2.6471E-02
MG BCs: +ve charge blocks (gridpoints):     24392 (   16732845).
MG BCs: -ve charge blocks (gridpoints):      8380 (    1072299).
MG BCs:     Elided blocks (gridpoints):    179896 (  181372737).
MG BCs: Computational effort saved:  99.9835%.
MG BCs: Charge after coarse-graining:           -9.0006603.
MG DL_MG: Calling solver with defect correction order = 8
MG DL_MG: Solver finished
MG Hartree energy from (\int phi*rho dr):              1251.916256
MG Hartree energy from (\int eps (grad phi)^2 dr):     1251.263097
MG Discrepancy due to finite box and discretization:     -0.653159 (  -0.05217%)
MG Correction to account for finite box:                  0.468281
MG Remaining discrepancy, due to discretization:         -0.184878 (  -0.01477%)
      ideal mu1:      -0.723953726322
             Q0:  -11644.023653389537
             G0:      -0.064682212998
   RMS gradient:       0.000038649689
MG BCs: +ve charge blocks (gridpoints):     24394 (   16732993).
MG BCs: -ve charge blocks (gridpoints):      8382 (    1072386).
MG BCs:     Elided blocks (gridpoints):    179894 (  181372502).
MG BCs: Computational effort saved:  99.9835%.
MG BCs: Charge after coarse-graining:           -9.0006602.
MG DL_MG: Calling solver with defect correction order = 8
MG DL_MG: Solver finished
MG Hartree energy from (\int phi*rho dr):              1251.691314
MG Hartree energy from (\int eps (grad phi)^2 dr):     1251.038412
MG Discrepancy due to finite box and discretization:     -0.652902 (  -0.05216%)
MG Correction to account for finite box:                  0.468010
MG Remaining discrepancy, due to discretization:         -0.184892 (  -0.01477%)
     Trial step:       0.751778285991
             Q1:  -11644.053901834763
 Quadratic coef:       0.018378237995
 Linear coef   :      -0.048626683221
           Qmin:  -11644.055818528568
Quadratic minimum step length (  0.994559015252) accepted
    Initial Ne1:    7192.00001532
      Final Ne1:    7192.00000000

=================== Penalty functional idempotency correction ==================
 RMS occupancy error at iteration   1:  0.002505 (step -0.3866 Ne1=   7192.0000)
 RMS occupancy error at iteration   2:  0.000038 (step -0.4995 Ne1=   7192.0000)
            Final RMS occupancy error   :  0.000000 (Ne1=   7192.0000)
               Final occupancy bounds   : [ -0.0000,  1.0000]
================================================================================

    6        -1.164402365339E+04     3.8650E-05     3.4958E-05    -2.8735E-02
MG BCs: +ve charge blocks (gridpoints):     24394 (   16732955).
MG BCs: -ve charge blocks (gridpoints):      8384 (    1072442).
MG BCs:     Elided blocks (gridpoints):    179894 (  181372484).
MG BCs: Computational effort saved:  99.9835%.
MG BCs: Charge after coarse-graining:           -9.0006603.
MG DL_MG: Calling solver with defect correction order = 8
MG DL_MG: Solver finished
MG Hartree energy from (\int phi*rho dr):              1251.621818
MG Hartree energy from (\int eps (grad phi)^2 dr):     1250.968970
MG Discrepancy due to finite box and discretization:     -0.652848 (  -0.05216%)
MG Correction to account for finite box:                  0.467952
MG Remaining discrepancy, due to discretization:         -0.184896 (  -0.01477%)
      ideal mu1:      -0.724109101321
             Q0:  -11644.057478794944
             G0:      -0.064315267662
   RMS gradient:       0.000038986095
MG BCs: +ve charge blocks (gridpoints):     24398 (   16731218).
MG BCs: -ve charge blocks (gridpoints):      8384 (    1072854).
MG BCs:     Elided blocks (gridpoints):    179890 (  181373809).
MG BCs: Computational effort saved:  99.9835%.
MG BCs: Charge after coarse-graining:           -9.0006606.
MG DL_MG: Calling solver with defect correction order = 8
MG DL_MG: Solver finished
MG Hartree energy from (\int phi*rho dr):              1250.717803
MG Hartree energy from (\int eps (grad phi)^2 dr):     1250.064890
MG Discrepancy due to finite box and discretization:     -0.652913 (  -0.05220%)
MG Correction to account for finite box:                  0.467964
MG Remaining discrepancy, due to discretization:         -0.184949 (  -0.01479%)
     Trial step:       0.864689465533
             Q1:  -11644.072994070244
 Quadratic coef:       0.040097459121
 Linear coef   :      -0.055612734420
           Qmin:  -11644.076761664093
Quadratic minimum step length (  0.599635820529) accepted
    Initial Ne1:    7192.00038808
      Final Ne1:    7192.00000000

=================== Penalty functional idempotency correction ==================
 RMS occupancy error at iteration   1:  0.000035 (step -0.4978 Ne1=   7192.0000)
            Final RMS occupancy error   :  0.000000 (Ne1=   7192.0000)
               Final occupancy bounds   : [ -0.0000,  1.0000]
================================================================================

    7        -1.164405747879E+04     3.8986E-05     3.5262E-05    -3.3825E-02
MG BCs: +ve charge blocks (gridpoints):     24398 (   16731740).
MG BCs: -ve charge blocks (gridpoints):      8385 (    1072717).
MG BCs:     Elided blocks (gridpoints):    179890 (  181373424).
MG BCs: Computational effort saved:  99.9835%.
MG BCs: Charge after coarse-graining:           -9.0006605.
MG DL_MG: Calling solver with defect correction order = 8
MG DL_MG: Solver finished
MG Hartree energy from (\int phi*rho dr):              1250.992616
MG Hartree energy from (\int eps (grad phi)^2 dr):     1250.339722
MG Discrepancy due to finite box and discretization:     -0.652894 (  -0.05219%)
MG Correction to account for finite box:                  0.467962
MG Remaining discrepancy, due to discretization:         -0.184932 (  -0.01478%)
      ideal mu1:      -0.723374370330
             Q0:  -11644.076772276429
             G0:      -0.051774816361
   RMS gradient:       0.000034968890
MG BCs: +ve charge blocks (gridpoints):     24397 (   16731551).
MG BCs: -ve charge blocks (gridpoints):      8384 (    1072711).
MG BCs:     Elided blocks (gridpoints):    179891 (  181373619).
MG BCs: Computational effort saved:  99.9835%.
MG BCs: Charge after coarse-graining:           -9.0006606.
MG DL_MG: Calling solver with defect correction order = 8
MG DL_MG: Solver finished
MG Hartree energy from (\int phi*rho dr):              1250.777235
MG Hartree energy from (\int eps (grad phi)^2 dr):     1250.124363
MG Discrepancy due to finite box and discretization:     -0.652872 (  -0.05220%)
MG Correction to account for finite box:                  0.467854
MG Remaining discrepancy, due to discretization:         -0.185019 (  -0.01479%)
     Trial step:       0.720068591988
             Q1:  -11644.100836324040
 Quadratic coef:       0.013217371506
 Linear coef   :      -0.037281419118
           Qmin:  -11644.103061622436
Quadratic minimum step length (  1.015526383523) accepted
    Initial Ne1:    7192.00120029
[...]
================================================================================

    7        -1.167869744122E+04     1.1932E-08     1.0793E-08    -4.3074E-09

Reusing previously generated solute cavity.
MG BCs: +ve charge blocks (gridpoints):     28739 (   18911039).
MG BCs: -ve charge blocks (gridpoints):      8380 (    1041274).
MG BCs:     Elided blocks (gridpoints):    175549 (  179225568).
MG BCs: Computational effort saved:  99.9814%.
MG BCs: Charge after coarse-graining:           -9.0009274.
MG DL_MG: Calling solver with defect correction order = 8
MG DL_MG: Solver finished
MG Hartree energy from (\int phi*rho dr):              1209.028222
MG Hartree energy from (\int eps (grad phi)^2 dr):     1208.838035
MG Discrepancy due to finite box and discretization:     -0.190187 (  -0.01573%)
MG Correction to account for finite box:                  0.006310
MG Remaining discrepancy, due to discretization:         -0.183877 (  -0.01521%)
      ideal mu1:      -0.482231338627
             Q0:  -11678.697441217490
             G0:      -0.000000006563
   RMS gradient:       0.000000009386

Reusing previously generated solute cavity.
MG BCs: +ve charge blocks (gridpoints):     28739 (   18911039).
MG BCs: -ve charge blocks (gridpoints):      8380 (    1041274).
MG BCs:     Elided blocks (gridpoints):    175549 (  179225568).
MG BCs: Computational effort saved:  99.9814%.
MG BCs: Charge after coarse-graining:           -9.0009274.
MG DL_MG: Calling solver with defect correction order = 8
MG DL_MG: Solver finished
MG Hartree energy from (\int phi*rho dr):              1209.028259
MG Hartree energy from (\int eps (grad phi)^2 dr):     1208.838072
MG Discrepancy due to finite box and discretization:     -0.190187 (  -0.01573%)
MG Correction to account for finite box:                  0.006310
MG Remaining discrepancy, due to discretization:         -0.183877 (  -0.01521%)
     Trial step:       0.306146286724
             Q1:  -11678.697441219818
 Quadratic coef:      -0.000000000318
 Linear coef   :      -0.000000002009
         Quadratic fit unsuccessful: proceeding to cubic fit

Reusing previously generated solute cavity.
MG BCs: +ve charge blocks (gridpoints):     28739 (   18911038).
MG BCs: -ve charge blocks (gridpoints):      8380 (    1041272).
MG BCs:     Elided blocks (gridpoints):    175549 (  179225571).
MG BCs: Computational effort saved:  99.9814%.
MG BCs: Charge after coarse-graining:           -9.0009274.
MG DL_MG: Calling solver with defect correction order = 8
MG DL_MG: Solver finished
MG Hartree energy from (\int phi*rho dr):              1209.028296
MG Hartree energy from (\int eps (grad phi)^2 dr):     1208.838110
MG Discrepancy due to finite box and discretization:     -0.190187 (  -0.01573%)
MG Correction to account for finite box:                  0.006310
MG Remaining discrepancy, due to discretization:         -0.183877 (  -0.01521%)
             Q2:  -11678.697441220866
  Cubic LS coeff:       0.569717536659
Predicted energy:  -11678.697441220907
Cubic minimum step length accepted
    Initial Ne1:    7192.00000000
      Final Ne1:    7192.00000000

=================== Penalty functional idempotency correction ==================
 RMS occupancy error at iteration   1:  0.000000 (step -0.5000 Ne1=   7192.0000)
            Final RMS occupancy error   :  0.000000 (Ne1=   7192.0000)
               Final occupancy bounds   : [  0.0000,  1.0000]
================================================================================

    8        -1.167869744122E+04     9.3856E-09     8.4891E-09    -1.1642E-09

Reusing previously generated solute cavity.
MG BCs: +ve charge blocks (gridpoints):     28739 (   18911038).
MG BCs: -ve charge blocks (gridpoints):      8380 (    1041272).
MG BCs:     Elided blocks (gridpoints):    175549 (  179225571).
MG BCs: Computational effort saved:  99.9814%.
MG BCs: Charge after coarse-graining:           -9.0009274.
MG DL_MG: Calling solver with defect correction order = 8
MG DL_MG: Solver finished
MG Hartree energy from (\int phi*rho dr):              1209.028291
MG Hartree energy from (\int eps (grad phi)^2 dr):     1208.838104
MG Discrepancy due to finite box and discretization:     -0.190187 (  -0.01573%)
MG Correction to account for finite box:                  0.006310
MG Remaining discrepancy, due to discretization:         -0.183877 (  -0.01521%)
      ideal mu1:      -0.482231412797
             Q0:  -11678.697441220866
             G0:      -0.000000004168
   RMS gradient:       0.000000013086

Reusing previously generated solute cavity.
MG BCs: +ve charge blocks (gridpoints):     28739 (   18911041).
MG BCs: -ve charge blocks (gridpoints):      8380 (    1041272).
MG BCs:     Elided blocks (gridpoints):    175549 (  179225568).
MG BCs: Computational effort saved:  99.9814%.
MG BCs: Charge after coarse-graining:           -9.0009274.
MG DL_MG: Calling solver with defect correction order = 8
MG DL_MG: Solver finished
MG Hartree energy from (\int phi*rho dr):              1209.028338
MG Hartree energy from (\int eps (grad phi)^2 dr):     1208.838151
MG Discrepancy due to finite box and discretization:     -0.190187 (  -0.01573%)
MG Correction to account for finite box:                  0.006310
MG Remaining discrepancy, due to discretization:         -0.183877 (  -0.01521%)
     Trial step:       0.417632503919
             Q1:  -11678.697441221913
 Quadratic coef:       0.000000000693
 Linear coef   :      -0.000000001741
           Qmin:  -11678.697441221959
Quadratic minimum step length (  0.524439007070) accepted
    Initial Ne1:    7192.00000000
      Final Ne1:    7192.00000000

=================== Penalty functional idempotency correction ==================
 RMS occupancy error at iteration   1:  0.000000 (step -0.5000 Ne1=   7192.0000)
            Final RMS occupancy error   :  0.000000 (Ne1=   7192.0000)
               Final occupancy bounds   : [  0.0000,  1.0000]
================================================================================

    9        -1.167869744122E+04     1.3086E-08     1.1836E-08    -3.3760E-09

Reusing previously generated solute cavity.
MG BCs: +ve charge blocks (gridpoints):     28739 (   18911041).
MG BCs: -ve charge blocks (gridpoints):      8380 (    1041272).
MG BCs:     Elided blocks (gridpoints):    175549 (  179225568).
MG BCs: Computational effort saved:  99.9814%.
MG BCs: Charge after coarse-graining:           -9.0009274.
MG DL_MG: Calling solver with defect correction order = 8
MG DL_MG: Solver finished
MG Hartree energy from (\int phi*rho dr):              1209.028350
MG Hartree energy from (\int eps (grad phi)^2 dr):     1208.838163
MG Discrepancy due to finite box and discretization:     -0.190187 (  -0.01573%)
MG Correction to account for finite box:                  0.006310
MG Remaining discrepancy, due to discretization:         -0.183877 (  -0.01521%)
      ideal mu1:      -0.482231460558
   10        -1.167869744122E+04     2.3199E-08     2.0983E-08    -9.3132E-10
Finished density kernel iterations (  10)


>>> Density kernel optimised for the current NGWF basis:
     ~~~~~~~~~~~~~~~~~~~~~~~~~~~~~~~~~~~~~~~~~~~~~~~~~~~~~~~~~~~
     Total energy                =  -1.16786974412218E+04  Eh
     Estimated bandgap           =   7.9202E-02  Eh
     RMS occupancy error         =   3.5601E-16
     [H,K] commutator            =   2.0983E-08
     Occupancy bounds            = [  0.000:  1.000]
     ~~~~~~~~~~~~~~~~~~~~~~~~~~~~~~~~~~~~~~~~~~~~~~~~~~~~~~~~~~~




################################################################################
########################### NGWF CG iteration  004 #############################
################################################################################
****** Reciprocal space K.E. preconditioning with k_zero =  3.5000 a0^-1 *******

>>> Checking for convergence of NGWFs: 
           ........................................................
           |         *** NGWF optimisation converged ***          |
           | RMS NGWF gradient =    0.00000190864973              |
           | Criteria satisfied:                                  |
           | -> RMS NGWF gradient lower than set threshold.       |
           ========================================================

Reusing previously generated solute cavity.
MG BCs: +ve charge blocks (gridpoints):     28739 (   18911041).
MG BCs: -ve charge blocks (gridpoints):      8380 (    1041272).
MG BCs:     Elided blocks (gridpoints):    175549 (  179225568).
MG BCs: Computational effort saved:  99.9814%.
MG BCs: Charge after coarse-graining:           -9.0009274.
MG DL_MG: Calling solver with defect correction order = 8
MG DL_MG: Solver finished
MG Hartree energy from (\int phi*rho dr):              1209.028350
MG Hartree energy from (\int eps (grad phi)^2 dr):     1208.838163
MG Discrepancy due to finite box and discretization:     -0.190187 (  -0.01573%)
MG Correction to account for finite box:                  0.006310
MG Remaining discrepancy, due to discretization:         -0.183877 (  -0.01521%)

================================================================================
           ---------------- ENERGY COMPONENTS (Eh) ----------------
           | Kinetic                    :     8527.89629140638863 |
           | Pseudo. (local,OBC,corr'd) :    -5049.84777093402408 |
           | Pseudopotential (non-local):     1403.48846190870609 |
           | Hartree (molecular)        :     1209.02834991090685 |
           | Exchange-correlation       :    -3357.45037338137172 |
           | Ion-ion (open BC)          :   827775.14102750853635 |
           | Dispersion Correction      :       -3.28861237783011 |
           | Smeared ion non-self corr. :  -827727.14402357058134 |
           | Smeared ion self corr.     :   -14457.16956389741972 |
           | Solvent cavitation energy  :        2.30818181975097 |
           | Solute-solvent dis-rep en. :       -1.65940961476447 |
           | Total                      :   -11678.69744122180236 |
           --------------------------------------------------------
           ------ LOCAL ENERGY COMPONENTS FROM MATRIX TRACES ------
           | Pseudopotential (local)    :    -5049.84777093403045 |
           | Hartree                    :    -1994.31927116416773 |
           --------------------------------------------------------
           Integrated density           :     7191.99999999900410
           Integrated density tr(KS)    :     7192.00000000000000
================================================================================


                        <<<<< CALCULATION SUMMARY >>>>>                         
|ITER|    RMS GRADIENT   |     TOTAL ENERGY    |   step   |     Epredicted              
   0     0.00004017801668 -11678.63511060504243   0.616443 -11678.68892960146150        
   1     0.00000976333697 -11678.69691899267491   0.083969 -11678.69735188466439        
   2     0.00000429542104 -11678.69742374774069   0.015290 -11678.69743900513458        
   3     0.00000190864973 -11678.69744122179691  <-- CG                                 

=================== Finished the calculation in solvent ========================
= Adjusting the following parameters: 
= read_denskern: F
= read_tightbox_ngwfs: F
= maxit_pen: 0 (restored to user-specified value)
= restart read filename prefix: ""
= restart write filename prefix: ""
================================================================================

================================================================================
IS: Calculation in solvent completed (NGWFs converged).      

Individual components of total energy in solvent:     hartree           kcal/mol
- Usual non-electrostatic DFT terms:    -12888.37456333769114    -8087576.968307
- Electrostatic fixed charge energy:      1209.02834991090685      758676.727520
- Apolar cavitation energy:                  2.30818181975097        1448.405928
- Apolar dispersion-repulsion energy:       -1.65940961476447       -1041.295232
 -------------------------------------------------------------------------------
- Total energy in solvent:              -11678.69744122179691    -7328493.130091

Components of total energy in solvent:                hartree           kcal/mol
- Usual non-electrostatic DFT terms:    -12888.37456333769114    -8087576.968307
- Electrostatic energy:                   1209.02834991090685      758676.727520
- Apolar energy terms:                       0.64877220498650         407.110696
 -------------------------------------------------------------------------------
- Total energy in solvent:              -11678.69744122179691    -7328493.130091

Calculation of free energy of solvation:              hartree           kcal/mol
- Total energy in solvent:         (+)  -11678.69744122179691    -7328493.130091
- Total energy in vacuum:          (-)  -11674.87986156088300    -7326097.562738
 -------------------------------------------------------------------------------
- Total free energy of solvation:           -3.81757966091391       -2395.567353

Components of polar term in f.e. of solvation:        hartree           kcal/mol
- Electrostatic:                            -4.60603029850040       -2890.327587
- Change in nonelectrostatic DFT terms:      0.13967843259888          87.649538
 -------------------------------------------------------------------------------
- Polar term in f.e. of solvation:          -4.46635186590152       -2802.678050

Components of free energy of solvation:               hartree           kcal/mol
- Polar term in f.e. of solvation: (+)      -4.46635186590152       -2802.678050
- Apolar (cavitation, dis., rep.): (+)       0.64877220498650         407.110696
 -------------------------------------------------------------------------------
- Total free energy of solvation:           -3.81757966091501       -2395.567353
================================================================================


------------------------------ TIMING INFORMATION ------------------------------
AVERAGE TIME:   32657.177s on     60 node(s)                                    
TOTAL TIME:     32657.178s on     60 node(s)                                    
================= AVERAGE TIMINGS FROM ALL NODES (CUMULATIVE) ==================
|| TAG                                    #calls    cpu time   %total  Gflops ||
|| work_imbalance                       :     1        0.00s   0.000%  ------ ||
|| sparse_set_to_garbage                :   182        0.03s   0.000%  ------ ||
|| parallel_prepare_fd_halos_request    :  1953        0.03s   0.000%  ------ ||
|| ngwfs_initialise_from_radial         :     1        0.11s   0.000%  ------ ||
|| basis_extract_function_from_box      :  3577        0.16s   0.000%  ------ ||
|| parallel_prepare_fd_halos_satisfy    :  1953        0.67s   0.002%  ------ ||
|| parallel_prepare_fd_halos_alloc      :  1953        1.70s   0.005%  ------ ||
|| pseudopotentials_nonlocal_mat        :    31        2.34s   0.007%  ------ ||
|| restart_kernel_read                  :     1        4.34s   0.013%  ------ ||
|| openbc_locps_radial                  :     1        4.67s   0.014%  ------ ||
|| restart_ngwfs_tightbox_input         :     1        7.70s   0.024%  ------ ||
|| density_init_guess_real              :     1        9.96s   0.030%  ------ ||
|| parallel_prepare_fd_halos_comms_imbal:  1953       11.50s   0.035%  ------ ||
|| parallel_prepare_fd_halos_clear      :  1953       20.72s   0.063%  ------ ||
|| sparse_init                          :     2       22.75s   0.070%  ------ ||
|| projectors_func_ovlp_box             :    31       28.04s   0.086%  ------ ||
|| parallel_prepare_fd_halos_comms_wait :  1953       29.02s   0.089%  ------ ||
|| palser_mano_kernel_optimise          :     1       32.05s   0.098%  ------ ||
|| projectors_init_fftbox_recip         :   143       32.45s   0.099%  ------ ||
|| function_ops_brappd_ketppd           :    31       33.28s   0.102%  ------ ||
|| basis_copy_function_to_box           : 58002       41.57s   0.127%  ------ ||
|| pseudo_make_structure_factor         :     2       52.82s   0.162%  ------ ||
|| fourier_apply_box_pair               :  5156       53.35s   0.163% 559.538 ||
|| ngwf_gradient_coeffs                 :    16       53.83s   0.165%  ------ ||
|| parallel_prepare_fd_halos            :  1953       63.67s   0.195%  ------ ||
|| sparse_embed_hotelling_invert_embed  :    31       85.44s   0.262%  ------ ||
|| restart_kernel_write                 :    13       96.87s   0.297%  ------ ||
|| projectors_gradient_batch            :   112      149.39s   0.457%  ------ ||
|| finite_difference_derivative         :  1953      152.64s   0.467%  ------ ||
|| integrals_kinetic                    :    31      159.06s   0.487%  ------ ||
|| basis_dot_function_with_box          : 8.918M     177.54s   0.544%  ------ ||
|| fourier_apply_cell_backward          :  1303      182.89s   0.560% 101.061 ||
|| sparse_trace                         :  5501      204.66s   0.627%  ------ ||
|| fourier_apply_cell_forward           :  1301      244.24s   0.748%  75.558 ||
|| openbc_locps_on_grid                 :     2      276.54s   0.847%  ------ ||
|| kernel_purify                        :   496      328.02s   1.004%  ------ ||
|| basis_add_function_to_box            : 18.58M     425.59s   1.303%  ------ ||
|| lnv_gradient_norm                    :   160      484.42s   1.483%  ------ ||
|| xc_energy_potential                  :   325      493.73s   1.512%  ------ ||
|| hamiltonian_energy_components        :     4      501.17s   1.535%  ------ ||
|| kernel_fix                           :   160      608.90s   1.865%  ------ ||
|| ngwf_gradient_build_batch            :   112      759.72s   2.326%  ------ ||
|| integrals_locpot_mat_els_batch       :  1183      812.78s   2.489%  ------ ||
|| restart_ngwfs_tightbox_output        :    11      958.12s   2.934%  ------ ||
|| ngwf_gradient_batch                  :   112     1079.99s   3.307%  ------ ||
|| density_batch_row_sums               :  2268     1134.90s   3.475%  ------ ||
|| ngwf_gradient_lnv                    :    16     1236.20s   3.785%  ------ ||
|| cell_grid_deposit_box_real           : 37312     1322.49s   4.050%  ------ ||
|| cell_grid_extract_box_real           : 41134     1593.55s   4.880%  ------ ||
|| density_fftbox_deposit_to_cell       : 35316     1909.96s   5.849%  ------ ||
|| sparse_product                       :  6774     2041.32s   6.251%  ------ ||
|| potential_apply_to_ngwf_batch        :  1183     3608.99s  11.051%  ------ ||
|| density_fftbox_interpolate_multiply  : 35316     3689.02s  11.296%  ------ ||
|| integrals_locpot_dbl_grid            :   169     4441.26s  13.600%  ------ ||
|| fourier_apply_box                    : 121.6k    4535.46s  13.888% 752.144 ||
|| multigrid_prepare_bound_cond         :   325     4635.37s  14.194%  ------ ||
|| density_batch_interp_deposit         :  2268     6501.03s  19.907%  ------ ||
|| density_on_dbl_grid                  :   324     8055.59s  24.667%  ------ ||
|| dl_mg_solver_calls                   :   325     8691.13s  26.613%  ------ ||
|| multigrid_calculate_hartree          :   325    13538.65s  41.457%  ------ ||
|| hamiltonian_lhxc_calculate           :   320    22049.64s  67.519%  ------ ||
|| lnv_denskernel_optimise_cg           :    16    27496.07s  84.196%  ------ ||
|| ngwf_cg_optimise                     :     2    31669.33s  96.975%  ------ ||
|| total_time                           :     1    32657.18s 100.000%  ------ ||
================================================================================
Overhead of generating timer report: 
- 0 ms averaging over threads,
- 15 ms ensuring consistency across MPI ranks,
- 0 ms printing in order.

Job completed: 18-06-2020 04:56 (+0100)

Application 40876138 resources: utime ~6879758s, stime ~229553s, Rss ~3713344, inblocks ~338568350, outblocks ~52429063
