 +---------------------------------------------------------------+
 |                                                               |
 |        ####### #     # ####### ####### ####### ######         |
 |        #     # ##    # #          #    #       #     #        |
 |        #     # # #   # #          #    #       #     #        |
 |        #     # #  #  # #####      #    #####   ######         |
 |        #     # #   # # #          #    #       #              |
 |        #     # #    ## #          #    #       #              |
 |        ####### #     # #######    #    ####### #              |
 |                                                               |
 |        Linear-Scaling Ab Initio Total Energy Program          |
 |                                                               |
 |          Release for academic collaborators of ODG            |
 |                                             Version 5.3.2.6.  |
 |                                                               |
 +---------------------------------------------------------------+
 |                                                               |
 |  Authors:                                                     |
 |  Jacek Dziedzic, Peter D. Haynes, Nicholas D. M. Hine,        |
 |  Arash. A. Mostofi, Mike C. Payne and Chris-Kriton Skylaris   |
 |                                                               |
 |  Contributors:                                                |
 |  J. Aarons, L. Andrinopoulos, P. W. Avraam, R. A. Bell,       |
 |  A. Bhandari, G. A. Bramley, R. J. Charlton, S. J. Clark,     |
 |  R. J. Clements, G. C. Constantinescu, F. Corsetti,           |
 |  N. Corsini, O. Dieguez, S. M. M. Dubois, K. K. B. Duff,      |
 |  J. M. Escartin, A. Greco, H. Helal, Q. O. Hill, L. P. Lee,   |
 |  J.-H. Li, E. B. Linscott, G. Moynihan, D. D. O`Regan,        |
 |  O. K. Okan, M. J. S. Phipps, C. J. Pickard,                  |
 |  J. C. A. Prentice, M. I. J. Probert, L. E. Ratcliff,         |
 |  M. Robinson, A. Ruiz Serrano, J. S. Spencer, E. W. Tait,     |
 |  G. Teobaldi, D. Turban, V. Vitale, K. A. Wilkinson,          |
 |  C. Weber, J. C. Womack, N. Yeung and T. J. Zuehlsdorff       |
 |                                                               |
 |                                   Copyright (c) 2004-2019     |
 |                                                               |
 |  Please cite:                                                 |
 |  "Introducing ONETEP: Linear-scaling density functional       |
 |   simulations on parallel computers".                         |
 |   C.-K. Skylaris, P. D. Haynes, A. A. Mostofi, M. C. Payne.   |
 |   J. Chem. Phys. 122 084119 (2005).                           |
 |                                                               |
 |          in all publications arising from your use of ONETEP. |
 |                                                               |
 +---------------------------------------------------------------+
 |                                                               |
 |   ONETEP is based on developments described in the following  |
 |   publications:                                               |
 |                                                               |
 |  "Nonorthogonal generalized Wannier function pseudopotential  |
 |   plane-wave method".                                         |
 |   C.-K. Skylaris, A. A. Mostofi, P. D. Haynes, O. Dieguez,    |
 |   M. C. Payne.                                                |
 |   Phys. Rev. B 66 035119 (2002).                              |
 |                                                               |
 |  "Preconditioned iterative minimization for linear-scaling    |
 |   electronic structure calculations".                         |
 |   A. A. Mostofi, P. D. Haynes, C.-K. Skylaris, M. C. Payne.   |
 |   J. Chem. Phys. 119(17), pp.8842-8848 (2003).                |
 |                                                               |
 |  "Total-energy calculations on a real space grid with         |
 |   localized functions and a plane-wave basis".                |
 |   A. A. Mostofi, C.-K. Skylaris, P. D. Haynes, M. C. Payne.   |
 |   Comput. Phys. Commun. 147, pp.788-802 (2002).               |
 |                                                               |
 |  "Accurate kinetic energy evaluation in electronic structure  |
 |   calculations with localized functions on real space grids"  |
 |   C.-K. Skylaris, A. A. Mostofi, P. D. Haynes, C. J. Pickard, |
 |   M. C. Payne.                                                |
 |   Comput. Phys. Commun. 140, pp.315-322 (2001).               |
 |                                                               |
 |  "Accurate ionic forces and geometry optimization in linear-  |
 |   scaling density-functional theory with local orbitals"      |
 |   N. D. M. Hine, M. Robinson, P. D. Haynes, C.-K. Skylaris,   |
 |   M. C. Payne, and A. A. Mostofi.                             |
 |   Phys. Rev. B 83 195102 (2011).                              |
 |                                                               |
 +---------------------------------------------------------------+

Job started: 20-06-2020 10:55 (+0100)
 
Reading parameters from file "host_3901.dat" ...... done

If your calculation crashes here, before "Checking processes and threads..."
is displayed, then your stack size is insufficient.
If so, use "ulimit -s unlimited" at runtime.
You can disable this check with "check_stack_size F".

Checking processes and threads...
   Determining the default number of threads...
      No default threads set at compilation time: defaulting to 1.
      OpenMP library call suggests 4 threads.
      Hybrid MPI-OpenMP compilation detected.
      Number of MPI processes > 1.
      OMP_NUM_THREADS environment variable present and
      its value matches the one obtained from the OpenMP library call.
      Using this value as default.
      Default threads: 4
      Default applies to threads_max and threads_num_fftboxes.
      Settings in the input file override this default.
   ... done

   Running with 40 MPI processes.
   There are 10 MPI processes running on the same node as the root process.
   Each MPI process is using: 
               1 threads for simulation cell FFTs.
               1 threads for parallel FFT box operations.
               4 threads for loops over batched FFT box operations.
               4 threads in other parallel regions.
... done

Basic input checks...... done

Reading geometry and species blocks from file "host_3901.dat" ...
  <species_atomic_set> block not found: NGWF initialisation set to SOLVE
IS: Dielectric excluded regions:
    - NONE.
    
  Number of PPD points along a3 set to 1.  This is 
  the default value, it may have been provided also in the input file.
... done
 Writing xyz coordinates to file "host_3901.xyz" ... done


--------------------------------------------------------------------------------
---------------------------------- INPUT FILE ----------------------------------
--------------------------------------------------------------------------------

cutoff_energy       : 800 eV                                                    
xc_functional PBE                                                               
task SINGLEPOINT                                                                
write_xyz true                                                                  
output_detail VERBOSE                                                           
ngwf_threshold_orig : 0.000002                                                  
kernel_cutoff       : 1000                                                      
k_zero              : 3.5                                                       
elec_cg_max 0                                                                   
occ_mix 1.0                                                                     
dispersion 1                                                                    
maxit_ngwf_cg 40                                                                
minit_lnv 10                                                                    
maxit_lnv 10                                                                    
write_denskern F                                                                
write_tightbox_ngwfs F                                                          
charge 9                                                                        
is_implicit_solvent T                                                           
is_auto_solvation T                                                             
is_include_apolar T                                                             
is_smeared_ion_rep T                                                            
is_solvent_surf_tension 4.7624E-5 Ha/bohr**2                                    
is_apolar_scaling_factor 0.281075                                               
is_solvation_beta 1.3                                                           
is_density_threshold 0.00035                                                    
is_bulk_permittivity 78.54                                                      
is_dielectric_model fix_initial                                                 
is_smeared_ion_width 0.8                                                        
mg_defco_fd_order 8                                                             
is_bc_coarseness 10                                                             
is_bc_surface_coarseness 1                                                      
fine_grid_scale 2.0                                                             
%block species                                                                  
N   N   7 4 8.0                                                                 
H   H   1 1 8.0                                                                 
C   C   6 4 8.0                                                                 
S   S  16 9 8.0                                                                 
O   O   8 4 8.0                                                                 
%endblock species                                                               
%block species_pot                                                              
N   N_00.recpot                                                                 
H   H_04.recpot                                                                 
C   C_01.recpot                                                                 
S   S_00.recpot                                                                 
O   O_02.recpot                                                                 
%endblock species_pot                                                           
%block lattice_cart                                                             
140.777   0.000   0.000                                                         
0.000 144.511   0.000                                                           
0.000   0.000   162.462                                                         
%endblock lattice_cart                                                          
%block positions_abs                                                            
     Hash =  -000001522903818128532421
%endblock positions_abs                                                         

--------------------------------------------------------------------------------
-------------------------------- END INPUT FILE --------------------------------
--------------------------------------------------------------------------------


 
 ESDF WARNING(1): "kernelcutoff" (esdf_physical) has no units. Assume "bohr".
 ESDF WARNING(2): "kzero" (esdf_physical) has no units. Assume "1/bohr".
 ESDF WARNING(3
 ): "issmearedionwidth" (esdf_physical) has no units. Assume "bohr".
<<<<<<<<<<<<<<<<<<<<<<<<<<<<<<<<< Full system >>>>>>>>>>>>>>>>>>>>>>>>>>>>>>>>>>
<<<<<<<<<<<<<<<<<<<<<<<<< Pseudopotential information >>>>>>>>>>>>>>>>>>>>>>>>>>
File: N_00.recpot [ 2001 points up to Gmax=  52.9 (1/bohr)]
  Atomic number:  7;  ionic charge:  5.000000
    Shell 1: l = 0; rc = 1.48 bohr
File: H_04.recpot [ 2001 points up to Gmax=  52.9 (1/bohr)]
  Atomic number:  1;  ionic charge:  1.000000
    Local potential
File: C_01.recpot [ 2001 points up to Gmax=  52.9 (1/bohr)]
  Atomic number:  6;  ionic charge:  4.000000
    Shell 1: l = 0; rc = 1.48 bohr
File: S_00.recpot [ 2001 points up to Gmax=  52.9 (1/bohr)]
  Atomic number: 16;  ionic charge:  6.000000
    Shell 1: l = 0; rc = 1.90 bohr
    Shell 2: l = 2; rc = 1.84 bohr
File: O_02.recpot [ 2001 points up to Gmax=  52.9 (1/bohr)]
  Atomic number:  8;  ionic charge:  6.000000
    Shell 1: l = 0; rc = 1.31 bohr
<<<<<<<<<<<<<<<<<<<<<<<<<<<<<<<<<<<<<<<<>>>>>>>>>>>>>>>>>>>>>>>>>>>>>>>>>>>>>>>>

-------------------------- Atom counting information ---------------------------
Symbol    Natoms    Nngwfs    Nprojs
  N        236       944       236
  H       1311      1311         0
  C        810      3240       810
  S          6        54        36
  O        239       956       239
.......   ......    ......    ......
Totals:   2602      6505      1321
--------------------------------------------------------------------------------

=============================== PSINC grid sizes ===============================
                      Simulation cell:  280 x 286 x 320
                              FFT-box:   99 x  99 x  99
                                  PPD:    5 x  11 x   1
Grid space d1=  0.502775000000a0 (KE cutoff=  30.05084Eh = 817.72503eV)
Grid space d2=  0.505283216783a0 (KE cutoff=  29.75324Eh = 809.62684eV)
Grid space d3=  0.507693750000a0 (KE cutoff=  29.47137Eh = 801.95686eV)
================================================================================

********************* Fourier parallelisation information **********************
       Coarse grid (whole simulation cell) dimensions:    280   286   320
          Real-space ('12') slabs/node (min max mean):      8     8     8
         Recip-space ('23') slabs/node (min max mean):      3     4     3
********************************************************************************

********************* Fourier parallelisation information **********************
       Double grid (whole simulation cell) dimensions:    560   572   640
          Real-space ('12') slabs/node (min max mean):     16    16    16
         Recip-space ('23') slabs/node (min max mean):      7     8     7
********************************************************************************
ONETEP fine grid is 560 x 572 x 640 gridpoints, 140.7770 x 144.5110 x 162.4620 bohr.
FD multigrid is     553 x 569 x 633 gridpoints, 139.0173 x 143.7531 x 160.6851 bohr.


Calculating local pseudopotential in open BC on a radial grid ...
Discrepancy between calculated realspace psloc and -Z/x on [5a0,259.028a0]:
max |rel. diff| # avg |rel. diff| #  avg rel. diff #  f # pseudopotential file
 0.000261578119    0.000004844123   0.000000072210   55  'N_00.recpot'
 0.000419583258    0.000017514079  -0.000000069370   55  'H_04.recpot'
 0.000363553651    0.000016734795   0.000000141192   55  'C_01.recpot'
 0.000449990737    0.000019382085   0.000000449342   55  'S_00.recpot'
 0.000706973137    0.000028359832   0.000000146371   55  'O_02.recpot'
... done

Atom SCF Calculation for N  : Z (AE atom) =   7 : Z (PS atom) =   5
Config String:
Orbitals (num,occ):  2     2.00 3.00
Orbitals   (num,l):  2        0    1
Real-space Grid (nr,dr,rmax): 1203    0.0066555740    8.0000000000
Spherical Bessel Basis (nsws,lmax,cutoff):   47    1  176.3951722778
Confining potential (l,width,scale):  0    3.0000000000  100.0000000000
Confining potential (l,width,scale):  1    3.0000000000  100.0000000000
  1         -4.7312375307   -3.4155304497    7.0523828109   -1.9351020946
  2         -9.7309464766   -2.0532547791    8.2966052865   -2.2494486027
  3         -9.6627394379   -2.1124926340    8.2327997121   -2.2369778124
  4         -9.6814993499   -2.1215521045    8.2229805960   -2.2365178421
  5         -9.6843326483   -2.1250939529    8.2191374534   -2.2362718126
  6         -9.6859628709   -2.1267894855    8.2172963573   -2.2362066344
  7         -9.6867347035   -2.1276425665    8.2163697352   -2.2361903369
  8         -9.6870802100   -2.1280764625    8.2158983890   -2.2361891460
  9         -9.6872290423   -2.1282977424    8.2156580222   -2.2361920435
 10         -9.6872901988   -2.1284107021    8.2155353368   -2.2361953393
 11         -9.6873135296   -2.1284684031    8.2154726809   -2.2361979819
 12         -9.6873212476   -2.1284978948    8.2154406648   -2.2361998431
 13         -9.6873229586   -2.1285129774    8.2154242957   -2.2362010676
 14         -9.6873226456   -2.1285206957    8.2154159216   -2.2362018403
 15         -9.6873218534   -2.1285246479    8.2154116349   -2.2362023142
 16         -9.6873212599   -2.1285262679    8.2154098784   -2.2362025420
 17         -9.6873207834   -2.1285272564    8.2154088068   -2.2362026955
 18         -9.6873204210   -2.1285278597    8.2154081529   -2.2362027982
 19         -9.6873201550   -2.1285282280    8.2154077538   -2.2362028667
 20         -9.6873199645   -2.1285284529    8.2154075102   -2.2362029121
 21         -9.6873198305   -2.1285285903    8.2154073614   -2.2362029421
 22         -9.6873197377   -2.1285286742    8.2154072705   -2.2362029618
Atom SCF converged after  22 iterations to a total energy of     -9.68731974

Atom SCF Calculation for H  : Z (AE atom) =   1 : Z (PS atom) =   1
Config String:
Orbitals (num,occ):  1     1.00
Orbitals   (num,l):  1        0
Real-space Grid (nr,dr,rmax): 1203    0.0066555740    8.0000000000
Spherical Bessel Basis (nsws,lmax,cutoff):   47    0  176.3951722778
Confining potential (l,width,scale):  0    3.0000000000  100.0000000000
  1         -0.3194257691   -0.2393854593    0.2820953124   -0.2424203209
  2         -0.3951823392   -0.2377116493    0.2886404059   -0.2475147891
  3         -0.4317044583   -0.2352244387    0.2921333887   -0.2514046172
  4         -0.4470703708   -0.2341892222    0.2934391879   -0.2531009782
  5         -0.4532132900   -0.2338556667    0.2938388426   -0.2537313520
  6         -0.4556579251   -0.2337612552    0.2939448584   -0.2539550462
  7         -0.4566418315   -0.2337377355    0.2939680120   -0.2540342273
  8         -0.4570437922   -0.2337331116    0.2939708287   -0.2540627372
  9         -0.4572102946   -0.2337328328    0.2939698291   -0.2540732650
 10         -0.4572800424   -0.2337332404    0.2939687193   -0.2540772588
 11         -0.4573095100   -0.2337335791    0.2939680317   -0.2540788122
 12         -0.4573220379   -0.2337337762    0.2939676699   -0.2540794294
 13         -0.4573273880   -0.2337338775    0.2939674931   -0.2540796787
 14         -0.4573296803   -0.2337339266    0.2939674099   -0.2540797808
 15         -0.4573306647   -0.2337339495    0.2939673718   -0.2540798230
 16         -0.4573310882   -0.2337339601    0.2939673545   -0.2540798406
 17         -0.4573312706   -0.2337339649    0.2939673467   -0.2540798479
 18         -0.4573313493   -0.2337339670    0.2939673433   -0.2540798510
Atom SCF converged after  18 iterations to a total energy of     -0.45733135

Atom SCF Calculation for C  : Z (AE atom) =   6 : Z (PS atom) =   4
Config String:
Orbitals (num,occ):  2     2.00 2.00
Orbitals   (num,l):  2        0    1
Real-space Grid (nr,dr,rmax): 1203    0.0066555740    8.0000000000
Spherical Bessel Basis (nsws,lmax,cutoff):   47    1  176.3951722778
Confining potential (l,width,scale):  0    3.0000000000  100.0000000000
Confining potential (l,width,scale):  1    3.0000000000  100.0000000000
  1         -5.2976922011   -1.3069684169    4.5135249990   -1.4493313817
  2         -5.3721716256   -1.3429755895    4.4750154450   -1.4361613026
  3         -5.3809959565   -1.3617365618    4.4541655428   -1.4305930207
  4         -5.3918938866   -1.3667928461    4.4484735100   -1.4294652294
  5         -5.3956096428   -1.3688539142    4.4461376126   -1.4290734646
  6         -5.3968271862   -1.3696852393    4.4451910874   -1.4289366866
  7         -5.3972028401   -1.3700178062    4.4448112275   -1.4288900460
  8         -5.3973067903   -1.3701500158    4.4446598370   -1.4288749220
  9         -5.3973286940   -1.3702023868    4.4445997329   -1.4288704293
 10         -5.3973289850   -1.3702230869    4.4445759233   -1.4288693188
 11         -5.3973254264   -1.3702312560    4.4445665049   -1.4288691775
 12         -5.3973224003   -1.3702344755    4.4445627836   -1.4288692549
 13         -5.3973208708   -1.3702354890    4.4445616088   -1.4288693270
 14         -5.3973198783   -1.3702360102    4.4445610034   -1.4288693814
 15         -5.3973192535   -1.3702362780    4.4445606917   -1.4288694190
 16         -5.3973188684   -1.3702364155    4.4445605313   -1.4288694437
 17         -5.3973186349   -1.3702364860    4.4445604489   -1.4288694595
 18         -5.3973184951   -1.3702365221    4.4445604065   -1.4288694693
 19         -5.3973184122   -1.3702365405    4.4445603848   -1.4288694753
Atom SCF converged after  19 iterations to a total energy of     -5.39731841

Atom SCF Calculation for S  : Z (AE atom) =  16 : Z (PS atom) =   6
Config String:
Orbitals (num,occ):  3     2.00 4.00 0.00
Orbitals   (num,l):  3        0    1    2
Real-space Grid (nr,dr,rmax): 1203    0.0066555740    8.0000000000
Spherical Bessel Basis (nsws,lmax,cutoff):   47    2  176.3951722778
Confining potential (l,width,scale):  0    3.0000000000  100.0000000000
Confining potential (l,width,scale):  1    3.0000000000  100.0000000000
Confining potential (l,width,scale):  2    3.0000000000  100.0000000000
  1        -12.4735062396   -1.0328741412   10.1554312477   -2.4512393157
  2         -9.9458301913   -2.4607392455    8.3041325857   -2.0306994528
  3        -10.1450417646   -2.2931184565    8.4831893826   -2.0812538287
  4        -10.1528335592   -2.2733105793    8.5050388867   -2.0896035179
  5        -10.1571940363   -2.2633716629    8.5160794258   -2.0939370707
  6        -10.1594380571   -2.2584938667    8.5215163935   -2.0961289008
  7        -10.1605856507   -2.2561081821    8.5241804044   -2.0972291378
  8        -10.1611799191   -2.2549395235    8.5254868240   -2.0977806248
  9        -10.1614918752   -2.2543658586    8.5261285885   -2.0980571586
 10        -10.1616572884   -2.2540839121    8.5264441898   -2.0981959233
 11        -10.1617455602   -2.2539453058    8.5265994231   -2.0982656006
 12        -10.1617928447   -2.2538772062    8.5266757320   -2.0983006047
 13        -10.1618182292   -2.2538437891    8.5267131983   -2.0983181961
 14        -10.1618318741   -2.2538274201    8.5267315620   -2.0983270391
 15        -10.1618392144   -2.2538194197    8.5267405433   -2.0983314852
 16        -10.1618431651   -2.2538155200    8.5267449245   -2.0983337210
 17        -10.1618452923   -2.2538136252    8.5267470551   -2.0983348455
 18        -10.1618464380   -2.2538127080    8.5267480875   -2.0983354110
 19        -10.1618470552   -2.2538122659    8.5267485856   -2.0983356955
 20        -10.1618473878   -2.2538120540    8.5267488248   -2.0983358386
 21        -10.1618475670   -2.2538119530    8.5267489389   -2.0983359106
 22        -10.1618476637   -2.2538119053    8.5267489929   -2.0983359468
Atom SCF converged after  22 iterations to a total energy of    -10.16184766

Atom SCF Calculation for O  : Z (AE atom) =   8 : Z (PS atom) =   6
Config String:
Orbitals (num,occ):  2     2.00 4.00
Orbitals   (num,l):  2        0    1
Real-space Grid (nr,dr,rmax): 1203    0.0066555740    8.0000000000
Spherical Bessel Basis (nsws,lmax,cutoff):   47    1  176.3951722778
Confining potential (l,width,scale):  0    3.0000000000  100.0000000000
Confining potential (l,width,scale):  1    3.0000000000  100.0000000000
  1         -1.8735052164   -7.5539365035   10.1554312477   -2.4512393157
  2        -16.0318313751   -3.1285771268   13.6395848164   -3.2358799643
  3        -15.9524020423   -3.0762819706   13.6967272503   -3.2536856837
  4        -15.8521515939   -3.0781493909   13.6951909330   -3.2561700440
  5        -15.8357139793   -3.0748501933   13.6988803334   -3.2580493133
  6        -15.8246052853   -3.0740779781   13.6997881576   -3.2588327446
  7        -15.8189019501   -3.0737449687   13.7001869911   -3.2592378801
  8        -15.8159785510   -3.0736026016   13.7003615168   -3.2594475790
  9        -15.8144776168   -3.0735437994   13.7004360379   -3.2595560735
 10        -15.8137058024   -3.0735207882   13.7004667348   -3.2596122456
 11        -15.8133083127   -3.0735125946   13.7004786868   -3.2596413656
 12        -15.8131032938   -3.0735102195   13.7004828997   -3.2596564858
 13        -15.8129973902   -3.0735099286   13.7004840891   -3.2596643505
 14        -15.8129426040   -3.0735102506   13.7004842061   -3.2596684489
 15        -15.8129142203   -3.0735106556   13.7004840157   -3.2596705887
 16        -15.8128994940   -3.0735109855   13.7004837906   -3.2596717080
 17        -15.8128918425   -3.0735112169   13.7004836103   -3.2596722946
 18        -15.8128878614   -3.0735113674   13.7004834848   -3.2596726026
 19        -15.8128857871   -3.0735114608   13.7004834035   -3.2596727646
 20        -15.8128847048   -3.0735115170   13.7004833533   -3.2596728500
 21        -15.8128841394   -3.0735115501   13.7004833231   -3.2596728951
 22        -15.8128838436   -3.0735115693   13.7004833054   -3.2596729190
 23        -15.8128836887   -3.0735115802   13.7004832951   -3.2596729316
 24        -15.8128836074   -3.0735115864   13.7004832893   -3.2596729383
Atom SCF converged after  24 iterations to a total energy of    -15.81288361

========================== Calculation in vacuum ==============================
= Adjusting the following parameters: 
= is_implicit_solvent: F
= is_include_apolar: F
= write_denskern: T
= write_tightbox_ngwfs: T
= restart read filename prefix: ""
= restart write filename prefix: "vacuum_"
===============================================================================

Determining parallel strategy ...
... using space-filling curve
... NGWF load balancing: max    163;  min    162;  average    163
... Projector load balancing: max     36;  min     32;  average     33
... done
Calculating direct Ion-Ion energy ...
Ion-Ion Energy        :    829595.58323030825704
======================= Empirical dispersion information =======================
Model : Elstner
Dispersion Correction Energy: -0.32728525E+01 Hartree
================================================================================
Basis initialisation ...... NGWF spheres initialised
... Projector spheres initialised
... NGWF tight boxes initialised
... Tight-boxes gathered
... NGWF basis size (local,global):    1272121  50630163
... Nonlocal pseudopotential projector initialisation
... done

========================== Sparse matrix information ===========================
                        Overlap matrix filling:   6.78%
                        Density kernel filling: 100.00%
              NGWF-Proj overlap matrix filling:   1.78%
                    Hamiltonian matrix filling:   7.66%
                  NGWF diagonal matrix filling:   0.05%
                             KS matrix filling: 100.00% 
                           KSKS matrix filling: 100.00% 
================================================================================

Sparse matrix initialisation ... done

Generating smeared ion density ... done
Smeared ion self correction:     -14457.169564
Smeared ion non-self correction: -829547.451880
NGWF initialisation ...... done
============ Calculation of NGWF S^-1 using Hotelling algorithm ================ 
         Iteration  |  Frobenius norm and Maximum abs value    (of I-S*S_n^-1)   
               1       0.78422370E+02     0.98209785E+00
               2       0.76530601E+02     0.96465949E+00
               3       0.73482267E+02     0.93109585E+00
               4       0.69174387E+02     0.86875024E+00
               5       0.63833161E+02     0.76262954E+00
               6       0.57853042E+02     0.70386734E+00
               7       0.51868374E+02     0.66950984E+00
               8       0.46333726E+02     0.64063930E+00
               9       0.40211862E+02     0.59927718E+00
              10       0.31845357E+02     0.52720780E+00
              11       0.21219115E+02     0.42416359E+00
              12       0.10697510E+02     0.28404193E+00
              13       0.34522622E+01     0.13028907E+00
              14       0.53319792E+00     0.41231299E-01
              15       0.27796364E-01     0.47697989E-02
              16       0.25559251E-03     0.66325910E-04
              17       0.43017124E-07     0.12886587E-07
              18       0.90010628E-13     0.48849813E-14
================================================================================
Calculating local pseudopotential in open BC on the fine real space grid ...
... done

MG BCs: +ve charge blocks (gridpoints):     20213 (   15909733).
MG BCs: -ve charge blocks (gridpoints):      7967 (    1073763).
MG BCs:     Elided blocks (gridpoints):    184075 (  182194385).
MG BCs: Computational effort saved:  99.9859%.
MG BCs: Charge after coarse-graining:           -9.0002219.
MG DL_MG: Calling solver with defect correction order = 8
MG DL_MG: Solver finished
MG Hartree energy from (\int phi*rho dr):              1462.599617
MG Hartree energy from (\int eps (grad phi)^2 dr):     1461.986885
MG Discrepancy due to finite box and discretization:     -0.612733 (  -0.04189%)
MG Correction to account for finite box:                  0.458732
MG Remaining discrepancy, due to discretization:         -0.154000 (  -0.01053%)
Up spin density kernel initialisation ... 
======= Optimisation of K by Palser-Manolopoulos canonical purification ======== 
         Iteration  |  Band structure energy |    c_n   
               1       -2591.06492195545479    0.5261693
               2       -2766.82887726638592    0.5165955
               3       -2946.20311966812142    0.5153795
               4       -3094.97167747466483    0.5293941
               5       -3185.55133274051423    0.5658208
               6       -3223.03924779469889    0.6102801
               7       -3235.79001828055880    0.6218135
               8       -3241.35183747287283    0.6223643
               9       -3244.02569531997233    0.6383282
              10       -3245.13131848890453    0.6602247
              11       -3245.57602369254619    0.6726074
              12       -3245.77519431813425    0.6633737
              13       -3245.87888222131096    0.6266944
              14       -3245.93904699693849    0.5844575
              15       -3245.96976718040332    0.5732326
              16       -3245.98056243451720    0.5867149
              17       -3245.98390399380514    0.5582540
              18       -3245.98541321460925    0.5185617
              19       -3245.98600221429933    0.5019965
              20       -3245.98609399225916    0.5000237
              21       -3245.98609634856894    0.5000011
              22       -3245.98609635038201    0.5000011
Termination criterion satisfied: band energy change below threshold.
Final occupancy bounds: [   -0.00000000000000:    1.00000000000000]
Closest occupancy to 0.5:     1.00000000000000
================================================================================
... done

Writing density kernel to file "host_3901.vacuum_dkn" ... done

>>> Optimising kernel for current NGWFs:
   Initial electron number for spin 1:    7192.00000000
     Final electron number for spin 1:    7192.00000000

=================== Penalty functional idempotency correction ==================
 RMS occupancy error at iteration   1:  0.000000 (step -0.5000 Ne1=   7192.0000)
            Final RMS occupancy error   :  0.000000 (Ne1=   7192.0000)
               Final occupancy bounds   : [  0.0000,  1.0000]
================================================================================

................................................................................
<<<<<<<<<<<<<< LNV (Original version) density kernel optimisation >>>>>>>>>>>>>>
~~~~~~~~~~~~~~~~~~~~~~~~~~~~~~~~~~~~~~~~~~~~~~~~~~~~~~~~~~~~~~~~~~~~~~~~~~~~~~~~
   iter  |      energy (Eh)       | rms gradient |  commutator  |   dE (Eh)
MG BCs: +ve charge blocks (gridpoints):     30655 (   17049835).
MG BCs: -ve charge blocks (gridpoints):      8311 (    1107000).
MG BCs:     Elided blocks (gridpoints):    173627 (  181021046).
MG BCs: Computational effort saved:  99.9804%.
MG BCs: Charge after coarse-graining:           -9.0009321.
MG DL_MG: Calling solver with defect correction order = 8
MG DL_MG: Solver finished
MG Hartree energy from (\int phi*rho dr):              1418.332995
MG Hartree energy from (\int eps (grad phi)^2 dr):     1417.664189
MG Discrepancy due to finite box and discretization:     -0.668806 (  -0.04715%)
MG Correction to account for finite box:                  0.471405
MG Remaining discrepancy, due to discretization:         -0.197401 (  -0.01392%)
      ideal mu1:      -0.696843494872
             Q0:  -11505.844088650541
             G0:    -144.404658376850
   RMS gradient:       0.001847324971
MG BCs: +ve charge blocks (gridpoints):     30633 (   17130515).
MG BCs: -ve charge blocks (gridpoints):      8201 (    1086260).
MG BCs:     Elided blocks (gridpoints):    173644 (  180961106).
MG BCs: Computational effort saved:  99.9805%.
MG BCs: Charge after coarse-graining:           -9.0009541.
MG DL_MG: Calling solver with defect correction order = 8
MG DL_MG: Solver finished
MG Hartree energy from (\int phi*rho dr):              1443.476338
MG Hartree energy from (\int eps (grad phi)^2 dr):     1442.823841
MG Discrepancy due to finite box and discretization:     -0.652497 (  -0.04520%)
MG Correction to account for finite box:                  0.471035
MG Remaining discrepancy, due to discretization:         -0.181462 (  -0.01257%)
     Trial step:       0.500000000000
             Q1:  -11517.335221521906
 Quadratic coef:      60.711196317061
 Linear coef   :     -72.202329188425
           Qmin:  -11527.311201211658
Quadratic minimum step length (  0.297318837251) accepted
    Initial Ne1:    7192.00000000
      Final Ne1:    7192.00000000

=================== Penalty functional idempotency correction ==================
 RMS occupancy error at iteration   1:  0.003399 (step -0.4885 Ne1=   7192.0000)
 RMS occupancy error at iteration   2:  0.000027 (step -0.5001 Ne1=   7192.0000)
            Final RMS occupancy error   :  0.000000 (Ne1=   7192.0000)
               Final occupancy bounds   : [  0.0000,  1.0000]
================================================================================

    1        -1.150584408865E+04     1.8473E-03     1.6709E-03
MG BCs: +ve charge blocks (gridpoints):     30641 (   17099422).
MG BCs: -ve charge blocks (gridpoints):      8250 (    1094924).
MG BCs:     Elided blocks (gridpoints):    173637 (  180983535).
MG BCs: Computational effort saved:  99.9805%.
MG BCs: Charge after coarse-graining:           -9.0009451.
MG DL_MG: Calling solver with defect correction order = 8
MG DL_MG: Solver finished
MG Hartree energy from (\int phi*rho dr):              1425.381909
MG Hartree energy from (\int eps (grad phi)^2 dr):     1424.723723
MG Discrepancy due to finite box and discretization:     -0.658186 (  -0.04618%)
MG Correction to account for finite box:                  0.471104
MG Remaining discrepancy, due to discretization:         -0.187082 (  -0.01313%)
      ideal mu1:      -0.742020998030
             Q0:  -11527.709052312304
             G0:     -12.178796603980
   RMS gradient:       0.000532886253
MG BCs: +ve charge blocks (gridpoints):     30635 (   17115705).
MG BCs: -ve charge blocks (gridpoints):      8220 (    1089782).
MG BCs:     Elided blocks (gridpoints):    173643 (  180972394).
MG BCs: Computational effort saved:  99.9805%.
MG BCs: Charge after coarse-graining:           -9.0009489.
MG DL_MG: Calling solver with defect correction order = 8
MG DL_MG: Solver finished
MG Hartree energy from (\int phi*rho dr):              1430.458557
MG Hartree energy from (\int eps (grad phi)^2 dr):     1429.804442
MG Discrepancy due to finite box and discretization:     -0.654115 (  -0.04573%)
MG Correction to account for finite box:                  0.470274
MG Remaining discrepancy, due to discretization:         -0.183841 (  -0.01285%)
     Trial step:       0.385563767262
             Q1:  -11530.566641259706
 Quadratic coef:       1.838113751950
 Linear coef   :      -4.695702699352
           Qmin:  -11530.707999441842
Quadratic minimum step length (  0.492486610468) accepted
    Initial Ne1:    7191.99989850
      Final Ne1:    7192.00000000

=================== Penalty functional idempotency correction ==================
 RMS occupancy error at iteration   1:  0.001823 (step -0.4929 Ne1=   7192.0000)
 RMS occupancy error at iteration   2:  0.000012 (step -0.5002 Ne1=   7192.0000)
            Final RMS occupancy error   :  0.000000 (Ne1=   7192.0000)
               Final occupancy bounds   : [  0.0000,  1.0000]
================================================================================

    2        -1.152770905231E+04     5.3289E-04     4.8198E-04    -2.1865E+01
MG BCs: +ve charge blocks (gridpoints):     30634 (   17120271).
MG BCs: -ve charge blocks (gridpoints):      8213 (    1088283).
MG BCs:     Elided blocks (gridpoints):    173644 (  180969327).
MG BCs: Computational effort saved:  99.9805%.
MG BCs: Charge after coarse-graining:           -9.0009501.
MG DL_MG: Calling solver with defect correction order = 8
MG DL_MG: Solver finished
MG Hartree energy from (\int phi*rho dr):              1431.915384
MG Hartree energy from (\int eps (grad phi)^2 dr):     1431.262324
MG Discrepancy due to finite box and discretization:     -0.653061 (  -0.04561%)
MG Correction to account for finite box:                  0.470054
MG Remaining discrepancy, due to discretization:         -0.183006 (  -0.01278%)
      ideal mu1:      -0.767679901770
             Q0:  -11530.745284087490
             G0:      -1.977752545624
   RMS gradient:       0.000214814511
MG BCs: +ve charge blocks (gridpoints):     30635 (   17119423).
MG BCs: -ve charge blocks (gridpoints):      8218 (    1089284).
MG BCs:     Elided blocks (gridpoints):    173643 (  180969174).
MG BCs: Computational effort saved:  99.9805%.
MG BCs: Charge after coarse-graining:           -9.0009496.
MG DL_MG: Calling solver with defect correction order = 8
MG DL_MG: Solver finished
MG Hartree energy from (\int phi*rho dr):              1429.666432
MG Hartree energy from (\int eps (grad phi)^2 dr):     1429.014001
MG Discrepancy due to finite box and discretization:     -0.652431 (  -0.04564%)
MG Correction to account for finite box:                  0.469644
MG Remaining discrepancy, due to discretization:         -0.182787 (  -0.01279%)
     Trial step:       0.435757952146
             Q1:  -11531.255414558691
 Quadratic coef:       0.351690927931
 Linear coef   :      -0.861821399133
           Qmin:  -11531.273259125383
Quadratic minimum step length (  0.533914153274) accepted
    Initial Ne1:    7191.99992592
      Final Ne1:    7192.00000000

=================== Penalty functional idempotency correction ==================
 RMS occupancy error at iteration   1:  0.000679 (step -0.4962 Ne1=   7192.0000)
 RMS occupancy error at iteration   2:  0.000005 (step -0.5003 Ne1=   7192.0000)
            Final RMS occupancy error   :  0.000000 (Ne1=   7192.0000)
               Final occupancy bounds   : [  0.0000,  1.0000]
================================================================================

    3        -1.153074528409E+04     2.1481E-04     1.9429E-04    -3.0362E+00
MG BCs: +ve charge blocks (gridpoints):     30634 (   17119294).
MG BCs: -ve charge blocks (gridpoints):      8216 (    1089490).
MG BCs:     Elided blocks (gridpoints):    173644 (  180969097).
MG BCs: Computational effort saved:  99.9805%.
MG BCs: Charge after coarse-graining:           -9.0009495.
MG DL_MG: Calling solver with defect correction order = 8
MG DL_MG: Solver finished
MG Hartree energy from (\int phi*rho dr):              1429.169982
MG Hartree energy from (\int eps (grad phi)^2 dr):     1428.517680
MG Discrepancy due to finite box and discretization:     -0.652302 (  -0.04564%)
MG Correction to account for finite box:                  0.469553
MG Remaining discrepancy, due to discretization:         -0.182749 (  -0.01279%)
      ideal mu1:      -0.768691450538
             Q0:  -11531.278255597223
             G0:      -0.560167512401
   RMS gradient:       0.000114468506
MG BCs: +ve charge blocks (gridpoints):     30634 (   17119991).
MG BCs: -ve charge blocks (gridpoints):      8216 (    1089331).
MG BCs:     Elided blocks (gridpoints):    173645 (  180968559).
MG BCs: Computational effort saved:  99.9805%.
MG BCs: Charge after coarse-graining:           -9.0009499.
MG DL_MG: Calling solver with defect correction order = 8
MG DL_MG: Solver finished
MG Hartree energy from (\int phi*rho dr):              1430.436329
MG Hartree energy from (\int eps (grad phi)^2 dr):     1429.784186
MG Discrepancy due to finite box and discretization:     -0.652143 (  -0.04559%)
MG Correction to account for finite box:                  0.469293
MG Remaining discrepancy, due to discretization:         -0.182850 (  -0.01278%)
     Trial step:       0.482345662417
             Q1:  -11531.428103723796
 Quadratic coef:       0.120346243260
 Linear coef   :      -0.270194369833
           Qmin:  -11531.429911759293
Quadratic minimum step length (  0.541467181558) accepted
    Initial Ne1:    7191.99994911
      Final Ne1:    7192.00000000

=================== Penalty functional idempotency correction ==================
 RMS occupancy error at iteration   1:  0.000430 (step -0.4875 Ne1=   7192.0000)
 RMS occupancy error at iteration   2:  0.000009 (step -0.5003 Ne1=   7192.0000)
            Final RMS occupancy error   :  0.000000 (Ne1=   7192.0000)
               Final occupancy bounds   : [  0.0000,  1.0000]
================================================================================

    4        -1.153127825560E+04     1.1447E-04     1.0353E-04    -5.3297E-01
MG BCs: +ve charge blocks (gridpoints):     30634 (   17120092).
MG BCs: -ve charge blocks (gridpoints):      8215 (    1089310).
MG BCs:     Elided blocks (gridpoints):    173645 (  180968479).
MG BCs: Computational effort saved:  99.9805%.
MG BCs: Charge after coarse-graining:           -9.0009499.
MG DL_MG: Calling solver with defect correction order = 8
MG DL_MG: Solver finished
MG Hartree energy from (\int phi*rho dr):              1430.592667
MG Hartree energy from (\int eps (grad phi)^2 dr):     1429.940542
MG Discrepancy due to finite box and discretization:     -0.652125 (  -0.04558%)
MG Correction to account for finite box:                  0.469262
MG Remaining discrepancy, due to discretization:         -0.182864 (  -0.01278%)
      ideal mu1:      -0.768985950674
             Q0:  -11531.430396913551
             G0:      -0.298732190872
   RMS gradient:       0.000083963032
MG BCs: +ve charge blocks (gridpoints):     30632 (   17120570).
MG BCs: -ve charge blocks (gridpoints):      8212 (    1089024).
MG BCs:     Elided blocks (gridpoints):    173648 (  180968287).
MG BCs: Computational effort saved:  99.9805%.
MG BCs: Charge after coarse-graining:           -9.0009498.
MG DL_MG: Calling solver with defect correction order = 8
MG DL_MG: Solver finished
MG Hartree energy from (\int phi*rho dr):              1431.109473
MG Hartree energy from (\int eps (grad phi)^2 dr):     1430.457256
MG Discrepancy due to finite box and discretization:     -0.652217 (  -0.04557%)
MG Correction to account for finite box:                  0.469175
MG Remaining discrepancy, due to discretization:         -0.183042 (  -0.01279%)
     Trial step:       0.511052195344
             Q1:  -11531.541173620033
 Quadratic coef:       0.041891035484
 Linear coef   :      -0.152667741965
           Qmin:  -11531.569492540859
Quadratic minimum step length (  0.931239629058) accepted
    Initial Ne1:    7191.99983485
      Final Ne1:    7192.00000000

=================== Penalty functional idempotency correction ==================
 RMS occupancy error at iteration   1:  0.001977 (step -0.3952 Ne1=   7192.0000)
 RMS occupancy error at iteration   2:  0.000121 (step -0.4975 Ne1=   7192.0000)
 RMS occupancy error at iteration   3:  0.000001 (step -0.5000 Ne1=   7192.0000)
            Final RMS occupancy error   :  0.000000 (Ne1=   7192.0000)
               Final occupancy bounds   : [  0.0000,  1.0000]
================================================================================

    5        -1.153143039691E+04     8.3963E-05     7.5943E-05    -1.5214E-01
MG BCs: +ve charge blocks (gridpoints):     30630 (   17120980).
MG BCs: -ve charge blocks (gridpoints):      8209 (    1088734).
MG BCs:     Elided blocks (gridpoints):    173650 (  180968167).
MG BCs: Computational effort saved:  99.9805%.
MG BCs: Charge after coarse-graining:           -9.0009497.
MG DL_MG: Calling solver with defect correction order = 8
MG DL_MG: Solver finished
MG Hartree energy from (\int phi*rho dr):              1431.540653
MG Hartree energy from (\int eps (grad phi)^2 dr):     1430.888346
MG Discrepancy due to finite box and discretization:     -0.652307 (  -0.04557%)
MG Correction to account for finite box:                  0.469116
MG Remaining discrepancy, due to discretization:         -0.183190 (  -0.01280%)
      ideal mu1:      -0.768704526400
             Q0:  -11531.552823453792
             G0:      -0.423123449493
   RMS gradient:       0.000108046529
MG BCs: +ve charge blocks (gridpoints):     30632 (   17120028).
MG BCs: -ve charge blocks (gridpoints):      8216 (    1089395).
MG BCs:     Elided blocks (gridpoints):    173648 (  180968458).
MG BCs: Computational effort saved:  99.9805%.
MG BCs: Charge after coarse-graining:           -9.0009495.
MG DL_MG: Calling solver with defect correction order = 8
MG DL_MG: Solver finished
MG Hartree energy from (\int phi*rho dr):              1429.350550
MG Hartree energy from (\int eps (grad phi)^2 dr):     1428.698340
MG Discrepancy due to finite box and discretization:     -0.652211 (  -0.04563%)
MG Correction to account for finite box:                  0.469020
MG Remaining discrepancy, due to discretization:         -0.183191 (  -0.01282%)
     Trial step:       0.689863795847
             Q1:  -11531.633574801264
 Quadratic coef:       0.211146201507
 Linear coef   :      -0.291897548979
           Qmin:  -11531.653706371046
Quadratic minimum step length (  0.476848623607) accepted
    Initial Ne1:    7191.99985989
      Final Ne1:    7192.00000000

=================== Penalty functional idempotency correction ==================
 RMS occupancy error at iteration   1:  0.004505 (step -0.3092 Ne1=   7192.0000)
 RMS occupancy error at iteration   2:  0.000390 (step -0.4820 Ne1=   7192.0000)
 RMS occupancy error at iteration   3:  0.000011 (step -0.5004 Ne1=   7192.0000)
            Final RMS occupancy error   :  0.000000 (Ne1=   7192.0000)
               Final occupancy bounds   : [  0.0000,  1.0000]
================================================================================

    6        -1.153155282345E+04     1.0805E-04     9.7726E-05    -1.2243E-01
MG BCs: +ve charge blocks (gridpoints):     30633 (   17120280).
MG BCs: -ve charge blocks (gridpoints):      8215 (    1089240).
MG BCs:     Elided blocks (gridpoints):    173647 (  180968361).
MG BCs: Computational effort saved:  99.9805%.
MG BCs: Charge after coarse-graining:           -9.0009495.
MG DL_MG: Calling solver with defect correction order = 8
MG DL_MG: Solver finished
MG Hartree energy from (\int phi*rho dr):              1430.029373
MG Hartree energy from (\int eps (grad phi)^2 dr):     1429.377091
MG Discrepancy due to finite box and discretization:     -0.652282 (  -0.04561%)
MG Correction to account for finite box:                  0.469095
MG Remaining discrepancy, due to discretization:         -0.183187 (  -0.01281%)
      ideal mu1:      -0.768012738839
             Q0:  -11531.655369466636
             G0:      -0.474983798292
   RMS gradient:       0.000105947838
MG BCs: +ve charge blocks (gridpoints):     30632 (   17120113).
MG BCs: -ve charge blocks (gridpoints):      8216 (    1089453).
MG BCs:     Elided blocks (gridpoints):    173648 (  180968315).
MG BCs: Computational effort saved:  99.9805%.
MG BCs: Charge after coarse-graining:           -9.0009497.
MG DL_MG: Calling solver with defect correction order = 8
MG DL_MG: Solver finished
MG Hartree energy from (\int phi*rho dr):              1429.479001
MG Hartree energy from (\int eps (grad phi)^2 dr):     1428.826964
MG Discrepancy due to finite box and discretization:     -0.652036 (  -0.04561%)
MG Correction to account for finite box:                  0.469198
MG Remaining discrepancy, due to discretization:         -0.182839 (  -0.01279%)
     Trial step:       0.573550870914
             Q1:  -11531.804412201745
 Quadratic coef:       0.123384636072
 Linear coef   :      -0.272427371180
           Qmin:  -11531.805746115891
Quadratic minimum step length (  0.633186436236) accepted
    Initial Ne1:    7191.99990121
      Final Ne1:    7192.00000000

=================== Penalty functional idempotency correction ==================
 RMS occupancy error at iteration   1:  0.000237 (step -0.4847 Ne1=   7192.0000)
 RMS occupancy error at iteration   2:  0.000002 (step -0.5000 Ne1=   7192.0000)
            Final RMS occupancy error   :  0.000000 (Ne1=   7192.0000)
               Final occupancy bounds   : [  0.0000,  1.0000]
================================================================================

    7        -1.153165536947E+04     1.0595E-04     9.5827E-05    -1.0255E-01
MG BCs: +ve charge blocks (gridpoints):     30633 (   17120088).
MG BCs: -ve charge blocks (gridpoints):      8217 (    1089470).
MG BCs:     Elided blocks (gridpoints):    173647 (  180968323).
MG BCs: Computational effort saved:  99.9805%.
MG BCs: Charge after coarse-graining:           -9.0009498.
MG DL_MG: Calling solver with defect correction order = 8
MG DL_MG: Solver finished
MG Hartree energy from (\int phi*rho dr):              1429.423396
MG Hartree energy from (\int eps (grad phi)^2 dr):     1428.771383
MG Discrepancy due to finite box and discretization:     -0.652012 (  -0.04561%)
MG Correction to account for finite box:                  0.469209
MG Remaining discrepancy, due to discretization:         -0.182803 (  -0.01279%)
      ideal mu1:      -0.768627572052
             Q0:  -11531.805695808260
             G0:      -0.292313478592
   RMS gradient:       0.000083183236
MG BCs: +ve charge blocks (gridpoints):     30633 (   17120603).
MG BCs: -ve charge blocks (gridpoints):      8218 (    1088985).
MG BCs:     Elided blocks (gridpoints):    173645 (  180968293).
MG BCs: Computational effort saved:  99.9805%.
MG BCs: Charge after coarse-graining:           -9.0009499.
MG DL_MG: Calling solver with defect correction order = 8
MG DL_MG: Solver finished
MG Hartree energy from (\int phi*rho dr):              1430.173830
MG Hartree energy from (\int eps (grad phi)^2 dr):     1429.521582
MG Discrepancy due to finite box and discretization:     -0.652249 (  -0.04561%)
MG Correction to account for finite box:                  0.469534
MG Remaining discrepancy, due to discretization:         -0.182715 (  -0.01278%)
     Trial step:       0.602631422973
             Q1:  -11531.898148165434
 Quadratic coef:       0.083704930385
 Linear coef   :      -0.176157287558
           Qmin:  -11531.898376698791
Quadratic minimum step length (  0.634119856383) accepted
    Initial Ne1:    7191.99993831
      Final Ne1:    7192.00000000

=================== Penalty functional idempotency correction ==================
 RMS occupancy error at iteration   1:  0.000783 (step -0.4538 Ne1=   7192.0000)
 RMS occupancy error at iteration   2:  0.000021 (step -0.4995 Ne1=   7192.0000)
            Final RMS occupancy error   :  0.000000 (Ne1=   7192.0000)
               Final occupancy bounds   : [ -0.0000,  1.0000]
================================================================================

    8        -1.153180569581E+04     8.3183E-05     7.5237E-05    -1.5033E-01
MG BCs: +ve charge blocks (gridpoints):     30633 (   17120629).
MG BCs: -ve charge blocks (gridpoints):      8218 (    1088960).
MG BCs:     Elided blocks (gridpoints):    173645 (  180968292).
MG BCs: Computational effort saved:  99.9805%.
MG BCs: Charge after coarse-graining:           -9.0009499.
MG DL_MG: Calling solver with defect correction order = 8
MG DL_MG: Solver finished
MG Hartree energy from (\int phi*rho dr):              1430.214205
MG Hartree energy from (\int eps (grad phi)^2 dr):     1429.561944
MG Discrepancy due to finite box and discretization:     -0.652261 (  -0.04561%)
MG Correction to account for finite box:                  0.469550
MG Remaining discrepancy, due to discretization:         -0.182711 (  -0.01278%)
      ideal mu1:      -0.768655648488
             Q0:  -11531.899140635389
             G0:      -0.156000342918
   RMS gradient:       0.000060282329
MG BCs: +ve charge blocks (gridpoints):     30632 (   17120629).
MG BCs: -ve charge blocks (gridpoints):      8217 (    1088983).
MG BCs:     Elided blocks (gridpoints):    173646 (  180968269).
MG BCs: Computational effort saved:  99.9805%.
MG BCs: Charge after coarse-graining:           -9.0009498.
MG DL_MG: Calling solver with defect correction order = 8
MG DL_MG: Solver finished
MG Hartree energy from (\int phi*rho dr):              1430.418150
MG Hartree energy from (\int eps (grad phi)^2 dr):     1429.765604
MG Discrepancy due to finite box and discretization:     -0.652546 (  -0.04562%)
MG Correction to account for finite box:                  0.469805
MG Remaining discrepancy, due to discretization:         -0.182741 (  -0.01278%)
     Trial step:       0.618175178560
             Q1:  -11531.950832031667
 Quadratic coef:       0.044744143561
 Linear coef   :      -0.096435539839
           Qmin:  -11531.951101700033
Quadratic minimum step length (  0.666166031072) accepted
    Initial Ne1:    7192.00009091
      Final Ne1:    7192.00000000

=================== Penalty functional idempotency correction ==================
 RMS occupancy error at iteration   1:  0.001098 (step -0.4420 Ne1=   7192.0000)
 RMS occupancy error at iteration   2:  0.000026 (step -0.4997 Ne1=   7192.0000)
            Final RMS occupancy error   :  0.000000 (Ne1=   7192.0000)
               Final occupancy bounds   : [ -0.0000,  1.0000]
================================================================================

    9        -1.153189914064E+04     6.0282E-05     5.4524E-05    -9.3445E-02
MG BCs: +ve charge blocks (gridpoints):     30631 (   17120633).
MG BCs: -ve charge blocks (gridpoints):      8216 (    1088984).
MG BCs:     Elided blocks (gridpoints):    173647 (  180968264).
MG BCs: Computational effort saved:  99.9805%.
MG BCs: Charge after coarse-graining:           -9.0009498.
MG DL_MG: Calling solver with defect correction order = 8
MG DL_MG: Solver finished
MG Hartree energy from (\int phi*rho dr):              1430.435092
MG Hartree energy from (\int eps (grad phi)^2 dr):     1429.782524
MG Discrepancy due to finite box and discretization:     -0.652568 (  -0.04562%)
MG Correction to account for finite box:                  0.469825
MG Remaining discrepancy, due to discretization:         -0.182743 (  -0.01278%)
      ideal mu1:      -0.767913272622
   10        -1.153195229877E+04     4.6848E-05     4.2373E-05    -5.3158E-02
Finished density kernel iterations (  10)

Writing density kernel to file "host_3901.vacuum_dkn" ... done


>>> Density kernel optimised for the current NGWF basis:
     ~~~~~~~~~~~~~~~~~~~~~~~~~~~~~~~~~~~~~~~~~~~~~~~~~~~~~~~~~~~
     Total energy                =  -1.15319522987719E+04  Eh
     Estimated bandgap           =  -4.6853E-01  Eh
     RMS occupancy error         =   4.4665E-08
     [H,K] commutator            =   4.2373E-05
     Occupancy bounds            = [ -0.000:  1.000]
     ~~~~~~~~~~~~~~~~~~~~~~~~~~~~~~~~~~~~~~~~~~~~~~~~~~~~~~~~~~~




################################################################################
########################### NGWF CG iteration  001 #############################
################################################################################
****** Reciprocal space K.E. preconditioning with k_zero =  3.5000 a0^-1 *******

>>> Checking for convergence of NGWFs:   NOT CONVERGED
  ========================================================================
         NGWF RMS gradient =  1.6027E-03 >  2.0000E-06  | above tolerance
  ========================================================================

>>> Improving NGWFs using line search:
============ Calculation of NGWF S^-1 using Hotelling algorithm ================ 
         Iteration  |  Frobenius norm and Maximum abs value    (of I-S*S_n^-1)   
               1       0.19826154E+00     0.51919854E-02
               2       0.91791645E-03     0.40230079E-04
               3       0.34214149E-07     0.27010413E-08
               4       0.12819052E-12     0.85487173E-14
================================================================================
MG BCs: +ve charge blocks (gridpoints):     30213 (   17069970).
MG BCs: -ve charge blocks (gridpoints):      8219 (    1089079).
MG BCs:     Elided blocks (gridpoints):    174070 (  181018832).
MG BCs: Computational effort saved:  99.9807%.
MG BCs: Charge after coarse-graining:           -9.0009505.
MG DL_MG: Calling solver with defect correction order = 8
MG DL_MG: Solver finished
MG Hartree energy from (\int phi*rho dr):              1398.522080
MG Hartree energy from (\int eps (grad phi)^2 dr):     1397.870358
MG Discrepancy due to finite box and discretization:     -0.651722 (  -0.04660%)
MG Correction to account for finite box:                  0.469749
MG Remaining discrepancy, due to discretization:         -0.181973 (  -0.01301%)
============ Calculation of NGWF S^-1 using Hotelling algorithm ================ 
         Iteration  |  Frobenius norm and Maximum abs value    (of I-S*S_n^-1)   
               1       0.18399832E+01     0.40877329E-01
               2       0.70605716E-01     0.23969644E-02
               3       0.14378010E-03     0.96756950E-05
               4       0.11681730E-08     0.16701707E-09
               5       0.10902222E-12     0.44408921E-14
================================================================================
------------------------------- NGWF line search -------------------------------
RMS gradient                =       0.00160267997669
Trial step length           =               0.122474
Gradient along search dir.  =       -277.83639135320
Functional at step 0        =  -11531.95229877193924
Functional at step 1        =  -11563.36276390554849
Functional predicted        =  -11642.54811487528241
Selected quadratic step     =               0.796122
--------------------------- NGWF line search finished --------------------------
                                               
Writing NGWFs to file "host_3901.vacuum_tightbox_ngwfs"....  done

>>> Optimising kernel for current NGWFs:
   Initial electron number for spin 1:    7226.48563850
     Final electron number for spin 1:    7192.00000000

=================== Penalty functional idempotency correction ==================
 RMS occupancy error at iteration   1:  0.004284 (step -0.4859 Ne1=   7192.0000)
 RMS occupancy error at iteration   2:  0.000071 (step -0.5003 Ne1=   7192.0000)
            Final RMS occupancy error   :  0.000000 (Ne1=   7192.0000)
               Final occupancy bounds   : [  0.0000,  1.0000]
================================================================================

................................................................................
<<<<<<<<<<<<<< LNV (Original version) density kernel optimisation >>>>>>>>>>>>>>
~~~~~~~~~~~~~~~~~~~~~~~~~~~~~~~~~~~~~~~~~~~~~~~~~~~~~~~~~~~~~~~~~~~~~~~~~~~~~~~~
   iter  |      energy (Eh)       | rms gradient |  commutator  |   dE (Eh)
MG BCs: +ve charge blocks (gridpoints):     24591 (   16785667).
MG BCs: -ve charge blocks (gridpoints):      8355 (    1072895).
MG BCs:     Elided blocks (gridpoints):    179697 (  181319319).
MG BCs: Computational effort saved:  99.9835%.
MG BCs: Charge after coarse-graining:           -9.0006594.
MG DL_MG: Calling solver with defect correction order = 8
MG DL_MG: Solver finished
MG Hartree energy from (\int phi*rho dr):              1245.005940
MG Hartree energy from (\int eps (grad phi)^2 dr):     1244.354104
MG Discrepancy due to finite box and discretization:     -0.651836 (  -0.05236%)
MG Correction to account for finite box:                  0.469422
MG Remaining discrepancy, due to discretization:         -0.182414 (  -0.01465%)
      ideal mu1:      -0.709220236215
             Q0:  -11641.757454426610
             G0:      -9.953955000932
   RMS gradient:       0.000485009824
MG BCs: +ve charge blocks (gridpoints):     24629 (   16795995).
MG BCs: -ve charge blocks (gridpoints):      8358 (    1070719).
MG BCs:     Elided blocks (gridpoints):    179659 (  181311167).
MG BCs: Computational effort saved:  99.9834%.
MG BCs: Charge after coarse-graining:           -9.0006562.
MG DL_MG: Calling solver with defect correction order = 8
MG DL_MG: Solver finished
MG Hartree energy from (\int phi*rho dr):              1257.186108
MG Hartree energy from (\int eps (grad phi)^2 dr):     1256.529907
MG Discrepancy due to finite box and discretization:     -0.656201 (  -0.05220%)
MG Correction to account for finite box:                  0.468496
MG Remaining discrepancy, due to discretization:         -0.187704 (  -0.01493%)
     Trial step:       0.641722140189
             Q1:  -11641.862543562311
 Quadratic coef:       6.282584170838
 Linear coef   :      -6.387673306539
           Qmin:  -11643.381084495128
Quadratic minimum step length (  0.326228131103) accepted
    Initial Ne1:    7191.99958385
      Final Ne1:    7192.00000000

=================== Penalty functional idempotency correction ==================
 RMS occupancy error at iteration   1:  0.000350 (step -0.4986 Ne1=   7192.0000)
 RMS occupancy error at iteration   2:  0.000000 (step -0.5000 Ne1=   7192.0000)
            Final RMS occupancy error   :  0.000000 (Ne1=   7192.0000)
               Final occupancy bounds   : [  0.0000,  1.0000]
================================================================================

    1        -1.164175745443E+04     4.8501E-04     4.3868E-04
MG BCs: +ve charge blocks (gridpoints):     24611 (   16791132).
MG BCs: -ve charge blocks (gridpoints):      8359 (    1071736).
MG BCs:     Elided blocks (gridpoints):    179677 (  181315013).
MG BCs: Computational effort saved:  99.9834%.
MG BCs: Charge after coarse-graining:           -9.0006577.
MG DL_MG: Calling solver with defect correction order = 8
MG DL_MG: Solver finished
MG Hartree energy from (\int phi*rho dr):              1250.410267
MG Hartree energy from (\int eps (grad phi)^2 dr):     1249.756300
MG Discrepancy due to finite box and discretization:     -0.653968 (  -0.05230%)
MG Correction to account for finite box:                  0.468930
MG Remaining discrepancy, due to discretization:         -0.185038 (  -0.01480%)
      ideal mu1:      -0.715563647729
             Q0:  -11643.362543807365
             G0:      -0.964285007815
   RMS gradient:       0.000151320060
MG BCs: +ve charge blocks (gridpoints):     24611 (   16790655).
MG BCs: -ve charge blocks (gridpoints):      8360 (    1072603).
MG BCs:     Elided blocks (gridpoints):    179677 (  181314623).
MG BCs: Computational effort saved:  99.9834%.
MG BCs: Charge after coarse-graining:           -9.0006576.
MG DL_MG: Calling solver with defect correction order = 8
MG DL_MG: Solver finished
MG Hartree energy from (\int phi*rho dr):              1251.365463
MG Hartree energy from (\int eps (grad phi)^2 dr):     1250.711231
MG Discrepancy due to finite box and discretization:     -0.654232 (  -0.05228%)
MG Correction to account for finite box:                  0.468821
MG Remaining discrepancy, due to discretization:         -0.185412 (  -0.01482%)
     Trial step:       0.457545423407
             Q1:  -11643.569623356801
 Quadratic coef:       0.234124642750
 Linear coef   :      -0.441204192186
           Qmin:  -11643.570404390639
Quadratic minimum step length (  0.431118562643) accepted
    Initial Ne1:    7191.99994646
      Final Ne1:    7192.00000000

=================== Penalty functional idempotency correction ==================
 RMS occupancy error at iteration   1:  0.000142 (step -0.4994 Ne1=   7192.0000)
            Final RMS occupancy error   :  0.000000 (Ne1=   7192.0000)
               Final occupancy bounds   : [ -0.0000,  1.0000]
================================================================================

    2        -1.164336254381E+04     1.5132E-04     1.3687E-04    -1.6051E+00
MG BCs: +ve charge blocks (gridpoints):     24611 (   16790641).
MG BCs: -ve charge blocks (gridpoints):      8360 (    1072578).
MG BCs:     Elided blocks (gridpoints):    179677 (  181314662).
MG BCs: Computational effort saved:  99.9834%.
MG BCs: Charge after coarse-graining:           -9.0006576.
MG DL_MG: Calling solver with defect correction order = 8
MG DL_MG: Solver finished
MG Hartree energy from (\int phi*rho dr):              1251.310414
MG Hartree energy from (\int eps (grad phi)^2 dr):     1250.656198
MG Discrepancy due to finite box and discretization:     -0.654216 (  -0.05228%)
MG Correction to account for finite box:                  0.468827
MG Remaining discrepancy, due to discretization:         -0.185389 (  -0.01482%)
      ideal mu1:      -0.716618109459
             Q0:  -11643.570803294424
             G0:      -0.158263384318
   RMS gradient:       0.000061094916
MG BCs: +ve charge blocks (gridpoints):     24611 (   16790339).
MG BCs: -ve charge blocks (gridpoints):      8365 (    1072826).
MG BCs:     Elided blocks (gridpoints):    179677 (  181314716).
MG BCs: Computational effort saved:  99.9834%.
MG BCs: Charge after coarse-graining:           -9.0006576.
MG DL_MG: Calling solver with defect correction order = 8
MG DL_MG: Solver finished
MG Hartree energy from (\int phi*rho dr):              1250.991014
MG Hartree energy from (\int eps (grad phi)^2 dr):     1250.336899
MG Discrepancy due to finite box and discretization:     -0.654116 (  -0.05229%)
MG Correction to account for finite box:                  0.468749
MG Remaining discrepancy, due to discretization:         -0.185367 (  -0.01482%)
     Trial step:       0.444135480775
             Q1:  -11643.619451808510
 Quadratic coef:       0.021641870197
 Linear coef   :      -0.070290384283
           Qmin:  -11643.627877129516
Quadratic minimum step length (  0.721251290529) accepted
    Initial Ne1:    7192.00092642
      Final Ne1:    7192.00000000

=================== Penalty functional idempotency correction ==================
 RMS occupancy error at iteration   1:  0.000116 (step -0.4964 Ne1=   7192.0000)
 RMS occupancy error at iteration   2:  0.000001 (step -0.5000 Ne1=   7192.0000)
            Final RMS occupancy error   :  0.000000 (Ne1=   7192.0000)
               Final occupancy bounds   : [  0.0000,  1.0000]
================================================================================

    3        -1.164357080329E+04     6.1095E-05     5.5259E-05    -2.0826E-01
MG BCs: +ve charge blocks (gridpoints):     24612 (   16790080).
MG BCs: -ve charge blocks (gridpoints):      8365 (    1073002).
MG BCs:     Elided blocks (gridpoints):    179676 (  181314799).
MG BCs: Computational effort saved:  99.9834%.
MG BCs: Charge after coarse-graining:           -9.0006576.
MG DL_MG: Calling solver with defect correction order = 8
MG DL_MG: Solver finished
MG Hartree energy from (\int phi*rho dr):              1250.792055
MG Hartree energy from (\int eps (grad phi)^2 dr):     1250.138002
MG Discrepancy due to finite box and discretization:     -0.654052 (  -0.05229%)
MG Correction to account for finite box:                  0.468698
MG Remaining discrepancy, due to discretization:         -0.185354 (  -0.01482%)
      ideal mu1:      -0.715989219421
             Q0:  -11643.627967281267
             G0:      -0.058138424832
   RMS gradient:       0.000037017459
MG BCs: +ve charge blocks (gridpoints):     24612 (   16789747).
MG BCs: -ve charge blocks (gridpoints):      8364 (    1073080).
MG BCs:     Elided blocks (gridpoints):    179676 (  181315054).
MG BCs: Computational effort saved:  99.9834%.
MG BCs: Charge after coarse-graining:           -9.0006577.
MG DL_MG: Calling solver with defect correction order = 8
MG DL_MG: Solver finished
MG Hartree energy from (\int phi*rho dr):              1250.697090
MG Hartree energy from (\int eps (grad phi)^2 dr):     1250.043206
MG Discrepancy due to finite box and discretization:     -0.653884 (  -0.05228%)
MG Correction to account for finite box:                  0.468664
MG Remaining discrepancy, due to discretization:         -0.185220 (  -0.01481%)
     Trial step:       0.565979936640
             Q1:  -11643.647514092270
 Quadratic coef:       0.013358370999
 Linear coef   :      -0.032905182003
           Qmin:  -11643.648230811204
Quadratic minimum step length (  0.697078739085) accepted
    Initial Ne1:    7192.00032865
      Final Ne1:    7192.00000000

=================== Penalty functional idempotency correction ==================
 RMS occupancy error at iteration   1:  0.000154 (step -0.4916 Ne1=   7192.0000)
 RMS occupancy error at iteration   2:  0.000001 (step -0.5000 Ne1=   7192.0000)
            Final RMS occupancy error   :  0.000000 (Ne1=   7192.0000)
               Final occupancy bounds   : [  0.0000,  1.0000]
================================================================================

    4        -1.164362796728E+04     3.7017E-05     3.3481E-05    -5.7164E-02
MG BCs: +ve charge blocks (gridpoints):     24612 (   16789643).
MG BCs: -ve charge blocks (gridpoints):      8365 (    1073109).
MG BCs:     Elided blocks (gridpoints):    179676 (  181315129).
MG BCs: Computational effort saved:  99.9834%.
MG BCs: Charge after coarse-graining:           -9.0006577.
MG DL_MG: Calling solver with defect correction order = 8
MG DL_MG: Solver finished
MG Hartree energy from (\int phi*rho dr):              1250.675728
MG Hartree energy from (\int eps (grad phi)^2 dr):     1250.021884
MG Discrepancy due to finite box and discretization:     -0.653844 (  -0.05228%)
MG Correction to account for finite box:                  0.468654
MG Remaining discrepancy, due to discretization:         -0.185190 (  -0.01481%)
      ideal mu1:      -0.716245728799
             Q0:  -11643.648221568204
             G0:      -0.045609723542
   RMS gradient:       0.000032833395
MG BCs: +ve charge blocks (gridpoints):     24610 (   16790524).
MG BCs: -ve charge blocks (gridpoints):      8364 (    1072828).
MG BCs:     Elided blocks (gridpoints):    179678 (  181314529).
MG BCs: Computational effort saved:  99.9834%.
MG BCs: Charge after coarse-graining:           -9.0006575.
MG DL_MG: Calling solver with defect correction order = 8
MG DL_MG: Solver finished
MG Hartree energy from (\int phi*rho dr):              1251.335439
MG Hartree energy from (\int eps (grad phi)^2 dr):     1250.681792
MG Discrepancy due to finite box and discretization:     -0.653647 (  -0.05224%)
MG Correction to account for finite box:                  0.468523
MG Remaining discrepancy, due to discretization:         -0.185124 (  -0.01479%)
     Trial step:       0.628118285501
             Q1:  -11643.666714769555
 Quadratic coef:       0.010155100003
 Linear coef   :      -0.028648301353
           Qmin:  -11643.668426321732
Quadratic minimum step length (  0.885984476958) accepted
    Initial Ne1:    7192.00032853
      Final Ne1:    7192.00000000

=================== Penalty functional idempotency correction ==================
 RMS occupancy error at iteration   1:  0.000528 (step -0.4706 Ne1=   7192.0000)
 RMS occupancy error at iteration   2:  0.000003 (step -0.5000 Ne1=   7192.0000)
            Final RMS occupancy error   :  0.000000 (Ne1=   7192.0000)
               Final occupancy bounds   : [  0.0000,  1.0000]
================================================================================

    5        -1.164364822157E+04     3.2833E-05     2.9697E-05    -2.0254E-02
MG BCs: +ve charge blocks (gridpoints):     24610 (   16790989).
MG BCs: -ve charge blocks (gridpoints):      8363 (    1072666).
MG BCs:     Elided blocks (gridpoints):    179678 (  181314226).
MG BCs: Computational effort saved:  99.9834%.
MG BCs: Charge after coarse-graining:           -9.0006574.
MG DL_MG: Calling solver with defect correction order = 8
MG DL_MG: Solver finished
MG Hartree energy from (\int phi*rho dr):              1251.607510
MG Hartree energy from (\int eps (grad phi)^2 dr):     1250.953949
MG Discrepancy due to finite box and discretization:     -0.653561 (  -0.05222%)
MG Correction to account for finite box:                  0.468464
MG Remaining discrepancy, due to discretization:         -0.185097 (  -0.01479%)
      ideal mu1:      -0.717505908016
             Q0:  -11643.668250872637
             G0:      -0.047585467262
   RMS gradient:       0.000033579777
MG BCs: +ve charge blocks (gridpoints):     24611 (   16791204).
MG BCs: -ve charge blocks (gridpoints):      8362 (    1072655).
MG BCs:     Elided blocks (gridpoints):    179677 (  181314022).
MG BCs: Computational effort saved:  99.9834%.
MG BCs: Charge after coarse-graining:           -9.0006573.
MG DL_MG: Calling solver with defect correction order = 8
MG DL_MG: Solver finished
MG Hartree energy from (\int phi*rho dr):              1251.545226
MG Hartree energy from (\int eps (grad phi)^2 dr):     1250.891933
MG Discrepancy due to finite box and discretization:     -0.653292 (  -0.05220%)
MG Correction to account for finite box:                  0.468198
MG Remaining discrepancy, due to discretization:         -0.185094 (  -0.01479%)
     Trial step:       0.745991320758
             Q1:  -11643.691620619036
 Quadratic coef:       0.012128599174
 Linear coef   :      -0.035498345572
           Qmin:  -11643.694225276613
Quadratic minimum step length (  1.091694816483) accepted
    Initial Ne1:    7192.00042103
      Final Ne1:    7192.00000000

=================== Penalty functional idempotency correction ==================
 RMS occupancy error at iteration   1:  0.001905 (step -0.4084 Ne1=   7192.0000)
 RMS occupancy error at iteration   2:  0.000020 (step -0.4998 Ne1=   7192.0000)
            Final RMS occupancy error   :  0.000000 (Ne1=   7192.0000)
               Final occupancy bounds   : [ -0.0000,  1.0000]
================================================================================

    6        -1.164366825087E+04     3.3580E-05     3.0372E-05    -2.0029E-02
MG BCs: +ve charge blocks (gridpoints):     24612 (   16791332).
MG BCs: -ve charge blocks (gridpoints):      8361 (    1072636).
MG BCs:     Elided blocks (gridpoints):    179676 (  181313913).
MG BCs: Computational effort saved:  99.9834%.
MG BCs: Charge after coarse-graining:           -9.0006573.
MG DL_MG: Calling solver with defect correction order = 8
MG DL_MG: Solver finished
MG Hartree energy from (\int phi*rho dr):              1251.519405
MG Hartree energy from (\int eps (grad phi)^2 dr):     1250.866221
MG Discrepancy due to finite box and discretization:     -0.653184 (  -0.05219%)
MG Correction to account for finite box:                  0.468090
MG Remaining discrepancy, due to discretization:         -0.185094 (  -0.01479%)
      ideal mu1:      -0.717977994668
             Q0:  -11643.693746419623
             G0:      -0.056484255296
   RMS gradient:       0.000036535613
MG BCs: +ve charge blocks (gridpoints):     24613 (   16789213).
MG BCs: -ve charge blocks (gridpoints):      8363 (    1073317).
MG BCs:     Elided blocks (gridpoints):    179675 (  181315351).
MG BCs: Computational effort saved:  99.9834%.
MG BCs: Charge after coarse-graining:           -9.0006577.
MG DL_MG: Calling solver with defect correction order = 8
MG DL_MG: Solver finished
MG Hartree energy from (\int phi*rho dr):              1250.507874
MG Hartree energy from (\int eps (grad phi)^2 dr):     1249.854638
MG Discrepancy due to finite box and discretization:     -0.653236 (  -0.05224%)
MG Correction to account for finite box:                  0.468071
MG Remaining discrepancy, due to discretization:         -0.185165 (  -0.01481%)
     Trial step:       0.902438284878
             Q1:  -11643.705656073522
 Quadratic coef:       0.039063900573
 Linear coef   :      -0.050973554472
           Qmin:  -11643.710374964248
Quadratic minimum step length (  0.588785123827) accepted
    Initial Ne1:    7192.00010295
      Final Ne1:    7192.00000000

=================== Penalty functional idempotency correction ==================
 RMS occupancy error at iteration   1:  0.000025 (step -0.4986 Ne1=   7192.0000)
            Final RMS occupancy error   :  0.000000 (Ne1=   7192.0000)
               Final occupancy bounds   : [ -0.0000,  1.0000]
================================================================================

    7        -1.164369374642E+04     3.6536E-05     3.3046E-05    -2.5496E-02
MG BCs: +ve charge blocks (gridpoints):     24612 (   16789947).
MG BCs: -ve charge blocks (gridpoints):      8362 (    1073065).
MG BCs:     Elided blocks (gridpoints):    179676 (  181314869).
MG BCs: Computational effort saved:  99.9834%.
MG BCs: Charge after coarse-graining:           -9.0006576.
MG DL_MG: Calling solver with defect correction order = 8
MG DL_MG: Solver finished
MG Hartree energy from (\int phi*rho dr):              1250.857112
MG Hartree energy from (\int eps (grad phi)^2 dr):     1250.203893
MG Discrepancy due to finite box and discretization:     -0.653219 (  -0.05222%)
MG Correction to account for finite box:                  0.468079
MG Remaining discrepancy, due to discretization:         -0.185140 (  -0.01480%)
      ideal mu1:      -0.717207640033
             Q0:  -11643.710378594347
             G0:      -0.041792810914
   RMS gradient:       0.000031421246
MG BCs: +ve charge blocks (gridpoints):     24612 (   16789723).
MG BCs: -ve charge blocks (gridpoints):      8363 (    1073164).
MG BCs:     Elided blocks (gridpoints):    179676 (  181314994).
MG BCs: Computational effort saved:  99.9834%.
MG BCs: Charge after coarse-graining:           -9.0006576.
MG DL_MG: Calling solver with defect correction order = 8
MG DL_MG: Solver finished
MG Hartree energy from (\int phi*rho dr):              1250.598808
MG Hartree energy from (\int eps (grad phi)^2 dr):     1249.945660
MG Discrepancy due to finite box and discretization:     -0.653147 (  -0.05223%)
MG Correction to account for finite box:                  0.467942
MG Remaining discrepancy, due to discretization:         -0.185205 (  -0.01481%)
     Trial step:       0.728932258381
             Q1:  -11643.730317446054
 Quadratic coef:       0.010525276337
 Linear coef   :      -0.030464128044
           Qmin:  -11643.732422269681
Quadratic minimum step length (  1.054902738111) accepted
    Initial Ne1:    7192.00053400
      Final Ne1:    7192.00000000

=================== Penalty functional idempotency correction ==================
[...]
MG BCs: Computational effort saved:  99.9813%.
MG BCs: Charge after coarse-graining:           -9.0009250.
MG DL_MG: Calling solver with defect correction order = 8
MG DL_MG: Solver finished
MG Hartree energy from (\int phi*rho dr):              1208.732078
MG Hartree energy from (\int eps (grad phi)^2 dr):     1208.541483
MG Discrepancy due to finite box and discretization:     -0.190595 (  -0.01577%)
MG Correction to account for finite box:                  0.006296
MG Remaining discrepancy, due to discretization:         -0.184299 (  -0.01525%)
             Q2:  -11678.529565995443
  Cubic LS coeff:       1.042085125150
Predicted energy:  -11678.529565995457
Cubic minimum step length accepted
    Initial Ne1:    7192.00000000
      Final Ne1:    7192.00000000

=================== Penalty functional idempotency correction ==================
 RMS occupancy error at iteration   1:  0.000000 (step -0.5000 Ne1=   7192.0000)
            Final RMS occupancy error   :  0.000000 (Ne1=   7192.0000)
               Final occupancy bounds   : [ -0.0000,  1.0000]
================================================================================

    7        -1.167852956599E+04     1.1802E-08     1.0675E-08    -4.3074E-09

Reusing previously generated solute cavity.
MG BCs: +ve charge blocks (gridpoints):     28882 (   18965898).
MG BCs: -ve charge blocks (gridpoints):      8345 (    1042336).
MG BCs:     Elided blocks (gridpoints):    175406 (  179169647).
MG BCs: Computational effort saved:  99.9813%.
MG BCs: Charge after coarse-graining:           -9.0009250.
MG DL_MG: Calling solver with defect correction order = 8
MG DL_MG: Solver finished
MG Hartree energy from (\int phi*rho dr):              1208.732078
MG Hartree energy from (\int eps (grad phi)^2 dr):     1208.541483
MG Discrepancy due to finite box and discretization:     -0.190595 (  -0.01577%)
MG Correction to account for finite box:                  0.006296
MG Remaining discrepancy, due to discretization:         -0.184299 (  -0.01525%)
      ideal mu1:      -0.480690195766
             Q0:  -11678.529565995326
             G0:      -0.000000008008
   RMS gradient:       0.000000014351

Reusing previously generated solute cavity.
MG BCs: +ve charge blocks (gridpoints):     28882 (   18965899).
MG BCs: -ve charge blocks (gridpoints):      8345 (    1042336).
MG BCs:     Elided blocks (gridpoints):    175406 (  179169646).
MG BCs: Computational effort saved:  99.9813%.
MG BCs: Charge after coarse-graining:           -9.0009250.
MG DL_MG: Calling solver with defect correction order = 8
MG DL_MG: Solver finished
MG Hartree energy from (\int phi*rho dr):              1208.732037
MG Hartree energy from (\int eps (grad phi)^2 dr):     1208.541442
MG Discrepancy due to finite box and discretization:     -0.190595 (  -0.01577%)
MG Correction to account for finite box:                  0.006296
MG Remaining discrepancy, due to discretization:         -0.184299 (  -0.01525%)
     Trial step:       0.744943184002
             Q1:  -11678.529565999284
 Quadratic coef:       0.000000002008
 Linear coef   :      -0.000000005966
           Qmin:  -11678.529565999757
Quadratic minimum step length (  1.106540430390) accepted
    Initial Ne1:    7192.00000000
      Final Ne1:    7192.00000000

=================== Penalty functional idempotency correction ==================
 RMS occupancy error at iteration   1:  0.000000 (step -0.5000 Ne1=   7192.0000)
            Final RMS occupancy error   :  0.000000 (Ne1=   7192.0000)
               Final occupancy bounds   : [ -0.0000,  1.0000]
================================================================================

    8        -1.167852956600E+04     1.4351E-08     1.2980E-08    -6.9849E-09

Reusing previously generated solute cavity.
MG BCs: +ve charge blocks (gridpoints):     28882 (   18965900).
MG BCs: -ve charge blocks (gridpoints):      8345 (    1042336).
MG BCs:     Elided blocks (gridpoints):    175406 (  179169645).
MG BCs: Computational effort saved:  99.9813%.
MG BCs: Charge after coarse-graining:           -9.0009250.
MG DL_MG: Calling solver with defect correction order = 8
MG DL_MG: Solver finished
MG Hartree energy from (\int phi*rho dr):              1208.732017
MG Hartree energy from (\int eps (grad phi)^2 dr):     1208.541422
MG Discrepancy due to finite box and discretization:     -0.190595 (  -0.01577%)
MG Correction to account for finite box:                  0.006296
MG Remaining discrepancy, due to discretization:         -0.184299 (  -0.01525%)
      ideal mu1:      -0.480690127453
             Q0:  -11678.529565999634
             G0:      -0.000000006198
   RMS gradient:       0.000000012268

Reusing previously generated solute cavity.
MG BCs: +ve charge blocks (gridpoints):     28882 (   18965899).
MG BCs: -ve charge blocks (gridpoints):      8345 (    1042338).
MG BCs:     Elided blocks (gridpoints):    175406 (  179169644).
MG BCs: Computational effort saved:  99.9813%.
MG BCs: Charge after coarse-graining:           -9.0009250.
MG DL_MG: Calling solver with defect correction order = 8
MG DL_MG: Solver finished
MG Hartree energy from (\int phi*rho dr):              1208.732049
MG Hartree energy from (\int eps (grad phi)^2 dr):     1208.541454
MG Discrepancy due to finite box and discretization:     -0.190595 (  -0.01577%)
MG Correction to account for finite box:                  0.006296
MG Remaining discrepancy, due to discretization:         -0.184299 (  -0.01525%)
     Trial step:       0.907915057393
             Q1:  -11678.529566001263
 Quadratic coef:       0.000000003998
 Linear coef   :      -0.000000005628
           Qmin:  -11678.529566001615
Quadratic minimum step length (  0.638978019371) accepted
    Initial Ne1:    7192.00000000
      Final Ne1:    7192.00000000

=================== Penalty functional idempotency correction ==================
 RMS occupancy error at iteration   1:  0.000000 (step -0.5000 Ne1=   7192.0000)
            Final RMS occupancy error   :  0.000000 (Ne1=   7192.0000)
               Final occupancy bounds   : [ -0.0000,  1.0000]
================================================================================

    9        -1.167852956600E+04     1.2268E-08     1.1097E-08    -4.3074E-09

Reusing previously generated solute cavity.
MG BCs: +ve charge blocks (gridpoints):     28882 (   18965899).
MG BCs: -ve charge blocks (gridpoints):      8345 (    1042338).
MG BCs:     Elided blocks (gridpoints):    175406 (  179169644).
MG BCs: Computational effort saved:  99.9813%.
MG BCs: Charge after coarse-graining:           -9.0009250.
MG DL_MG: Calling solver with defect correction order = 8
MG DL_MG: Solver finished
MG Hartree energy from (\int phi*rho dr):              1208.732040
MG Hartree energy from (\int eps (grad phi)^2 dr):     1208.541445
MG Discrepancy due to finite box and discretization:     -0.190595 (  -0.01577%)
MG Correction to account for finite box:                  0.006296
MG Remaining discrepancy, due to discretization:         -0.184299 (  -0.01525%)
      ideal mu1:      -0.480690162296
   10        -1.167852956600E+04     6.6101E-09     5.9786E-09    -1.8626E-09
Finished density kernel iterations (  10)


>>> Density kernel optimised for the current NGWF basis:
     ~~~~~~~~~~~~~~~~~~~~~~~~~~~~~~~~~~~~~~~~~~~~~~~~~~~~~~~~~~~
     Total energy                =  -1.16785295660015E+04  Eh
     Estimated bandgap           =   7.3392E-02  Eh
     RMS occupancy error         =   4.6963E-16
     [H,K] commutator            =   5.9786E-09
     Occupancy bounds            = [  0.000:  1.000]
     ~~~~~~~~~~~~~~~~~~~~~~~~~~~~~~~~~~~~~~~~~~~~~~~~~~~~~~~~~~~




################################################################################
########################### NGWF CG iteration  004 #############################
################################################################################
****** Reciprocal space K.E. preconditioning with k_zero =  3.5000 a0^-1 *******

>>> Checking for convergence of NGWFs: 
           ........................................................
           |         *** NGWF optimisation converged ***          |
           | RMS NGWF gradient =    0.00000181829869              |
           | Criteria satisfied:                                  |
           | -> RMS NGWF gradient lower than set threshold.       |
           ========================================================

Reusing previously generated solute cavity.
MG BCs: +ve charge blocks (gridpoints):     28882 (   18965899).
MG BCs: -ve charge blocks (gridpoints):      8345 (    1042338).
MG BCs:     Elided blocks (gridpoints):    175406 (  179169644).
MG BCs: Computational effort saved:  99.9813%.
MG BCs: Charge after coarse-graining:           -9.0009250.
MG DL_MG: Calling solver with defect correction order = 8
MG DL_MG: Solver finished
MG Hartree energy from (\int phi*rho dr):              1208.732040
MG Hartree energy from (\int eps (grad phi)^2 dr):     1208.541445
MG Discrepancy due to finite box and discretization:     -0.190595 (  -0.01577%)
MG Correction to account for finite box:                  0.006296
MG Remaining discrepancy, due to discretization:         -0.184299 (  -0.01525%)

================================================================================
           ---------------- ENERGY COMPONENTS (Eh) ----------------
           | Kinetic                    :     8530.37007742706555 |
           | Pseudo. (local,OBC,corr'd) :    -5051.19608550193607 |
           | Pseudopotential (non-local):     1403.07253896706061 |
           | Hartree (molecular)        :     1208.73203974802027 |
           | Exchange-correlation       :    -3357.84671158129186 |
           | Ion-ion (open BC)          :   829595.58323030825704 |
           | Dispersion Correction      :       -3.27285246464337 |
           | Smeared ion non-self corr. :  -829547.45188002497889 |
           | Smeared ion self corr.     :   -14457.16956389741972 |
           | Solvent cavitation energy  :        2.31127285771665 |
           | Solute-solvent dis-rep en. :       -1.66163183923394 |
           | Total                      :   -11678.52956600143807 |
           --------------------------------------------------------
           ------ LOCAL ENERGY COMPONENTS FROM MATRIX TRACES ------
           | Pseudopotential (local)    :    -5051.19608550198427 |
           | Hartree                    :    -1988.88339167281356 |
           --------------------------------------------------------
           Integrated density           :     7191.99999999812553
           Integrated density tr(KS)    :     7192.00000000000000
================================================================================


                        <<<<< CALCULATION SUMMARY >>>>>                         
|ITER|    RMS GRADIENT   |     TOTAL ENERGY    |   step   |     Epredicted              
   0     0.00004155853005 -11678.46068702137563   0.636455 -11678.52013721936055        
   1     0.00000914844635 -11678.52916344499681   0.072884 -11678.52949335161065        
   2     0.00000405521623 -11678.52955220581498   0.013546 -11678.52956425338925        
   3     0.00000181829869 -11678.52956600149628  <-- CG                                 

=================== Finished the calculation in solvent ========================
= Adjusting the following parameters: 
= read_denskern: F
= read_tightbox_ngwfs: F
= maxit_pen: 0 (restored to user-specified value)
= restart read filename prefix: ""
= restart write filename prefix: ""
================================================================================

================================================================================
IS: Calculation in solvent completed (NGWFs converged).      

Individual components of total energy in solvent:     hartree           kcal/mol
- Usual non-electrostatic DFT terms:    -12887.91124676799882    -8087286.232777
- Electrostatic fixed charge energy:      1208.73203974802027      758490.790090
- Apolar cavitation energy:                  2.31127285771665        1450.345584
- Apolar dispersion-repulsion energy:       -1.66163183923394       -1042.689699
 -------------------------------------------------------------------------------
- Total energy in solvent:              -11678.52956600149628    -7328387.786802

Components of total energy in solvent:                hartree           kcal/mol
- Usual non-electrostatic DFT terms:    -12887.91124676799882    -8087286.232777
- Electrostatic energy:                   1208.73203974802027      758490.790090
- Apolar energy terms:                       0.64964101848271         407.655885
 -------------------------------------------------------------------------------
- Total energy in solvent:              -11678.52956600149628    -7328387.786802

Calculation of free energy of solvation:              hartree           kcal/mol
- Total energy in solvent:         (+)  -11678.52956600149628    -7328387.786802
- Total energy in vacuum:          (-)  -11674.51118691486772    -7325866.215909
 -------------------------------------------------------------------------------
- Total free energy of solvation:           -4.01837908662856       -2521.570893

Components of polar term in f.e. of solvation:        hartree           kcal/mol
- Electrostatic:                            -4.76756848343575       -2991.694327
- Change in nonelectrostatic DFT terms:      0.09954837832447          62.467549
 -------------------------------------------------------------------------------
- Polar term in f.e. of solvation:          -4.66802010511128       -2929.226778

Components of free energy of solvation:               hartree           kcal/mol
- Polar term in f.e. of solvation: (+)      -4.66802010511128       -2929.226778
- Apolar (cavitation, dis., rep.): (+)       0.64964101848271         407.655885
 -------------------------------------------------------------------------------
- Total free energy of solvation:           -4.01837908662858       -2521.570893
================================================================================


------------------------------ TIMING INFORMATION ------------------------------
AVERAGE TIME:   25458.643s on     40 node(s)                                    
TOTAL TIME:     25458.644s on     40 node(s)                                    
================= AVERAGE TIMINGS FROM ALL NODES (CUMULATIVE) ==================
|| TAG                                    #calls    cpu time   %total  Gflops ||
|| work_imbalance                       :     1        0.00s   0.000%  ------ ||
|| parallel_prepare_fd_halos_request    :  1827        0.01s   0.000%  ------ ||
|| sparse_set_to_garbage                :   164        0.04s   0.000%  ------ ||
|| parallel_prepare_fd_halos_satisfy    :  1827        0.06s   0.000%  ------ ||
|| ngwfs_initialise_from_radial         :     1        0.17s   0.001%  ------ ||
|| basis_extract_function_from_box      :  5041        0.20s   0.001%  ------ ||
|| parallel_prepare_fd_halos_alloc      :  1827        0.21s   0.001%  ------ ||
|| pseudopotentials_nonlocal_mat        :    28        1.17s   0.005%  ------ ||
|| restart_ngwfs_tightbox_input         :     1        1.66s   0.007%  ------ ||
|| parallel_prepare_fd_halos_comms_imbal:  1827        2.87s   0.011%  ------ ||
|| openbc_locps_radial                  :     1        4.71s   0.019%  ------ ||
|| density_init_guess_real              :     1        8.78s   0.034%  ------ ||
|| restart_kernel_read                  :     1       10.31s   0.040%  ------ ||
|| parallel_prepare_fd_halos_clear      :  1827       13.79s   0.054%  ------ ||
|| restart_kernel_write                 :    12       16.13s   0.063%  ------ ||
|| projectors_func_ovlp_box             :    28       21.67s   0.085%  ------ ||
|| sparse_init                          :     2       23.18s   0.091%  ------ ||
|| parallel_prepare_fd_halos_comms_wait :  1827       23.96s   0.094%  ------ ||
|| projectors_init_fftbox_recip         :   193       24.60s   0.097%  ------ ||
|| function_ops_brappd_ketppd           :    28       26.61s   0.105%  ------ ||
|| palser_mano_kernel_optimise          :     1       38.61s   0.152%  ------ ||
|| parallel_prepare_fd_halos            :  1827       40.91s   0.161%  ------ ||
|| fourier_apply_box_pair               :  7164       49.70s   0.195% 556.336 ||
|| basis_copy_function_to_box           : 81312       51.99s   0.204%  ------ ||
|| ngwf_gradient_coeffs                 :    15       58.59s   0.230%  ------ ||
|| pseudo_make_structure_factor         :     2       60.58s   0.238%  ------ ||
|| restart_ngwfs_tightbox_output        :    10       90.26s   0.355%  ------ ||
|| sparse_embed_hotelling_invert_embed  :    28       91.54s   0.360%  ------ ||
|| finite_difference_derivative         :  1827      105.78s   0.415%  ------ ||
|| integrals_kinetic                    :    28      155.59s   0.611%  ------ ||
|| openbc_locps_on_grid                 :     2      190.96s   0.750%  ------ ||
|| projectors_gradient_batch            :   165      197.65s   0.776%  ------ ||
|| fourier_apply_cell_forward           :  1217      218.67s   0.859%  78.944 ||
|| fourier_apply_cell_backward          :  1219      235.37s   0.925%  73.465 ||
|| basis_dot_function_with_box          : 12.53M     246.36s   0.968%  ------ ||
|| sparse_trace                         :  5256      258.03s   1.014%  ------ ||
|| kernel_purify                        :   464      322.33s   1.266%  ------ ||
|| hamiltonian_energy_components        :     4      428.12s   1.682%  ------ ||
|| basis_add_function_to_box            : 26.05M     506.45s   1.989%  ------ ||
|| xc_energy_potential                  :   304      526.36s   2.067%  ------ ||
|| lnv_gradient_norm                    :   150      536.22s   2.106%  ------ ||
|| kernel_fix                           :   150      669.01s   2.628%  ------ ||
|| ngwf_gradient_build_batch            :   165      713.39s   2.802%  ------ ||
|| cell_grid_deposit_box_real           : 51280      794.36s   3.120%  ------ ||
|| integrals_locpot_mat_els_batch       :  1749      884.99s   3.476%  ------ ||
|| cell_grid_extract_box_real           : 47977      934.74s   3.672%  ------ ||
|| ngwf_gradient_batch                  :   165      995.55s   3.910%  ------ ||
|| ngwf_gradient_lnv                    :    15     1149.23s   4.514%  ------ ||
|| density_batch_row_sums               :  3333     1209.60s   4.751%  ------ ||
|| density_fftbox_deposit_to_cell       : 49389     1370.88s   5.385%  ------ ||
|| sparse_product                       :  6411     2055.23s   8.073%  ------ ||
|| multigrid_prepare_bound_cond         :   304     2345.44s   9.213%  ------ ||
|| potential_apply_to_ngwf_batch        :  1749     3089.36s  12.135%  ------ ||
|| density_fftbox_interpolate_multiply  : 49389     3442.77s  13.523%  ------ ||
|| fourier_apply_box                    : 170.8k    3452.30s  13.560% 925.891 ||
|| integrals_locpot_dbl_grid            :   159     3992.32s  15.682%  ------ ||
|| density_batch_interp_deposit         :  3333     5452.95s  21.419%  ------ ||
|| dl_mg_solver_calls                   :   304     6462.47s  25.384%  ------ ||
|| density_on_dbl_grid                  :   303     7053.67s  27.706%  ------ ||
|| multigrid_calculate_hartree          :   304     8954.35s  35.172%  ------ ||
|| hamiltonian_lhxc_calculate           :   299    16526.78s  64.916%  ------ ||
|| lnv_denskernel_optimise_cg           :    15    21819.52s  85.706%  ------ ||
|| ngwf_cg_optimise                     :     2    24624.84s  96.725%  ------ ||
|| total_time                           :     1    25458.64s 100.000%  ------ ||
================================================================================
Overhead of generating timer report: 
- 0 ms averaging over threads,
- 5 ms ensuring consistency across MPI ranks,
- 0 ms printing in order.

Job completed: 20-06-2020 18:00 (+0100)

