 +---------------------------------------------------------------+
 |                                                               |
 |        ####### #     # ####### ####### ####### ######         |
 |        #     # ##    # #          #    #       #     #        |
 |        #     # # #   # #          #    #       #     #        |
 |        #     # #  #  # #####      #    #####   ######         |
 |        #     # #   # # #          #    #       #              |
 |        #     # #    ## #          #    #       #              |
 |        ####### #     # #######    #    ####### #              |
 |                                                               |
 |        Linear-Scaling Ab Initio Total Energy Program          |
 |                                                               |
 |          Release for academic collaborators of ODG            |
 |                                             Version 5.3.2.6.  |
 |                                                               |
 +---------------------------------------------------------------+
 |                                                               |
 |  Authors:                                                     |
 |  Jacek Dziedzic, Peter D. Haynes, Nicholas D. M. Hine,        |
 |  Arash. A. Mostofi, Mike C. Payne and Chris-Kriton Skylaris   |
 |                                                               |
 |  Contributors:                                                |
 |  J. Aarons, L. Andrinopoulos, P. W. Avraam, R. A. Bell,       |
 |  A. Bhandari, G. A. Bramley, R. J. Charlton, S. J. Clark,     |
 |  R. J. Clements, G. C. Constantinescu, F. Corsetti,           |
 |  N. Corsini, O. Dieguez, S. M. M. Dubois, K. K. B. Duff,      |
 |  J. M. Escartin, A. Greco, H. Helal, Q. O. Hill, L. P. Lee,   |
 |  J.-H. Li, E. B. Linscott, G. Moynihan, D. D. O`Regan,        |
 |  O. K. Okan, M. J. S. Phipps, C. J. Pickard,                  |
 |  J. C. A. Prentice, M. I. J. Probert, L. E. Ratcliff,         |
 |  M. Robinson, A. Ruiz Serrano, J. S. Spencer, E. W. Tait,     |
 |  G. Teobaldi, D. Turban, V. Vitale, K. A. Wilkinson,          |
 |  C. Weber, J. C. Womack, N. Yeung and T. J. Zuehlsdorff       |
 |                                                               |
 |                                   Copyright (c) 2004-2019     |
 |                                                               |
 |  Please cite:                                                 |
 |  "Introducing ONETEP: Linear-scaling density functional       |
 |   simulations on parallel computers".                         |
 |   C.-K. Skylaris, P. D. Haynes, A. A. Mostofi, M. C. Payne.   |
 |   J. Chem. Phys. 122 084119 (2005).                           |
 |                                                               |
 |          in all publications arising from your use of ONETEP. |
 |                                                               |
 +---------------------------------------------------------------+
 |                                                               |
 |   ONETEP is based on developments described in the following  |
 |   publications:                                               |
 |                                                               |
 |  "Nonorthogonal generalized Wannier function pseudopotential  |
 |   plane-wave method".                                         |
 |   C.-K. Skylaris, A. A. Mostofi, P. D. Haynes, O. Dieguez,    |
 |   M. C. Payne.                                                |
 |   Phys. Rev. B 66 035119 (2002).                              |
 |                                                               |
 |  "Preconditioned iterative minimization for linear-scaling    |
 |   electronic structure calculations".                         |
 |   A. A. Mostofi, P. D. Haynes, C.-K. Skylaris, M. C. Payne.   |
 |   J. Chem. Phys. 119(17), pp.8842-8848 (2003).                |
 |                                                               |
 |  "Total-energy calculations on a real space grid with         |
 |   localized functions and a plane-wave basis".                |
 |   A. A. Mostofi, C.-K. Skylaris, P. D. Haynes, M. C. Payne.   |
 |   Comput. Phys. Commun. 147, pp.788-802 (2002).               |
 |                                                               |
 |  "Accurate kinetic energy evaluation in electronic structure  |
 |   calculations with localized functions on real space grids"  |
 |   C.-K. Skylaris, A. A. Mostofi, P. D. Haynes, C. J. Pickard, |
 |   M. C. Payne.                                                |
 |   Comput. Phys. Commun. 140, pp.315-322 (2001).               |
 |                                                               |
 |  "Accurate ionic forces and geometry optimization in linear-  |
 |   scaling density-functional theory with local orbitals"      |
 |   N. D. M. Hine, M. Robinson, P. D. Haynes, C.-K. Skylaris,   |
 |   M. C. Payne, and A. A. Mostofi.                             |
 |   Phys. Rev. B 83 195102 (2011).                              |
 |                                                               |
 +---------------------------------------------------------------+

Job started: 04-01-2020 08:24 (-0000)
 
Reading parameters from file "complex_2001.dat" ...... done

If your calculation crashes here, before "Checking processes and threads..."
is displayed, then your stack size is insufficient.
If so, use "ulimit -s unlimited" at runtime.
You can disable this check with "check_stack_size F".

Checking processes and threads...
   Determining the default number of threads...
      No default threads set at compilation time: defaulting to 1.
      OpenMP library call suggests 4 threads.
      Hybrid MPI-OpenMP compilation detected.
      Number of MPI processes > 1.
      OMP_NUM_THREADS environment variable present and
      its value matches the one obtained from the OpenMP library call.
      Using this value as default.
      Default threads: 4
      Default applies to threads_max and threads_num_fftboxes.
      Settings in the input file override this default.
   ... done

   Running with 30 MPI processes.
   There are 4 MPI processes running on the same node as the root process.
   Each MPI process is using: 
               1 threads for simulation cell FFTs.
               1 threads for parallel FFT box operations.
               4 threads for loops over batched FFT box operations.
               4 threads in other parallel regions.
... done

Basic input checks...... done

Reading geometry and species blocks from file "complex_2001.dat" ...
  <species_atomic_set> block not found: NGWF initialisation set to SOLVE
IS: Dielectric excluded regions:
    - NONE.
    
  Number of PPD points along a3 set to 1.  This is 
  the default value, it may have been provided also in the input file.
... done
 Writing xyz coordinates to file "complex_2001.xyz" ... done


--------------------------------------------------------------------------------
---------------------------------- INPUT FILE ----------------------------------
--------------------------------------------------------------------------------

cutoff_energy       : 800 eV                                                    
xc_functional BLYP                                                              
task SINGLEPOINT                                                                
write_xyz true                                                                  
output_detail VERBOSE                                                           
ngwf_threshold_orig : 0.000002                                                  
kernel_cutoff       : 1000                                                      
k_zero              : 3.5                                                       
elec_cg_max 0                                                                   
occ_mix 1.0                                                                     
dispersion 1                                                                    
maxit_ngwf_cg 40                                                                
minit_lnv 10                                                                    
maxit_lnv 10                                                                    
write_denskern T                                                                
write_tightbox_ngwfs T                                                          
charge 9                                                                        
is_implicit_solvent T                                                           
is_auto_solvation T                                                             
is_include_apolar T                                                             
is_smeared_ion_rep T                                                            
is_solvent_surf_tension 4.7624E-5 Ha/bohr**2                                    
is_apolar_scaling_factor 0.281075                                               
is_solvation_beta 1.3                                                           
is_density_threshold 0.00035                                                    
is_bulk_permittivity 78.54                                                      
is_dielectric_model fix_initial                                                 
is_smeared_ion_width 0.8                                                        
mg_defco_fd_order 8                                                             
is_bc_coarseness 10                                                             
is_bc_surface_coarseness 1                                                      
fine_grid_scale 2.0                                                             
%block species                                                                  
N   N   7 4 8.0                                                                 
H   H   1 1 8.0                                                                 
C   C   6 4 8.0                                                                 
S   S  16 9 8.0                                                                 
O   O   8 4 8.0                                                                 
%endblock species                                                               
%block species_pot                                                              
N   N_00.recpot                                                                 
H   H_04.recpot                                                                 
C   C_01.recpot                                                                 
S   S_00.recpot                                                                 
O   O_02.recpot                                                                 
%endblock species_pot                                                           
%block lattice_cart                                                             
137.614   0.000   0.000                                                         
0.000 142.646   0.000                                                           
0.000   0.000   160.855                                                         
%endblock lattice_cart                                                          
%block positions_abs                                                            
     Hash =   000001415123480241658390
%endblock positions_abs                                                         

--------------------------------------------------------------------------------
-------------------------------- END INPUT FILE --------------------------------
--------------------------------------------------------------------------------


 
 ESDF WARNING(1): "kernelcutoff" (esdf_physical) has no units. Assume "bohr".
 ESDF WARNING(2): "kzero" (esdf_physical) has no units. Assume "1/bohr".
 ESDF WARNING(3
 ): "issmearedionwidth" (esdf_physical) has no units. Assume "bohr".
<<<<<<<<<<<<<<<<<<<<<<<<<<<<<<<<< Full system >>>>>>>>>>>>>>>>>>>>>>>>>>>>>>>>>>
<<<<<<<<<<<<<<<<<<<<<<<<< Pseudopotential information >>>>>>>>>>>>>>>>>>>>>>>>>>
File: N_00.recpot [ 2001 points up to Gmax=  52.9 (1/bohr)]
  Atomic number:  7;  ionic charge:  5.000000
    Shell 1: l = 0; rc = 1.48 bohr
File: H_04.recpot [ 2001 points up to Gmax=  52.9 (1/bohr)]
  Atomic number:  1;  ionic charge:  1.000000
    Local potential
File: C_01.recpot [ 2001 points up to Gmax=  52.9 (1/bohr)]
  Atomic number:  6;  ionic charge:  4.000000
    Shell 1: l = 0; rc = 1.48 bohr
File: S_00.recpot [ 2001 points up to Gmax=  52.9 (1/bohr)]
  Atomic number: 16;  ionic charge:  6.000000
    Shell 1: l = 0; rc = 1.90 bohr
    Shell 2: l = 2; rc = 1.84 bohr
File: O_02.recpot [ 2001 points up to Gmax=  52.9 (1/bohr)]
  Atomic number:  8;  ionic charge:  6.000000
    Shell 1: l = 0; rc = 1.31 bohr
<<<<<<<<<<<<<<<<<<<<<<<<<<<<<<<<<<<<<<<<>>>>>>>>>>>>>>>>>>>>>>>>>>>>>>>>>>>>>>>>

-------------------------- Atom counting information ---------------------------
Symbol    Natoms    Nngwfs    Nprojs
  N        236       944       236
  H       1319      1319         0
  C        817      3268       817
  S          6        54        36
  O        240       960       240
.......   ......    ......    ......
Totals:   2618      6545      1329
--------------------------------------------------------------------------------

=============================== PSINC grid sizes ===============================
                      Simulation cell:  273 x 286 x 320
                              FFT-box:   99 x 105 x  99
                                  PPD:    7 x  11 x   1
Grid space d1=  0.504080586081a0 (KE cutoff=  29.89538Eh = 813.49465eV)
Grid space d2=  0.498762237762a0 (KE cutoff=  30.53633Eh = 830.93588eV)
Grid space d3=  0.502671875000a0 (KE cutoff=  30.06317Eh = 818.06059eV)
================================================================================

********************* Fourier parallelisation information **********************
       Coarse grid (whole simulation cell) dimensions:    273   286   320
          Real-space ('12') slabs/node (min max mean):     10    11    10
         Recip-space ('23') slabs/node (min max mean):      4     5     4
********************************************************************************

********************* Fourier parallelisation information **********************
       Double grid (whole simulation cell) dimensions:    546   572   640
          Real-space ('12') slabs/node (min max mean):     21    22    21
         Recip-space ('23') slabs/node (min max mean):      9    10     9
********************************************************************************
ONETEP fine grid is 546 x 572 x 640 gridpoints, 137.6140 x 142.6460 x 160.8550 bohr.
FD multigrid is     545 x 569 x 633 gridpoints, 137.3620 x 141.8979 x 159.0956 bohr.


Calculating local pseudopotential in open BC on a radial grid ...
Discrepancy between calculated realspace psloc and -Z/x on [5a0,255.264a0]:
max |rel. diff| # avg |rel. diff| #  avg rel. diff #  f # pseudopotential file
 0.000296759711    0.000009439468   0.000000085927   54  'N_00.recpot'
 0.000490027943    0.000021572324  -0.000000031900   54  'H_04.recpot'
 0.000320795249    0.000014598087   0.000000111901   54  'C_01.recpot'
 0.000388730920    0.000016096375   0.000000514750   54  'S_00.recpot'
 0.000828383344    0.000035421288   0.000000087443   54  'O_02.recpot'
... done

Atom SCF Calculation for N  : Z (AE atom) =   7 : Z (PS atom) =   5
Config String:
Orbitals (num,occ):  2     2.00 3.00
Orbitals   (num,l):  2        0    1
Real-space Grid (nr,dr,rmax): 1203    0.0066555740    8.0000000000
Spherical Bessel Basis (nsws,lmax,cutoff):   47    1  176.3951722778
Confining potential (l,width,scale):  0    3.0000000000  100.0000000000
Confining potential (l,width,scale):  1    3.0000000000  100.0000000000
  1         -4.6013585513   -3.4049108869    7.0523828109   -1.9091162855
  2         -9.8016879160   -2.0135461241    8.3188189370   -2.2435473665
  3         -9.6321802847   -2.1065478390    8.2183983263   -2.2242517067
  4         -9.6808560127   -2.1077991138    8.2173288485   -2.2270152182
  5         -9.6784967349   -2.1128330112    8.2119747404   -2.2266918217
  6         -9.6791515400   -2.1147078825    8.2099963775   -2.2267571594
  7         -9.6793670910   -2.1154252429    8.2092416418   -2.2268113337
  8         -9.6794373063   -2.1158528083    8.2087924364   -2.2268527427
  9         -9.6794398958   -2.1161080766    8.2085246585   -2.2268829890
 10         -9.6794160451   -2.1162604947    8.2083650403   -2.2269045154
 11         -9.6793856186   -2.1163514575    8.2082699573   -2.2269195730
 12         -9.6793628578   -2.1163948573    8.2082246846   -2.2269278917
 13         -9.6793432636   -2.1164242260    8.2081940961   -2.2269341082
 14         -9.6793270299   -2.1164440925    8.2081734387   -2.2269387333
 15         -9.6793139353   -2.1164575258    8.2081594952   -2.2269421617
 16         -9.6793035781   -2.1164666052    8.2081500885   -2.2269446948
 17         -9.6792955084   -2.1164727391    8.2081437461   -2.2269465609
 18         -9.6792892951   -2.1164768810    8.2081394723   -2.2269479322
 19         -9.6792845566   -2.1164796764    8.2081365942   -2.2269489376
 20         -9.6792809712   -2.1164815621    8.2081346574   -2.2269496733
 21         -9.6792782763   -2.1164828334    8.2081333549   -2.2269502106
 22         -9.6792762618   -2.1164836900    8.2081324796   -2.2269506023
 23         -9.6792747633   -2.1164842667    8.2081318920   -2.2269508875
 24         -9.6792736533   -2.1164846548    8.2081314978   -2.2269510948
 25         -9.6792728339   -2.1164849157    8.2081312336   -2.2269512454
 26         -9.6792722311   -2.1164850910    8.2081310567   -2.2269513545
 27         -9.6792717888   -2.1164852087    8.2081309384   -2.2269514336
 28         -9.6792714651   -2.1164852876    8.2081308594   -2.2269514909
 29         -9.6792712288   -2.1164853404    8.2081308067   -2.2269515323
 30         -9.6792710566   -2.1164853758    8.2081307716   -2.2269515622
 31         -9.6792709314   -2.1164853994    8.2081307482   -2.2269515837
 32         -9.6792708404   -2.1164854152    8.2081307327   -2.2269515993
Atom SCF converged after  32 iterations to a total energy of     -9.67927084

Atom SCF Calculation for H  : Z (AE atom) =   1 : Z (PS atom) =   1
Config String:
Orbitals (num,occ):  1     1.00
Orbitals   (num,l):  1        0
Real-space Grid (nr,dr,rmax): 1203    0.0066555740    8.0000000000
Spherical Bessel Basis (nsws,lmax,cutoff):   47    0  176.3951722778
Confining potential (l,width,scale):  0    3.0000000000  100.0000000000
  1         -0.3113196429   -0.2409477661    0.2820953124   -0.2411487446
  2         -0.3944405350   -0.2385116628    0.2890208891   -0.2498343930
  3         -0.4360599314   -0.2357686975    0.2928790338   -0.2550698311
  4         -0.4516191135   -0.2350237069    0.2939653690   -0.2569119237
  5         -0.4572820083   -0.2348967328    0.2941823017   -0.2574986468
  6         -0.4593767844   -0.2349021805    0.2941970985   -0.2576826683
  7         -0.4601714750   -0.2349212656    0.2941813626   -0.2577413902
  8         -0.4604802364   -0.2349338625    0.2941687305   -0.2577607641
  9         -0.4606025362   -0.2349403631    0.2941618217   -0.2577674206
 10         -0.4606516810   -0.2349434027    0.2941585053   -0.2577698038
 11         -0.4606716326   -0.2349447548    0.2941570091   -0.2577706895
 12         -0.4606797900   -0.2349453396    0.2941563564   -0.2577710289
 13         -0.4606831414   -0.2349455884    0.2941560773   -0.2577711621
 14         -0.4606845228   -0.2349456932    0.2941559594   -0.2577712153
 15         -0.4606850934   -0.2349457371    0.2941559099   -0.2577712369
 16         -0.4606853295   -0.2349457554    0.2941558892   -0.2577712456
 17         -0.4606854273   -0.2349457629    0.2941558806   -0.2577712492
Atom SCF converged after  17 iterations to a total energy of     -0.46068543

Atom SCF Calculation for C  : Z (AE atom) =   6 : Z (PS atom) =   4
Config String:
Orbitals (num,occ):  2     2.00 2.00
Orbitals   (num,l):  2        0    1
Real-space Grid (nr,dr,rmax): 1203    0.0066555740    8.0000000000
Spherical Bessel Basis (nsws,lmax,cutoff):   47    1  176.3951722778
Confining potential (l,width,scale):  0    3.0000000000  100.0000000000
Confining potential (l,width,scale):  1    3.0000000000  100.0000000000
  1         -5.2693777228   -1.2877532505    4.5135249990   -1.4305993142
  2         -5.3365227757   -1.3323295489    4.4657513615   -1.4196127907
  3         -5.3733098109   -1.3456729697    4.4512270183   -1.4183019279
  4         -5.3839796038   -1.3513025764    4.4450375062   -1.4180466599
  5         -5.3868514120   -1.3535693106    4.4425354897   -1.4180394921
  6         -5.3875089733   -1.3544515429    4.4415603494   -1.4180780243
  7         -5.3875754244   -1.3547901367    4.4411861035   -1.4181110295
  8         -5.3875195890   -1.3549189050    4.4410439108   -1.4181318379
  9         -5.3874618680   -1.3549675143    4.4409903245   -1.4181434793
 10         -5.3874310972   -1.3549820855    4.4409743002   -1.4181483685
 11         -5.3874107979   -1.3549893298    4.4409663482   -1.4181513220
 12         -5.3873978694   -1.3549929189    4.4409624173   -1.4181530849
 13         -5.3873898364   -1.3549946896    4.4409604830   -1.4181541273
 14         -5.3873849353   -1.3549955588    4.4409595364   -1.4181547390
 15         -5.3873819861   -1.3549959831    4.4409590761   -1.4181550957
 16         -5.3873802306   -1.3549961887    4.4409588541   -1.4181553027
 17         -5.3873791949   -1.3549962875    4.4409587480   -1.4181554222
 18         -5.3873785880   -1.3549963344    4.4409586979   -1.4181554910
 19         -5.3873782346   -1.3549963565    4.4409586746   -1.4181555304
 20         -5.3873780298   -1.3549963666    4.4409586640   -1.4181555530
 21         -5.3873779116   -1.3549963712    4.4409586593   -1.4181555658
 22         -5.3873778437   -1.3549963732    4.4409586573   -1.4181555732
Atom SCF converged after  22 iterations to a total energy of     -5.38737784

Atom SCF Calculation for S  : Z (AE atom) =  16 : Z (PS atom) =   6
Config String:
Orbitals (num,occ):  3     2.00 4.00 0.00
Orbitals   (num,l):  3        0    1    2
Real-space Grid (nr,dr,rmax): 1203    0.0066555740    8.0000000000
Spherical Bessel Basis (nsws,lmax,cutoff):   47    2  176.3951722778
Confining potential (l,width,scale):  0    3.0000000000  100.0000000000
Confining potential (l,width,scale):  1    3.0000000000  100.0000000000
Confining potential (l,width,scale):  2    3.0000000000  100.0000000000
  1        -12.5283336347   -1.0013338836   10.1554312477   -2.4174677201
  2         -9.7849695337   -2.4989611986    8.2134743506   -1.9762637204
  3        -10.1259261666   -2.2526049010    8.4775731108   -2.0458353546
  4        -10.1239865120   -2.2378704469    8.4945934226   -2.0534866629
  5        -10.1261039751   -2.2288435510    8.5048825038   -2.0581373158
  6        -10.1272507918   -2.2250862078    8.5091521192   -2.0601689919
  7        -10.1279932566   -2.2228087338    8.5117370263   -2.0614492091
  8        -10.1284637245   -2.2214320698    8.5132987140   -2.0622522845
  9        -10.1287626908   -2.2205988902    8.5142437482   -2.0627554732
 10        -10.1289546369   -2.2200932921    8.5148172759   -2.0630708724
 11        -10.1290791799   -2.2197855833    8.5151664042   -2.0632687591
 12        -10.1291606570   -2.2195978043    8.5153795223   -2.0633930653
 13        -10.1292142534   -2.2194829439    8.5155099260   -2.0634712474
 14        -10.1292496213   -2.2194125466    8.5155898783   -2.0635204792
 15        -10.1292729946   -2.2193693272    8.5156389817   -2.0635515168
 16        -10.1292884463   -2.2193427544    8.5156691835   -2.0635711056
 17        -10.1292986575   -2.2193263948    8.5156877839   -2.0635834819
 18        -10.1293054004   -2.2193163109    8.5156992531   -2.0635913093
 19        -10.1293098486   -2.2193100881    8.5157063331   -2.0635962646
 20        -10.1293127800   -2.2193062437    8.5157107085   -2.0635994047
 21        -10.1293147098   -2.2193038661    8.5157134154   -2.0636013963
 22        -10.1293159788   -2.2193023940    8.5157150917   -2.0636026607
 23        -10.1293168125   -2.2193014816    8.5157161310   -2.0636034641
 24        -10.1293173597   -2.2193009155    8.5157167761   -2.0636039750
 25        -10.1293177186   -2.2193005638    8.5157171769   -2.0636043002
 26        -10.1293179538   -2.2193003451    8.5157174262   -2.0636045074
 27        -10.1293181078   -2.2193002089    8.5157175814   -2.0636046395
 28        -10.1293182086   -2.2193001240    8.5157176782   -2.0636047237
 29        -10.1293182745   -2.2193000710    8.5157177386   -2.0636047775
Atom SCF converged after  29 iterations to a total energy of    -10.12931827

Atom SCF Calculation for O  : Z (AE atom) =   8 : Z (PS atom) =   6
Config String:
Orbitals (num,occ):  2     2.00 4.00
Orbitals   (num,l):  2        0    1
Real-space Grid (nr,dr,rmax): 1203    0.0066555740    8.0000000000
Spherical Bessel Basis (nsws,lmax,cutoff):   47    1  176.3951722778
Confining potential (l,width,scale):  0    3.0000000000  100.0000000000
Confining potential (l,width,scale):  1    3.0000000000  100.0000000000
  1         -1.7080722297   -7.5640505253   10.1554312477   -2.4174677201
  2        -16.1263011198   -3.0821855690   13.6696026363   -3.2396436226
  3        -15.9244673468   -3.0726325746   13.6814805792   -3.2476092574
  4        -15.8573288987   -3.0670117467   13.6882774297   -3.2520880618
  5        -15.8336465257   -3.0663656103   13.6892309711   -3.2533931796
  6        -15.8219715940   -3.0659812931   13.6897814011   -3.2541232529
  7        -15.8159298089   -3.0658367134   13.6900093837   -3.2545066783
  8        -15.8128098120   -3.0657852377   13.6901029676   -3.2547083587
  9        -15.8111983525   -3.0657695213   13.6901400052   -3.2548145289
 10        -15.8103655433   -3.0657666144   13.6901537351   -3.2548704921
 11        -15.8099347793   -3.0657676485   13.6901582071   -3.2549000342
 12        -15.8097117541   -3.0657694273   13.6901592350   -3.2549156531
 13        -15.8095961662   -3.0657709604   13.6901591353   -3.2549239235
 14        -15.8095361976   -3.0657720564   13.6901587727   -3.2549283095
 15        -15.8095050528   -3.0657727732   13.6901584317   -3.2549306388
 16        -15.8094888611   -3.0657732184   13.6901581795   -3.2549318776
 17        -15.8094804347   -3.0657734855   13.6901580117   -3.2549325373
 18        -15.8094760452   -3.0657736419   13.6901579063   -3.2549328891
 19        -15.8094737563   -3.0657737319   13.6901578427   -3.2549330769
 20        -15.8094725618   -3.0657737830   13.6901578053   -3.2549331772
 21        -15.8094719377   -3.0657738116   13.6901577837   -3.2549332309
 22        -15.8094716114   -3.0657738275   13.6901577715   -3.2549332597
 23        -15.8094714406   -3.0657738363   13.6901577646   -3.2549332751
 24        -15.8094713512   -3.0657738411   13.6901577608   -3.2549332834
Atom SCF converged after  24 iterations to a total energy of    -15.80947135

========================== Calculation in vacuum ==============================
= Adjusting the following parameters: 
= is_implicit_solvent: F
= is_include_apolar: F
= write_denskern: T
= write_tightbox_ngwfs: T
= restart read filename prefix: ""
= restart write filename prefix: "vacuum_"
===============================================================================

Determining parallel strategy ...
... using space-filling curve
... NGWF load balancing: max    219;  min    218;  average    218
... Projector load balancing: max     47;  min     43;  average     44
... done
Calculating direct Ion-Ion energy ...
Ion-Ion Energy        :    837572.82712686434388
======================= Empirical dispersion information =======================
Model : Elstner
Dispersion Correction Energy: -0.47527597E+01 Hartree
================================================================================
Basis initialisation ...... NGWF spheres initialised
... Projector spheres initialised
... NGWF tight boxes initialised
... Tight-boxes gathered
... NGWF basis size (local,global):    1301518  39256995
... Nonlocal pseudopotential projector initialisation
... done

========================== Sparse matrix information ===========================
                        Overlap matrix filling:   6.84%
                        Density kernel filling: 100.00%
              NGWF-Proj overlap matrix filling:   1.79%
                    Hamiltonian matrix filling:   7.75%
                  NGWF diagonal matrix filling:   0.05%
                             KS matrix filling: 100.00% 
                           KSKS matrix filling: 100.00% 
================================================================================

Sparse matrix initialisation ... done

Generating smeared ion density ... done
Smeared ion self correction:     -14534.963309
Smeared ion non-self correction: -837524.529101
NGWF initialisation ...... done
============ Calculation of NGWF S^-1 using Hotelling algorithm ================ 
         Iteration  |  Frobenius norm and Maximum abs value    (of I-S*S_n^-1)   
               1       0.78709796E+02     0.98247506E+00
               2       0.76848822E+02     0.96539251E+00
               3       0.73844166E+02     0.93248622E+00
               4       0.69585356E+02     0.87177550E+00
               5       0.64284031E+02     0.76769711E+00
               6       0.58315365E+02     0.70506974E+00
               7       0.52295260E+02     0.67286414E+00
               8       0.46714268E+02     0.64513971E+00
               9       0.40617768E+02     0.60666907E+00
              10       0.32329720E+02     0.54011034E+00
              11       0.21739785E+02     0.43236429E+00
              12       0.11118996E+02     0.28403960E+00
              13       0.36653768E+01     0.12945207E+00
              14       0.57587593E+00     0.36187562E-01
              15       0.26767608E-01     0.33294019E-02
              16       0.14575698E-03     0.29654531E-04
              17       0.87240383E-08     0.24004541E-08
              18       0.98184767E-13     0.71054274E-14
================================================================================
Calculating local pseudopotential in open BC on the fine real space grid ...
... done

MG BCs: +ve charge blocks (gridpoints):     20621 (   16121563).
MG BCs: -ve charge blocks (gridpoints):      8129 (    1106494).
MG BCs:     Elided blocks (gridpoints):    180019 (  179068408).
MG BCs: Computational effort saved:  99.9854%.
MG BCs: Charge after coarse-graining:           -9.0002292.
MG DL_MG: Calling solver with defect correction order = 8
MG DL_MG: Solver finished
MG Hartree energy from (\int phi*rho dr):              1468.023184
MG Hartree energy from (\int eps (grad phi)^2 dr):     1467.407422
MG Discrepancy due to finite box and discretization:     -0.615762 (  -0.04194%)
MG Correction to account for finite box:                  0.464201
MG Remaining discrepancy, due to discretization:         -0.151561 (  -0.01032%)
Up spin density kernel initialisation ... 
======= Optimisation of K by Palser-Manolopoulos canonical purification ======== 
         Iteration  |  Band structure energy |    c_n   
               1       -2583.21468188211338    0.5263211
               2       -2759.54503490022080    0.5169301
               3       -2939.82921784787595    0.5160719
               4       -3089.52991552826461    0.5308603
               5       -3180.62877464289386    0.5684048
               6       -3218.29268372961087    0.6128728
               7       -3231.16495977482737    0.6227490
               8       -3236.85989516894097    0.6219541
               9       -3239.61258280947004    0.6394465
              10       -3240.73414753161796    0.6641599
              11       -3241.17524883358328    0.6702130
              12       -3241.37943114687732    0.6387245
              13       -3241.49478233763875    0.5532446
              14       -3241.56635567473995    0.4170775
              15       -3241.58493918612021    0.3737187
              16       -3241.58638520444447    0.4046379
              17       -3241.58762775169544    0.4257614
              18       -3241.58844621884737    0.4412632
              19       -3241.58878272961465    0.4730320
              20       -3241.58887298355694    0.4961348
              21       -3241.58888500865396    0.4999266
              22       -3241.58888531574303    0.4999266
Termination criterion satisfied: band energy change below threshold.

WARNING in palser_mano_kernel_optimise: Possible degeneracy at fermi level

Diagonalisation (maxit_palser_mano=-1) may be required.
Final occupancy bounds: [    0.00000002265064:    0.99999999866689]
Closest occupancy to 0.5:     0.51039176727067
================================================================================
... done

Writing density kernel to file "complex_2001.vacuum_dkn" ... done

>>> Optimising kernel for current NGWFs:
   Initial electron number for spin 1:    7234.00000000
     Final electron number for spin 1:    7234.00000000

=================== Penalty functional idempotency correction ==================
 RMS occupancy error at iteration   1:  0.004368 (step ******* Ne1=   7234.0000)
            Final RMS occupancy error   :  0.000000 (Ne1=   7234.0000)
               Final occupancy bounds   : [  0.0000,  1.0000]
================================================================================

................................................................................
<<<<<<<<<<<<<< LNV (Original version) density kernel optimisation >>>>>>>>>>>>>>
~~~~~~~~~~~~~~~~~~~~~~~~~~~~~~~~~~~~~~~~~~~~~~~~~~~~~~~~~~~~~~~~~~~~~~~~~~~~~~~~
   iter  |      energy (Eh)       | rms gradient |  commutator  |   dE (Eh)
MG BCs: +ve charge blocks (gridpoints):     31181 (   17272843).
MG BCs: -ve charge blocks (gridpoints):      8449 (    1137285).
MG BCs:     Elided blocks (gridpoints):    169453 (  177886337).
MG BCs: Computational effort saved:  99.9798%.
MG BCs: Charge after coarse-graining:           -9.0009870.
MG DL_MG: Calling solver with defect correction order = 8
MG DL_MG: Solver finished
MG Hartree energy from (\int phi*rho dr):              1421.172044
MG Hartree energy from (\int eps (grad phi)^2 dr):     1420.501225
MG Discrepancy due to finite box and discretization:     -0.670819 (  -0.04720%)
MG Correction to account for finite box:                  0.477779
MG Remaining discrepancy, due to discretization:         -0.193040 (  -0.01358%)
      ideal mu1:      -0.693811112847
             Q0:  -11526.512215889990
             G0:    -157.172820365058
   RMS gradient:       0.001915486398
MG BCs: +ve charge blocks (gridpoints):     31143 (   17352322).
MG BCs: -ve charge blocks (gridpoints):      8340 (    1117698).
MG BCs:     Elided blocks (gridpoints):    169487 (  177826445).
MG BCs: Computational effort saved:  99.9799%.
MG BCs: Charge after coarse-graining:           -9.0010098.
MG DL_MG: Calling solver with defect correction order = 8
MG DL_MG: Solver finished
MG Hartree energy from (\int phi*rho dr):              1442.997263
MG Hartree energy from (\int eps (grad phi)^2 dr):     1442.344516
MG Discrepancy due to finite box and discretization:     -0.652746 (  -0.04524%)
MG Correction to account for finite box:                  0.476224
MG Remaining discrepancy, due to discretization:         -0.176522 (  -0.01223%)
     Trial step:       0.500000000000
             Q1:  -11538.972243340220
 Quadratic coef:      66.126382732298
 Linear coef   :     -78.586410182529
           Qmin:  -11549.860778181604
Quadratic minimum step length (  0.297106869208) accepted
    Initial Ne1:    7233.99999441
      Final Ne1:    7234.00000000

=================== Penalty functional idempotency correction ==================
 RMS occupancy error at iteration   1:  0.003700 (step -0.4875 Ne1=   7234.0000)
 RMS occupancy error at iteration   2:  0.000031 (step -0.5001 Ne1=   7234.0000)
            Final RMS occupancy error   :  0.000000 (Ne1=   7234.0000)
               Final occupancy bounds   : [  0.0000,  1.0000]
================================================================================

    1        -1.152651221589E+04     1.9155E-03     1.7330E-03
MG BCs: +ve charge blocks (gridpoints):     31145 (   17321369).
MG BCs: -ve charge blocks (gridpoints):      8377 (    1126359).
MG BCs:     Elided blocks (gridpoints):    169486 (  177848737).
MG BCs: Computational effort saved:  99.9799%.
MG BCs: Charge after coarse-graining:           -9.0010004.
MG DL_MG: Calling solver with defect correction order = 8
MG DL_MG: Solver finished
MG Hartree energy from (\int phi*rho dr):              1425.520589
MG Hartree energy from (\int eps (grad phi)^2 dr):     1424.861587
MG Discrepancy due to finite box and discretization:     -0.659001 (  -0.04623%)
MG Correction to account for finite box:                  0.476708
MG Remaining discrepancy, due to discretization:         -0.182293 (  -0.01279%)
      ideal mu1:      -0.737166229949
             Q0:  -11550.328918316984
             G0:     -12.607386703303
   RMS gradient:       0.000538427571
MG BCs: +ve charge blocks (gridpoints):     31149 (   17337664).
MG BCs: -ve charge blocks (gridpoints):      8352 (    1121413).
MG BCs:     Elided blocks (gridpoints):    169482 (  177837388).
MG BCs: Computational effort saved:  99.9799%.
MG BCs: Charge after coarse-graining:           -9.0010041.
MG DL_MG: Calling solver with defect correction order = 8
MG DL_MG: Solver finished
MG Hartree energy from (\int phi*rho dr):              1430.185440
MG Hartree energy from (\int eps (grad phi)^2 dr):     1429.530725
MG Discrepancy due to finite box and discretization:     -0.654714 (  -0.04578%)
MG Correction to account for finite box:                  0.475633
MG Remaining discrepancy, due to discretization:         -0.179081 (  -0.01252%)
     Trial step:       0.385426302429
             Q1:  -11553.320324837929
 Quadratic coef:       1.867811919399
 Linear coef   :      -4.859218440344
           Qmin:  -11553.489301277086
Quadratic minimum step length (  0.501354171880) accepted
    Initial Ne1:    7233.99986825
      Final Ne1:    7234.00000000

=================== Penalty functional idempotency correction ==================
 RMS occupancy error at iteration   1:  0.001934 (step -0.4925 Ne1=   7234.0000)
 RMS occupancy error at iteration   2:  0.000013 (step -0.5001 Ne1=   7234.0000)
            Final RMS occupancy error   :  0.000000 (Ne1=   7234.0000)
               Final occupancy bounds   : [  0.0000,  1.0000]
================================================================================

    2        -1.155032891832E+04     5.3843E-04     4.8715E-04    -2.3817E+01
MG BCs: +ve charge blocks (gridpoints):     31147 (   17342607).
MG BCs: -ve charge blocks (gridpoints):      8343 (    1119859).
MG BCs:     Elided blocks (gridpoints):    169483 (  177833999).
MG BCs: Computational effort saved:  99.9799%.
MG BCs: Charge after coarse-graining:           -9.0010053.
MG DL_MG: Calling solver with defect correction order = 8
MG DL_MG: Solver finished
MG Hartree energy from (\int phi*rho dr):              1431.644926
MG Hartree energy from (\int eps (grad phi)^2 dr):     1430.991406
MG Discrepancy due to finite box and discretization:     -0.653520 (  -0.04565%)
MG Correction to account for finite box:                  0.475334
MG Remaining discrepancy, due to discretization:         -0.178186 (  -0.01245%)
      ideal mu1:      -0.761499082964
             Q0:  -11553.530325536383
             G0:      -2.126742566291
   RMS gradient:       0.000221371125
MG BCs: +ve charge blocks (gridpoints):     31152 (   17342765).
MG BCs: -ve charge blocks (gridpoints):      8346 (    1120499).
MG BCs:     Elided blocks (gridpoints):    169479 (  177833201).
MG BCs: Computational effort saved:  99.9799%.
MG BCs: Charge after coarse-graining:           -9.0010049.
MG DL_MG: Calling solver with defect correction order = 8
MG DL_MG: Solver finished
MG Hartree energy from (\int phi*rho dr):              1429.787939
MG Hartree energy from (\int eps (grad phi)^2 dr):     1429.135029
MG Discrepancy due to finite box and discretization:     -0.652911 (  -0.04566%)
MG Correction to account for finite box:                  0.474874
MG Remaining discrepancy, due to discretization:         -0.178036 (  -0.01245%)
     Trial step:       0.439585127905
             Q1:  -11554.085222903639
 Quadratic coef:       0.379987035767
 Linear coef   :      -0.934884403023
           Qmin:  -11554.105350974589
Quadratic minimum step length (  0.540756974839) accepted
    Initial Ne1:    7233.99992460
      Final Ne1:    7234.00000000

=================== Penalty functional idempotency correction ==================
 RMS occupancy error at iteration   1:  0.000739 (step -0.4965 Ne1=   7234.0000)
 RMS occupancy error at iteration   2:  0.000004 (step -0.5000 Ne1=   7234.0000)
            Final RMS occupancy error   :  0.000000 (Ne1=   7234.0000)
               Final occupancy bounds   : [  0.0000,  1.0000]
================================================================================

    3        -1.155353032554E+04     2.2137E-04     2.0029E-04    -3.2014E+00
MG BCs: +ve charge blocks (gridpoints):     31149 (   17342824).
MG BCs: -ve charge blocks (gridpoints):      8351 (    1120692).
MG BCs:     Elided blocks (gridpoints):    169482 (  177832949).
MG BCs: Computational effort saved:  99.9799%.
MG BCs: Charge after coarse-graining:           -9.0010048.
MG DL_MG: Calling solver with defect correction order = 8
MG DL_MG: Solver finished
MG Hartree energy from (\int phi*rho dr):              1429.370002
MG Hartree energy from (\int eps (grad phi)^2 dr):     1428.717217
MG Discrepancy due to finite box and discretization:     -0.652785 (  -0.04567%)
MG Correction to account for finite box:                  0.474770
MG Remaining discrepancy, due to discretization:         -0.178015 (  -0.01245%)
      ideal mu1:      -0.763111760885
             Q0:  -11554.111704342184
             G0:      -0.604503541814
   RMS gradient:       0.000118059607
MG BCs: +ve charge blocks (gridpoints):     31148 (   17343846).
MG BCs: -ve charge blocks (gridpoints):      8349 (    1120484).
MG BCs:     Elided blocks (gridpoints):    169482 (  177832135).
MG BCs: Computational effort saved:  99.9799%.
MG BCs: Charge after coarse-graining:           -9.0010051.
MG DL_MG: Calling solver with defect correction order = 8
MG DL_MG: Solver finished
MG Hartree energy from (\int phi*rho dr):              1430.580307
MG Hartree energy from (\int eps (grad phi)^2 dr):     1429.927582
MG Discrepancy due to finite box and discretization:     -0.652725 (  -0.04563%)
MG Correction to account for finite box:                  0.474613
MG Remaining discrepancy, due to discretization:         -0.178113 (  -0.01245%)
     Trial step:       0.487553816465
             Q1:  -11554.262474247487
 Quadratic coef:       0.143958103574
 Linear coef   :      -0.294728008878
           Qmin:  -11554.262554827605
Quadratic minimum step length (  0.499088838976) accepted
    Initial Ne1:    7233.99998021
      Final Ne1:    7234.00000000

=================== Penalty functional idempotency correction ==================
 RMS occupancy error at iteration   1:  0.000354 (step -0.4946 Ne1=   7234.0000)
 RMS occupancy error at iteration   2:  0.000004 (step -0.5000 Ne1=   7234.0000)
            Final RMS occupancy error   :  0.000000 (Ne1=   7234.0000)
               Final occupancy bounds   : [  0.0000,  1.0000]
================================================================================

    4        -1.155411170434E+04     1.1806E-04     1.0682E-04    -5.8138E-01
MG BCs: +ve charge blocks (gridpoints):     31150 (   17343860).
MG BCs: -ve charge blocks (gridpoints):      8349 (    1120478).
MG BCs:     Elided blocks (gridpoints):    169480 (  177832127).
MG BCs: Computational effort saved:  99.9799%.
MG BCs: Charge after coarse-graining:           -9.0010051.
MG DL_MG: Calling solver with defect correction order = 8
MG DL_MG: Solver finished
MG Hartree energy from (\int phi*rho dr):              1430.609706
MG Hartree energy from (\int eps (grad phi)^2 dr):     1429.956982
MG Discrepancy due to finite box and discretization:     -0.652724 (  -0.04563%)
MG Correction to account for finite box:                  0.474609
MG Remaining discrepancy, due to discretization:         -0.178115 (  -0.01245%)
      ideal mu1:      -0.763239261535
             Q0:  -11554.263474790263
             G0:      -0.232820437579
   RMS gradient:       0.000073518478
MG BCs: +ve charge blocks (gridpoints):     31149 (   17344022).
MG BCs: -ve charge blocks (gridpoints):      8349 (    1120310).
MG BCs:     Elided blocks (gridpoints):    169481 (  177832133).
MG BCs: Computational effort saved:  99.9799%.
MG BCs: Charge after coarse-graining:           -9.0010051.
MG DL_MG: Calling solver with defect correction order = 8
MG DL_MG: Solver finished
MG Hartree energy from (\int phi*rho dr):              1431.079921
MG Hartree energy from (\int eps (grad phi)^2 dr):     1430.427018
MG Discrepancy due to finite box and discretization:     -0.652903 (  -0.04562%)
MG Correction to account for finite box:                  0.474595
MG Remaining discrepancy, due to discretization:         -0.178308 (  -0.01246%)
     Trial step:       0.493287612046
             Q1:  -11554.342040751246
 Quadratic coef:       0.036281476707
 Linear coef   :      -0.114847437689
           Qmin:  -11554.354360933421
Quadratic minimum step length (  0.780740248599) accepted
    Initial Ne1:    7233.99998768
      Final Ne1:    7234.00000000

=================== Penalty functional idempotency correction ==================
 RMS occupancy error at iteration   1:  0.000754 (step -0.4572 Ne1=   7234.0000)
 RMS occupancy error at iteration   2:  0.000026 (step -0.4999 Ne1=   7234.0000)
            Final RMS occupancy error   :  0.000000 (Ne1=   7234.0000)
               Final occupancy bounds   : [  0.0000,  1.0000]
================================================================================

    5        -1.155426347479E+04     7.3518E-05     6.6516E-05    -1.5177E-01
MG BCs: +ve charge blocks (gridpoints):     31150 (   17344094).
MG BCs: -ve charge blocks (gridpoints):      8347 (    1120249).
MG BCs:     Elided blocks (gridpoints):    169480 (  177832122).
MG BCs: Computational effort saved:  99.9799%.
MG BCs: Charge after coarse-graining:           -9.0010050.
MG DL_MG: Calling solver with defect correction order = 8
MG DL_MG: Solver finished
MG Hartree energy from (\int phi*rho dr):              1431.351213
MG Hartree energy from (\int eps (grad phi)^2 dr):     1430.698203
MG Discrepancy due to finite box and discretization:     -0.653011 (  -0.04562%)
MG Correction to account for finite box:                  0.474589
MG Remaining discrepancy, due to discretization:         -0.178422 (  -0.01247%)
      ideal mu1:      -0.762884034346
             Q0:  -11554.352096165298
             G0:      -0.258349210144
   RMS gradient:       0.000078922695
MG BCs: +ve charge blocks (gridpoints):     31149 (   17343166).
MG BCs: -ve charge blocks (gridpoints):      8351 (    1120725).
MG BCs:     Elided blocks (gridpoints):    169481 (  177832574).
MG BCs: Computational effort saved:  99.9799%.
MG BCs: Charge after coarse-graining:           -9.0010048.
MG DL_MG: Calling solver with defect correction order = 8
MG DL_MG: Solver finished
MG Hartree energy from (\int phi*rho dr):              1429.726492
MG Hartree energy from (\int eps (grad phi)^2 dr):     1429.073405
MG Discrepancy due to finite box and discretization:     -0.653087 (  -0.04568%)
MG Correction to account for finite box:                  0.474639
MG Remaining discrepancy, due to discretization:         -0.178448 (  -0.01248%)
     Trial step:       0.620588021847
             Q1:  -11554.462380127050
 Quadratic coef:       0.050044463516
 Linear coef   :      -0.160328425269
           Qmin:  -11554.480507992217
Quadratic minimum step length (  0.994094983666) accepted
    Initial Ne1:    7233.99995210
      Final Ne1:    7234.00000000

=================== Penalty functional idempotency correction ==================
 RMS occupancy error at iteration   1:  0.005016 (step -0.2965 Ne1=   7234.0000)
 RMS occupancy error at iteration   2:  0.000463 (step -0.4791 Ne1=   7234.0000)
 RMS occupancy error at iteration   3:  0.000015 (step -0.5005 Ne1=   7234.0000)
            Final RMS occupancy error   :  0.000000 (Ne1=   7234.0000)
               Final occupancy bounds   : [  0.0000,  1.0000]
================================================================================

    6        -1.155435209617E+04     7.8923E-05     7.1406E-05    -8.8621E-02
MG BCs: +ve charge blocks (gridpoints):     31149 (   17342617).
MG BCs: -ve charge blocks (gridpoints):      8352 (    1121015).
MG BCs:     Elided blocks (gridpoints):    169481 (  177832833).
MG BCs: Computational effort saved:  99.9799%.
MG BCs: Charge after coarse-graining:           -9.0010047.
MG DL_MG: Calling solver with defect correction order = 8
MG DL_MG: Solver finished
MG Hartree energy from (\int phi*rho dr):              1428.786811
MG Hartree energy from (\int eps (grad phi)^2 dr):     1428.133678
MG Discrepancy due to finite box and discretization:     -0.653134 (  -0.04571%)
MG Correction to account for finite box:                  0.474664
MG Remaining discrepancy, due to discretization:         -0.178470 (  -0.01249%)
      ideal mu1:      -0.761906203841
             Q0:  -11554.463580503128
             G0:      -0.389532774352
   RMS gradient:       0.000095359146
MG BCs: +ve charge blocks (gridpoints):     31150 (   17344725).
MG BCs: -ve charge blocks (gridpoints):      8350 (    1120066).
MG BCs:     Elided blocks (gridpoints):    169481 (  177831674).
MG BCs: Computational effort saved:  99.9799%.
MG BCs: Charge after coarse-graining:           -9.0010053.
MG DL_MG: Calling solver with defect correction order = 8
MG DL_MG: Solver finished
MG Hartree energy from (\int phi*rho dr):              1431.090467
MG Hartree energy from (\int eps (grad phi)^2 dr):     1430.437570
MG Discrepancy due to finite box and discretization:     -0.652897 (  -0.04562%)
MG Correction to account for finite box:                  0.474755
MG Remaining discrepancy, due to discretization:         -0.178142 (  -0.01245%)
     Trial step:       0.785444739903
             Q1:  -11554.587476982852
 Quadratic coef:       0.182059988912
 Linear coef   :      -0.305956468635
           Qmin:  -11554.592122421178
Quadratic minimum step length (  0.659979988915) accepted
    Initial Ne1:    7233.99979950
      Final Ne1:    7234.00000000

=================== Penalty functional idempotency correction ==================
 RMS occupancy error at iteration   1:  0.000214 (step -0.4872 Ne1=   7234.0000)
 RMS occupancy error at iteration   2:  0.000002 (step -0.5000 Ne1=   7234.0000)
            Final RMS occupancy error   :  0.000000 (Ne1=   7234.0000)
               Final occupancy bounds   : [  0.0000,  1.0000]
================================================================================

    7        -1.155446358050E+04     9.5359E-05     8.6277E-05    -1.1148E-01
MG BCs: +ve charge blocks (gridpoints):     31151 (   17344418).
MG BCs: -ve charge blocks (gridpoints):      8350 (    1120215).
MG BCs:     Elided blocks (gridpoints):    169480 (  177831832).
MG BCs: Computational effort saved:  99.9799%.
MG BCs: Charge after coarse-graining:           -9.0010052.
MG DL_MG: Calling solver with defect correction order = 8
MG DL_MG: Solver finished
MG Hartree energy from (\int phi*rho dr):              1430.720791
MG Hartree energy from (\int eps (grad phi)^2 dr):     1430.067859
MG Discrepancy due to finite box and discretization:     -0.652932 (  -0.04564%)
MG Correction to account for finite box:                  0.474738
MG Remaining discrepancy, due to discretization:         -0.178194 (  -0.01245%)
      ideal mu1:      -0.763446354070
             Q0:  -11554.592334603076
             G0:      -0.257953533699
   RMS gradient:       0.000077556664
MG BCs: +ve charge blocks (gridpoints):     31150 (   17344490).
MG BCs: -ve charge blocks (gridpoints):      8348 (    1120087).
MG BCs:     Elided blocks (gridpoints):    169481 (  177831888).
MG BCs: Computational effort saved:  99.9799%.
MG BCs: Charge after coarse-graining:           -9.0010051.
MG DL_MG: Calling solver with defect correction order = 8
MG DL_MG: Solver finished
MG Hartree energy from (\int phi*rho dr):              1430.696887
MG Hartree energy from (\int eps (grad phi)^2 dr):     1430.043863
MG Discrepancy due to finite box and discretization:     -0.653024 (  -0.04564%)
MG Correction to account for finite box:                  0.474990
MG Remaining discrepancy, due to discretization:         -0.178034 (  -0.01244%)
     Trial step:       0.719984590623
             Q1:  -11554.683105411823
 Quadratic coef:       0.094951760613
 Linear coef   :      -0.185722569360
           Qmin:  -11554.683151436137
Quadratic minimum step length (  0.704133273604) accepted
    Initial Ne1:    7233.99985817
      Final Ne1:    7234.00000000

=================== Penalty functional idempotency correction ==================
 RMS occupancy error at iteration   1:  0.000910 (step -0.4503 Ne1=   7234.0000)
 RMS occupancy error at iteration   2:  0.000017 (step -0.4998 Ne1=   7234.0000)
            Final RMS occupancy error   :  0.000000 (Ne1=   7234.0000)
               Final occupancy bounds   : [ -0.0000,  1.0000]
================================================================================

    8        -1.155459233460E+04     7.7557E-05     7.0170E-05    -1.2875E-01
MG BCs: +ve charge blocks (gridpoints):     31150 (   17344500).
MG BCs: -ve charge blocks (gridpoints):      8348 (    1120073).
MG BCs:     Elided blocks (gridpoints):    169481 (  177831892).
MG BCs: Computational effort saved:  99.9799%.
MG BCs: Charge after coarse-graining:           -9.0010051.
MG DL_MG: Calling solver with defect correction order = 8
MG DL_MG: Solver finished
MG Hartree energy from (\int phi*rho dr):              1430.698093
MG Hartree energy from (\int eps (grad phi)^2 dr):     1430.045075
MG Discrepancy due to finite box and discretization:     -0.653019 (  -0.04564%)
MG Correction to account for finite box:                  0.474981
MG Remaining discrepancy, due to discretization:         -0.178038 (  -0.01244%)
      ideal mu1:      -0.763140418681
             Q0:  -11554.683816498728
             G0:      -0.163387717646
   RMS gradient:       0.000061332018
MG BCs: +ve charge blocks (gridpoints):     31148 (   17343650).
MG BCs: -ve charge blocks (gridpoints):      8347 (    1120526).
MG BCs:     Elided blocks (gridpoints):    169483 (  177832289).
MG BCs: Computational effort saved:  99.9799%.
MG BCs: Charge after coarse-graining:           -9.0010049.
MG DL_MG: Calling solver with defect correction order = 8
MG DL_MG: Solver finished
MG Hartree energy from (\int phi*rho dr):              1429.794831
MG Hartree energy from (\int eps (grad phi)^2 dr):     1429.141533
MG Discrepancy due to finite box and discretization:     -0.653299 (  -0.04569%)
MG Correction to account for finite box:                  0.475304
MG Remaining discrepancy, due to discretization:         -0.177995 (  -0.01245%)
     Trial step:       0.712014821994
             Q1:  -11554.742535462370
 Quadratic coef:       0.057615513053
 Linear coef   :      -0.116334476695
           Qmin:  -11554.742540745683
Quadratic minimum step length (  0.718833065324) accepted
    Initial Ne1:    7233.99994352
      Final Ne1:    7234.00000000

=================== Penalty functional idempotency correction ==================
 RMS occupancy error at iteration   1:  0.001578 (step -0.4218 Ne1=   7234.0000)
 RMS occupancy error at iteration   2:  0.000026 (step -0.4995 Ne1=   7234.0000)
            Final RMS occupancy error   :  0.000000 (Ne1=   7234.0000)
               Final occupancy bounds   : [ -0.0000,  1.0000]
================================================================================

    9        -1.155468381650E+04     6.1332E-05     5.5490E-05    -9.1482E-02
MG BCs: +ve charge blocks (gridpoints):     31148 (   17343644).
MG BCs: -ve charge blocks (gridpoints):      8347 (    1120527).
MG BCs:     Elided blocks (gridpoints):    169483 (  177832294).
MG BCs: Computational effort saved:  99.9799%.
MG BCs: Charge after coarse-graining:           -9.0010049.
MG DL_MG: Calling solver with defect correction order = 8
MG DL_MG: Solver finished
MG Hartree energy from (\int phi*rho dr):              1429.787380
MG Hartree energy from (\int eps (grad phi)^2 dr):     1429.134079
MG Discrepancy due to finite box and discretization:     -0.653301 (  -0.04569%)
MG Correction to account for finite box:                  0.475307
MG Remaining discrepancy, due to discretization:         -0.177994 (  -0.01245%)
      ideal mu1:      -0.762121335553
   10        -1.155474428352E+04     4.6503E-05     4.2074E-05    -6.0467E-02
Finished density kernel iterations (  10)

Writing density kernel to file "complex_2001.vacuum_dkn" ... done


>>> Density kernel optimised for the current NGWF basis:
     ~~~~~~~~~~~~~~~~~~~~~~~~~~~~~~~~~~~~~~~~~~~~~~~~~~~~~~~~~~~
     Total energy                =  -1.15547442835203E+04  Eh
     Estimated bandgap           =  -4.4973E-01  Eh
     RMS occupancy error         =   2.7232E-08
     [H,K] commutator            =   4.2074E-05
     Occupancy bounds            = [ -0.000:  1.000]
     ~~~~~~~~~~~~~~~~~~~~~~~~~~~~~~~~~~~~~~~~~~~~~~~~~~~~~~~~~~~




################################################################################
########################### NGWF CG iteration  001 #############################
################################################################################
****** Reciprocal space K.E. preconditioning with k_zero =  3.5000 a0^-1 *******

>>> Checking for convergence of NGWFs:   NOT CONVERGED
  ========================================================================
         NGWF RMS gradient =  1.5932E-03 >  2.0000E-06  | above tolerance
  ========================================================================

>>> Improving NGWFs using line search:
============ Calculation of NGWF S^-1 using Hotelling algorithm ================ 
         Iteration  |  Frobenius norm and Maximum abs value    (of I-S*S_n^-1)   
               1       0.19814338E+00     0.53407304E-02
               2       0.90648572E-03     0.39291559E-04
               3       0.32059329E-07     0.21404283E-08
               4       0.13748972E-12     0.66613381E-14
================================================================================
MG BCs: +ve charge blocks (gridpoints):     30607 (   17288077).
MG BCs: -ve charge blocks (gridpoints):      8360 (    1120085).
MG BCs:     Elided blocks (gridpoints):    170027 (  177888303).
MG BCs: Computational effort saved:  99.9801%.
MG BCs: Charge after coarse-graining:           -9.0010058.
MG DL_MG: Calling solver with defect correction order = 8
MG DL_MG: Solver finished
MG Hartree energy from (\int phi*rho dr):              1397.279746
MG Hartree energy from (\int eps (grad phi)^2 dr):     1396.627186
MG Discrepancy due to finite box and discretization:     -0.652560 (  -0.04670%)
MG Correction to account for finite box:                  0.475191
MG Remaining discrepancy, due to discretization:         -0.177369 (  -0.01269%)
============ Calculation of NGWF S^-1 using Hotelling algorithm ================ 
         Iteration  |  Frobenius norm and Maximum abs value    (of I-S*S_n^-1)   
               1       0.19127409E+01     0.41821564E-01
               2       0.75818069E-01     0.22664599E-02
               3       0.15954872E-03     0.81885483E-05
               4       0.12508519E-08     0.13565138E-09
               5       0.11729748E-12     0.51070259E-14
================================================================================
------------------------------- NGWF line search -------------------------------
RMS gradient                =       0.00159315282639
Trial step length           =               0.122474
Gradient along search dir.  =       -281.90642495022
Functional at step 0        =  -11554.74428352026735
Functional at step 1        =  -11586.69126201467589
Functional predicted        =  -11670.28317343837080
Selected quadratic step     =               0.819697
--------------------------- NGWF line search finished --------------------------
                                               
Writing NGWFs to file "complex_2001.vacuum_tightbox_ngwfs"....  done

>>> Optimising kernel for current NGWFs:
   Initial electron number for spin 1:    7271.03606795
     Final electron number for spin 1:    7234.00000000

=================== Penalty functional idempotency correction ==================
 RMS occupancy error at iteration   1:  0.004349 (step -0.4865 Ne1=   7234.0000)
 RMS occupancy error at iteration   2:  0.000068 (step -0.5003 Ne1=   7234.0000)
            Final RMS occupancy error   :  0.000000 (Ne1=   7234.0000)
               Final occupancy bounds   : [  0.0000,  1.0000]
================================================================================

................................................................................
<<<<<<<<<<<<<< LNV (Original version) density kernel optimisation >>>>>>>>>>>>>>
~~~~~~~~~~~~~~~~~~~~~~~~~~~~~~~~~~~~~~~~~~~~~~~~~~~~~~~~~~~~~~~~~~~~~~~~~~~~~~~~
   iter  |      energy (Eh)       | rms gradient |  commutator  |   dE (Eh)
MG BCs: +ve charge blocks (gridpoints):     24814 (   17026734).
MG BCs: -ve charge blocks (gridpoints):      8554 (    1099672).
MG BCs:     Elided blocks (gridpoints):    175826 (  178170059).
MG BCs: Computational effort saved:  99.9830%.
MG BCs: Charge after coarse-graining:           -9.0006664.
MG DL_MG: Calling solver with defect correction order = 8
MG DL_MG: Solver finished
MG Hartree energy from (\int phi*rho dr):              1236.193965
MG Hartree energy from (\int eps (grad phi)^2 dr):     1235.541088
MG Discrepancy due to finite box and discretization:     -0.652877 (  -0.05281%)
MG Correction to account for finite box:                  0.474623
MG Remaining discrepancy, due to discretization:         -0.178254 (  -0.01442%)
      ideal mu1:      -0.699654961037
             Q0:  -11669.391027003992
             G0:     -10.661477534015
   RMS gradient:       0.000498883393
MG BCs: +ve charge blocks (gridpoints):     24896 (   17054440).
MG BCs: -ve charge blocks (gridpoints):      8522 (    1091695).
MG BCs:     Elided blocks (gridpoints):    175744 (  178150330).
MG BCs: Computational effort saved:  99.9830%.
MG BCs: Charge after coarse-graining:           -9.0006600.
MG DL_MG: Calling solver with defect correction order = 8
MG DL_MG: Solver finished
MG Hartree energy from (\int phi*rho dr):              1258.760443
MG Hartree energy from (\int eps (grad phi)^2 dr):     1258.102627
MG Discrepancy due to finite box and discretization:     -0.657816 (  -0.05226%)
MG Correction to account for finite box:                  0.473833
MG Remaining discrepancy, due to discretization:         -0.183983 (  -0.01462%)
     Trial step:       0.715415821079
             Q1:  -11668.791580666322
 Quadratic coef:       8.226836041582
 Linear coef   :      -7.627389703912
           Qmin:  -11671.158932472184
Quadratic minimum step length (  0.331643613665) accepted
    Initial Ne1:    7233.99960495
      Final Ne1:    7234.00000000

=================== Penalty functional idempotency correction ==================
 RMS occupancy error at iteration   1:  0.000379 (step -0.4985 Ne1=   7234.0000)
 RMS occupancy error at iteration   2:  0.000000 (step -0.5000 Ne1=   7234.0000)
            Final RMS occupancy error   :  0.000000 (Ne1=   7234.0000)
               Final occupancy bounds   : [  0.0000,  1.0000]
================================================================================

    1        -1.166939102700E+04     4.9888E-04     4.5137E-04
MG BCs: +ve charge blocks (gridpoints):     24860 (   17040077).
MG BCs: -ve charge blocks (gridpoints):      8538 (    1095891).
MG BCs:     Elided blocks (gridpoints):    175780 (  178160497).
MG BCs: Computational effort saved:  99.9830%.
MG BCs: Charge after coarse-graining:           -9.0006631.
MG DL_MG: Calling solver with defect correction order = 8
MG DL_MG: Solver finished
MG Hartree energy from (\int phi*rho dr):              1245.635813
MG Hartree energy from (\int eps (grad phi)^2 dr):     1244.980752
MG Discrepancy due to finite box and discretization:     -0.655062 (  -0.05259%)
MG Correction to account for finite box:                  0.474231
MG Remaining discrepancy, due to discretization:         -0.180831 (  -0.01452%)
      ideal mu1:      -0.708435221288
             Q0:  -11671.130923870369
             G0:      -1.037806905027
   RMS gradient:       0.000156313712
MG BCs: +ve charge blocks (gridpoints):     24858 (   17041427).
MG BCs: -ve charge blocks (gridpoints):      8540 (    1096016).
MG BCs:     Elided blocks (gridpoints):    175782 (  178159022).
MG BCs: Computational effort saved:  99.9830%.
MG BCs: Charge after coarse-graining:           -9.0006628.
MG DL_MG: Calling solver with defect correction order = 8
MG DL_MG: Solver finished
MG Hartree energy from (\int phi*rho dr):              1247.583612
MG Hartree energy from (\int eps (grad phi)^2 dr):     1246.928334
MG Discrepancy due to finite box and discretization:     -0.655278 (  -0.05252%)
MG Correction to account for finite box:                  0.474170
MG Remaining discrepancy, due to discretization:         -0.181109 (  -0.01452%)
     Trial step:       0.487096590191
             Q1:  -11671.347317622509
 Quadratic coef:       0.289118452574
 Linear coef   :      -0.505512204715
           Qmin:  -11671.351890905542
Quadratic minimum step length (  0.425834582719) accepted
    Initial Ne1:    7233.99995019
      Final Ne1:    7234.00000000

=================== Penalty functional idempotency correction ==================
 RMS occupancy error at iteration   1:  0.000150 (step -0.4993 Ne1=   7234.0000)
            Final RMS occupancy error   :  0.000000 (Ne1=   7234.0000)
               Final occupancy bounds   : [ -0.0000,  1.0000]
================================================================================

    2        -1.167113092387E+04     1.5631E-04     1.4143E-04    -1.7399E+00
MG BCs: +ve charge blocks (gridpoints):     24857 (   17041281).
MG BCs: -ve charge blocks (gridpoints):      8540 (    1095989).
MG BCs:     Elided blocks (gridpoints):    175783 (  178159195).
MG BCs: Computational effort saved:  99.9830%.
MG BCs: Charge after coarse-graining:           -9.0006629.
MG DL_MG: Calling solver with defect correction order = 8
MG DL_MG: Solver finished
MG Hartree energy from (\int phi*rho dr):              1247.338235
MG Hartree energy from (\int eps (grad phi)^2 dr):     1246.682986
MG Discrepancy due to finite box and discretization:     -0.655250 (  -0.05253%)
MG Correction to account for finite box:                  0.474177
MG Remaining discrepancy, due to discretization:         -0.181072 (  -0.01452%)
      ideal mu1:      -0.709968732894
             Q0:  -11671.352376245311
             G0:      -0.174901857450
   RMS gradient:       0.000063830887
MG BCs: +ve charge blocks (gridpoints):     24861 (   17040270).
MG BCs: -ve charge blocks (gridpoints):      8539 (    1096511).
MG BCs:     Elided blocks (gridpoints):    175779 (  178159684).
MG BCs: Computational effort saved:  99.9830%.
MG BCs: Charge after coarse-graining:           -9.0006630.
MG DL_MG: Calling solver with defect correction order = 8
MG DL_MG: Solver finished
MG Hartree energy from (\int phi*rho dr):              1246.699177
MG Hartree energy from (\int eps (grad phi)^2 dr):     1246.044043
MG Discrepancy due to finite box and discretization:     -0.655134 (  -0.05255%)
MG Correction to account for finite box:                  0.474087
MG Remaining discrepancy, due to discretization:         -0.181047 (  -0.01452%)
     Trial step:       0.455436684104
             Q1:  -11671.407046706183
 Quadratic coef:       0.024986261129
 Linear coef   :      -0.079656722001
           Qmin:  -11671.415863068401
Quadratic minimum step length (  0.725970827472) accepted
    Initial Ne1:    7234.00105903
      Final Ne1:    7234.00000000

=================== Penalty functional idempotency correction ==================
 RMS occupancy error at iteration   1:  0.000125 (step -0.4961 Ne1=   7234.0000)
 RMS occupancy error at iteration   2:  0.000001 (step -0.5000 Ne1=   7234.0000)
            Final RMS occupancy error   :  0.000000 (Ne1=   7234.0000)
               Final occupancy bounds   : [  0.0000,  1.0000]
================================================================================

    3        -1.167135237625E+04     6.3831E-05     5.7751E-05    -2.2145E-01
MG BCs: +ve charge blocks (gridpoints):     24859 (   17039622).
MG BCs: -ve charge blocks (gridpoints):      8540 (    1096872).
MG BCs:     Elided blocks (gridpoints):    175781 (  178159971).
MG BCs: Computational effort saved:  99.9830%.
MG BCs: Charge after coarse-graining:           -9.0006630.
MG DL_MG: Calling solver with defect correction order = 8
MG DL_MG: Solver finished
MG Hartree energy from (\int phi*rho dr):              1246.319378
MG Hartree energy from (\int eps (grad phi)^2 dr):     1245.664315
MG Discrepancy due to finite box and discretization:     -0.655063 (  -0.05256%)
MG Correction to account for finite box:                  0.474030
MG Remaining discrepancy, due to discretization:         -0.181032 (  -0.01453%)
      ideal mu1:      -0.708989156591
             Q0:  -11671.415973945404
             G0:      -0.060966860720
   RMS gradient:       0.000037671094
MG BCs: +ve charge blocks (gridpoints):     24858 (   17039638).
MG BCs: -ve charge blocks (gridpoints):      8540 (    1096883).
MG BCs:     Elided blocks (gridpoints):    175782 (  178159944).
MG BCs: Computational effort saved:  99.9830%.
MG BCs: Charge after coarse-graining:           -9.0006630.
MG DL_MG: Calling solver with defect correction order = 8
MG DL_MG: Solver finished
MG Hartree energy from (\int phi*rho dr):              1246.388513
MG Hartree energy from (\int eps (grad phi)^2 dr):     1245.733689
MG Discrepancy due to finite box and discretization:     -0.654824 (  -0.05254%)
MG Correction to account for finite box:                  0.473918
MG Remaining discrepancy, due to discretization:         -0.180906 (  -0.01451%)
     Trial step:       0.575007605532
             Q1:  -11671.437008430366
 Quadratic coef:       0.014021923636
 Linear coef   :      -0.035056408599
           Qmin:  -11671.437885200517
Quadratic minimum step length (  0.718792303035) accepted
    Initial Ne1:    7234.00036512
      Final Ne1:    7234.00000000

=================== Penalty functional idempotency correction ==================
 RMS occupancy error at iteration   1:  0.000168 (step -0.4901 Ne1=   7234.0000)
 RMS occupancy error at iteration   2:  0.000001 (step -0.5000 Ne1=   7234.0000)
            Final RMS occupancy error   :  0.000000 (Ne1=   7234.0000)
               Final occupancy bounds   : [  0.0000,  1.0000]
================================================================================

    4        -1.167141597395E+04     3.7671E-05     3.4083E-05    -6.3598E-02
MG BCs: +ve charge blocks (gridpoints):     24858 (   17039668).
MG BCs: -ve charge blocks (gridpoints):      8539 (    1096874).
MG BCs:     Elided blocks (gridpoints):    175782 (  178159923).
MG BCs: Computational effort saved:  99.9830%.
MG BCs: Charge after coarse-graining:           -9.0006630.
MG DL_MG: Calling solver with defect correction order = 8
MG DL_MG: Solver finished
MG Hartree energy from (\int phi*rho dr):              1246.406449
MG Hartree energy from (\int eps (grad phi)^2 dr):     1245.751688
MG Discrepancy due to finite box and discretization:     -0.654762 (  -0.05253%)
MG Correction to account for finite box:                  0.473887
MG Remaining discrepancy, due to discretization:         -0.180874 (  -0.01451%)
      ideal mu1:      -0.709346231922
             Q0:  -11671.437862893566
             G0:      -0.054689194800
   RMS gradient:       0.000035739498
MG BCs: +ve charge blocks (gridpoints):     24857 (   17040688).
MG BCs: -ve charge blocks (gridpoints):      8540 (    1096500).
MG BCs:     Elided blocks (gridpoints):    175783 (  178159277).
MG BCs: Computational effort saved:  99.9830%.
MG BCs: Charge after coarse-graining:           -9.0006628.
MG DL_MG: Calling solver with defect correction order = 8
MG DL_MG: Solver finished
MG Hartree energy from (\int phi*rho dr):              1247.114539
MG Hartree energy from (\int eps (grad phi)^2 dr):     1246.460115
MG Discrepancy due to finite box and discretization:     -0.654424 (  -0.05248%)
MG Correction to account for finite box:                  0.473628
MG Remaining discrepancy, due to discretization:         -0.180796 (  -0.01450%)
     Trial step:       0.642892713478
             Q1:  -11671.461823828053
 Quadratic coef:       0.011198350356
 Linear coef   :      -0.035159284843
           Qmin:  -11671.465460157257
Quadratic minimum step length (  1.009240080837) accepted
    Initial Ne1:    7234.00046121
      Final Ne1:    7234.00000000

=================== Penalty functional idempotency correction ==================
 RMS occupancy error at iteration   1:  0.000850 (step -0.4492 Ne1=   7234.0000)
 RMS occupancy error at iteration   2:  0.000020 (step -0.4993 Ne1=   7234.0000)
            Final RMS occupancy error   :  0.000000 (Ne1=   7234.0000)
               Final occupancy bounds   : [ -0.0000,  1.0000]
================================================================================

    5        -1.167143786289E+04     3.5739E-05     3.2336E-05    -2.1889E-02
MG BCs: +ve charge blocks (gridpoints):     24858 (   17041274).
MG BCs: -ve charge blocks (gridpoints):      8537 (    1096267).
MG BCs:     Elided blocks (gridpoints):    175782 (  178158924).
MG BCs: Computational effort saved:  99.9830%.
MG BCs: Charge after coarse-graining:           -9.0006627.
MG DL_MG: Calling solver with defect correction order = 8
MG DL_MG: Solver finished
MG Hartree energy from (\int phi*rho dr):              1247.519915
MG Hartree energy from (\int eps (grad phi)^2 dr):     1246.865691
MG Discrepancy due to finite box and discretization:     -0.654224 (  -0.05244%)
MG Correction to account for finite box:                  0.473472
MG Remaining discrepancy, due to discretization:         -0.180752 (  -0.01449%)
      ideal mu1:      -0.710668907893
             Q0:  -11671.464531855076
             G0:      -0.078008516006
   RMS gradient:       0.000043213994
MG BCs: +ve charge blocks (gridpoints):     24858 (   17041223).
MG BCs: -ve charge blocks (gridpoints):      8540 (    1096422).
MG BCs:     Elided blocks (gridpoints):    175782 (  178158820).
MG BCs: Computational effort saved:  99.9830%.
MG BCs: Charge after coarse-graining:           -9.0006626.
MG DL_MG: Calling solver with defect correction order = 8
MG DL_MG: Solver finished
MG Hartree energy from (\int phi*rho dr):              1247.299632
MG Hartree energy from (\int eps (grad phi)^2 dr):     1246.646221
MG Discrepancy due to finite box and discretization:     -0.653411 (  -0.05239%)
MG Correction to account for finite box:                  0.472688
MG Remaining discrepancy, due to discretization:         -0.180723 (  -0.01449%)
     Trial step:       0.805501765436
             Q1:  -11671.508015502128
 Quadratic coef:       0.019352350309
 Linear coef   :      -0.062835997362
           Qmin:  -11671.515538095937
Quadratic minimum step length (  1.307709554613) accepted
    Initial Ne1:    7234.00131797
      Final Ne1:    7234.00000000

=================== Penalty functional idempotency correction ==================
 RMS occupancy error at iteration   1:  0.005645 (step -0.2852 Ne1=   7234.0000)
 RMS occupancy error at iteration   2:  0.000495 (step -0.4721 Ne1=   7234.0000)
 RMS occupancy error at iteration   3:  0.000018 (step -0.5011 Ne1=   7234.0000)
            Final RMS occupancy error   :  0.000000 (Ne1=   7234.0000)
               Final occupancy bounds   : [  0.0000,  1.0000]
================================================================================

    6        -1.167146453186E+04     4.3214E-05     3.9098E-05    -2.6669E-02
MG BCs: +ve charge blocks (gridpoints):     24859 (   17041137).
MG BCs: -ve charge blocks (gridpoints):      8540 (    1096519).
MG BCs:     Elided blocks (gridpoints):    175781 (  178158809).
MG BCs: Computational effort saved:  99.9830%.
MG BCs: Charge after coarse-graining:           -9.0006627.
MG DL_MG: Calling solver with defect correction order = 8
MG DL_MG: Solver finished
MG Hartree energy from (\int phi*rho dr):              1247.175360
MG Hartree energy from (\int eps (grad phi)^2 dr):     1246.522203
MG Discrepancy due to finite box and discretization:     -0.653157 (  -0.05237%)
MG Correction to account for finite box:                  0.472454
MG Remaining discrepancy, due to discretization:         -0.180703 (  -0.01449%)
      ideal mu1:      -0.710966878793
             Q0:  -11671.503687983030
             G0:      -0.159833278728
   RMS gradient:       0.000061083506
MG BCs: +ve charge blocks (gridpoints):     24860 (   17039302).
MG BCs: -ve charge blocks (gridpoints):      8541 (    1096934).
MG BCs:     Elided blocks (gridpoints):    175780 (  178160229).
MG BCs: Computational effort saved:  99.9830%.
MG BCs: Charge after coarse-graining:           -9.0006631.
MG DL_MG: Calling solver with defect correction order = 8
MG DL_MG: Solver finished
MG Hartree energy from (\int phi*rho dr):              1246.107373
MG Hartree energy from (\int eps (grad phi)^2 dr):     1245.454574
MG Discrepancy due to finite box and discretization:     -0.652799 (  -0.05239%)
MG Correction to account for finite box:                  0.471965
MG Remaining discrepancy, due to discretization:         -0.180834 (  -0.01451%)
     Trial step:       1.026334426451
             Q1:  -11671.561239079339
 Quadratic coef:       0.106491300141
 Linear coef   :      -0.164042396451
           Qmin:  -11671.566861941366
Quadratic minimum step length (  0.790498184604) accepted
    Initial Ne1:    7233.99970798
      Final Ne1:    7234.00000000

=================== Penalty functional idempotency correction ==================
 RMS occupancy error at iteration   1:  0.000242 (step -0.4804 Ne1=   7234.0000)
 RMS occupancy error at iteration   2:  0.000001 (step -0.5000 Ne1=   7234.0000)
            Final RMS occupancy error   :  0.000000 (Ne1=   7234.0000)
               Final occupancy bounds   : [  0.0000,  1.0000]
================================================================================

    7        -1.167150368798E+04     6.1084E-05     5.5266E-05    -3.9156E-02
MG BCs: +ve charge blocks (gridpoints):     24860 (   17039719).
MG BCs: -ve charge blocks (gridpoints):      8540 (    1096846).
MG BCs:     Elided blocks (gridpoints):    175780 (  178159900).
MG BCs: Computational effort saved:  99.9830%.
MG BCs: Charge after coarse-graining:           -9.0006630.
MG DL_MG: Calling solver with defect correction order = 8
MG DL_MG: Solver finished
[...]
MG DL_MG: Calling solver with defect correction order = 8
MG DL_MG: Solver finished
MG Hartree energy from (\int phi*rho dr):              1204.229013
MG Hartree energy from (\int eps (grad phi)^2 dr):     1204.042635
MG Discrepancy due to finite box and discretization:     -0.186378 (  -0.01548%)
MG Correction to account for finite box:                  0.006370
MG Remaining discrepancy, due to discretization:         -0.180008 (  -0.01495%)
             Q2:  -11707.199848876917
  Cubic LS coeff:       1.006889896131
Predicted energy:  -11707.199848877004
Cubic minimum step length accepted
    Initial Ne1:    7234.00000000
      Final Ne1:    7234.00000000

=================== Penalty functional idempotency correction ==================
 RMS occupancy error at iteration   1:  0.000000 (step -0.5000 Ne1=   7234.0000)
            Final RMS occupancy error   :  0.000000 (Ne1=   7234.0000)
               Final occupancy bounds   : [  0.0000,  1.0000]
================================================================================

    7        -1.170719984887E+04     9.6057E-09     8.6908E-09    -2.7940E-09

Reusing previously generated solute cavity.
MG BCs: +ve charge blocks (gridpoints):     28847 (   19268182).
MG BCs: -ve charge blocks (gridpoints):      8489 (    1063113).
MG BCs:     Elided blocks (gridpoints):    171793 (  175965170).
MG BCs: Computational effort saved:  99.9810%.
MG BCs: Charge after coarse-graining:           -9.0009600.
MG DL_MG: Calling solver with defect correction order = 8
MG DL_MG: Solver finished
MG Hartree energy from (\int phi*rho dr):              1204.229010
MG Hartree energy from (\int eps (grad phi)^2 dr):     1204.042632
MG Discrepancy due to finite box and discretization:     -0.186378 (  -0.01548%)
MG Correction to account for finite box:                  0.006370
MG Remaining discrepancy, due to discretization:         -0.180008 (  -0.01495%)
      ideal mu1:      -0.474349481733
             Q0:  -11707.199848876800
             G0:      -0.000000005001
   RMS gradient:       0.000000012185

Reusing previously generated solute cavity.
MG BCs: +ve charge blocks (gridpoints):     28847 (   19268182).
MG BCs: -ve charge blocks (gridpoints):      8489 (    1063113).
MG BCs:     Elided blocks (gridpoints):    171793 (  175965170).
MG BCs: Computational effort saved:  99.9810%.
MG BCs: Charge after coarse-graining:           -9.0009600.
MG DL_MG: Calling solver with defect correction order = 8
MG DL_MG: Solver finished
MG Hartree energy from (\int phi*rho dr):              1204.228983
MG Hartree energy from (\int eps (grad phi)^2 dr):     1204.042605
MG Discrepancy due to finite box and discretization:     -0.186378 (  -0.01548%)
MG Correction to account for finite box:                  0.006370
MG Remaining discrepancy, due to discretization:         -0.180008 (  -0.01495%)
     Trial step:       0.746276058891
             Q1:  -11707.199848878779
 Quadratic coef:       0.000000001754
 Linear coef   :      -0.000000003732
           Qmin:  -11707.199848878787
Quadratic minimum step length (  0.794127279409) accepted
    Initial Ne1:    7234.00000000
      Final Ne1:    7234.00000000

=================== Penalty functional idempotency correction ==================
 RMS occupancy error at iteration   1:  0.000000 (step -0.5000 Ne1=   7234.0000)
            Final RMS occupancy error   :  0.000000 (Ne1=   7234.0000)
               Final occupancy bounds   : [  0.0000,  1.0000]
================================================================================

    8        -1.170719984888E+04     1.2185E-08     1.1024E-08    -3.4925E-09

Reusing previously generated solute cavity.
MG BCs: +ve charge blocks (gridpoints):     28847 (   19268182).
MG BCs: -ve charge blocks (gridpoints):      8489 (    1063113).
MG BCs:     Elided blocks (gridpoints):    171793 (  175965170).
MG BCs: Computational effort saved:  99.9810%.
MG BCs: Charge after coarse-graining:           -9.0009600.
MG DL_MG: Calling solver with defect correction order = 8
MG DL_MG: Solver finished
MG Hartree energy from (\int phi*rho dr):              1204.228981
MG Hartree energy from (\int eps (grad phi)^2 dr):     1204.042603
MG Discrepancy due to finite box and discretization:     -0.186378 (  -0.01548%)
MG Correction to account for finite box:                  0.006370
MG Remaining discrepancy, due to discretization:         -0.180008 (  -0.01495%)
      ideal mu1:      -0.474349435093
             Q0:  -11707.199848878896
             G0:      -0.000000004046
   RMS gradient:       0.000000009068

Reusing previously generated solute cavity.
MG BCs: +ve charge blocks (gridpoints):     28847 (   19268182).
MG BCs: -ve charge blocks (gridpoints):      8489 (    1063113).
MG BCs:     Elided blocks (gridpoints):    171793 (  175965170).
MG BCs: Computational effort saved:  99.9810%.
MG BCs: Charge after coarse-graining:           -9.0009600.
MG DL_MG: Calling solver with defect correction order = 8
MG DL_MG: Solver finished
MG Hartree energy from (\int phi*rho dr):              1204.228945
MG Hartree energy from (\int eps (grad phi)^2 dr):     1204.042567
MG Discrepancy due to finite box and discretization:     -0.186378 (  -0.01548%)
MG Correction to account for finite box:                  0.006370
MG Remaining discrepancy, due to discretization:         -0.180008 (  -0.01495%)
     Trial step:       0.769829965860
             Q1:  -11707.199848878663
 Quadratic coef:       0.000000003347
 Linear coef   :      -0.000000003115
           Qmin:  -11707.199848879620
Quadratic minimum step length (  0.358226556057) accepted
    Initial Ne1:    7234.00000000
      Final Ne1:    7234.00000000

=================== Penalty functional idempotency correction ==================
 RMS occupancy error at iteration   1:  0.000000 (step -0.5000 Ne1=   7234.0000)
            Final RMS occupancy error   :  0.000000 (Ne1=   7234.0000)
               Final occupancy bounds   : [  0.0000,  1.0000]
================================================================================

    9        -1.170719984888E+04     9.0683E-09     8.2046E-09    -2.0955E-09

Reusing previously generated solute cavity.
MG BCs: +ve charge blocks (gridpoints):     28847 (   19268182).
MG BCs: -ve charge blocks (gridpoints):      8489 (    1063113).
MG BCs:     Elided blocks (gridpoints):    171793 (  175965170).
MG BCs: Computational effort saved:  99.9810%.
MG BCs: Charge after coarse-graining:           -9.0009600.
MG DL_MG: Calling solver with defect correction order = 8
MG DL_MG: Solver finished
MG Hartree energy from (\int phi*rho dr):              1204.228964
MG Hartree energy from (\int eps (grad phi)^2 dr):     1204.042587
MG Discrepancy due to finite box and discretization:     -0.186378 (  -0.01548%)
MG Correction to account for finite box:                  0.006370
MG Remaining discrepancy, due to discretization:         -0.180008 (  -0.01495%)
      ideal mu1:      -0.474349419603
   10        -1.170719984888E+04     5.4848E-09     4.9624E-09    -3.4925E-10
Finished density kernel iterations (  10)

Writing density kernel to file "complex_2001.dkn" ... done


>>> Density kernel optimised for the current NGWF basis:
     ~~~~~~~~~~~~~~~~~~~~~~~~~~~~~~~~~~~~~~~~~~~~~~~~~~~~~~~~~~~
     Total energy                =  -1.17071998488792E+04  Eh
     Estimated bandgap           =   8.4711E-02  Eh
     RMS occupancy error         =   5.3859E-16
     [H,K] commutator            =   4.9624E-09
     Occupancy bounds            = [  0.000:  1.000]
     ~~~~~~~~~~~~~~~~~~~~~~~~~~~~~~~~~~~~~~~~~~~~~~~~~~~~~~~~~~~




################################################################################
########################### NGWF CG iteration  004 #############################
################################################################################
****** Reciprocal space K.E. preconditioning with k_zero =  3.5000 a0^-1 *******

>>> Checking for convergence of NGWFs: 
           ........................................................
           |         *** NGWF optimisation converged ***          |
           | RMS NGWF gradient =    0.00000194071215              |
           | Criteria satisfied:                                  |
           | -> RMS NGWF gradient lower than set threshold.       |
           ========================================================

Reusing previously generated solute cavity.
MG BCs: +ve charge blocks (gridpoints):     28847 (   19268182).
MG BCs: -ve charge blocks (gridpoints):      8489 (    1063113).
MG BCs:     Elided blocks (gridpoints):    171793 (  175965170).
MG BCs: Computational effort saved:  99.9810%.
MG BCs: Charge after coarse-graining:           -9.0009600.
MG DL_MG: Calling solver with defect correction order = 8
MG DL_MG: Solver finished
MG Hartree energy from (\int phi*rho dr):              1204.228964
MG Hartree energy from (\int eps (grad phi)^2 dr):     1204.042587
MG Discrepancy due to finite box and discretization:     -0.186378 (  -0.01548%)
MG Correction to account for finite box:                  0.006370
MG Remaining discrepancy, due to discretization:         -0.180008 (  -0.01495%)

================================================================================
           ---------------- ENERGY COMPONENTS (Eh) ----------------
           | Kinetic                    :     8629.73050921791037 |
           | Pseudo. (local,OBC,corr'd) :    -5112.35789355020188 |
           | Pseudopotential (non-local):     1410.05435289440993 |
           | Hartree (molecular)        :     1204.22896443894638 |
           | Exchange-correlation       :    -3348.08105291064430 |
           | Ion-ion (open BC)          :   837572.82712686434388 |
           | Dispersion Correction      :       -4.75275967249896 |
           | Smeared ion non-self corr. :  -837524.52910094195977 |
           | Smeared ion self corr.     :   -14534.96330857570138 |
           | Solvent cavitation energy  :        2.28876049462192 |
           | Solute-solvent dis-rep en. :       -1.64544713859606 |
           | Total                      :   -11707.19984887945975 |
           --------------------------------------------------------
           ------ LOCAL ENERGY COMPONENTS FROM MATRIX TRACES ------
           | Pseudopotential (local)    :    -5112.35789355022825 |
           | Hartree                    :    -2009.46479230522300 |
           --------------------------------------------------------
           Integrated density           :     7233.99999999745887
           Integrated density tr(KS)    :     7234.00000000000000
================================================================================


                        <<<<< CALCULATION SUMMARY >>>>>                         
|ITER|    RMS GRADIENT   |     TOTAL ENERGY    |   step   |     Epredicted              
   0     0.00003967137628 -11707.13595086056739   0.632633 -11707.19124341761199        
   1     0.00000926786796 -11707.19938668329269   0.080054 -11707.19976854415654        
   2     0.00000421993693 -11707.19983129098546   0.015616 -11707.19984673453291        
   3     0.00000194071215 -11707.19984887924511  <-- CG                                 

=================== Finished the calculation in solvent ========================
= Adjusting the following parameters: 
= read_denskern: F
= read_tightbox_ngwfs: F
= maxit_pen: 0 (restored to user-specified value)
= restart read filename prefix: ""
= restart write filename prefix: ""
================================================================================

================================================================================
IS: Calculation in solvent completed (NGWFs converged).      

Individual components of total energy in solvent:     hartree           kcal/mol
- Usual non-electrostatic DFT terms:    -12912.07212667421663    -8102447.413491
- Electrostatic fixed charge energy:      1204.22896443894638      755665.067732
- Apolar cavitation energy:                  2.28876049462192        1436.218863
- Apolar dispersion-repulsion energy:       -1.64544713859606       -1032.533646
 -------------------------------------------------------------------------------
- Total energy in solvent:              -11707.19984887924511    -7346378.660541

Components of total energy in solvent:                hartree           kcal/mol
- Usual non-electrostatic DFT terms:    -12912.07212667421663    -8102447.413491
- Electrostatic energy:                   1204.22896443894638      755665.067732
- Apolar energy terms:                       0.64331335602586         403.685217
 -------------------------------------------------------------------------------
- Total energy in solvent:              -11707.19984887924511    -7346378.660541

Calculation of free energy of solvation:              hartree           kcal/mol
- Total energy in solvent:         (+)  -11707.19984887924511    -7346378.660541
- Total energy in vacuum:          (-)  -11703.34393000125419    -7343959.034967
 -------------------------------------------------------------------------------
- Total free energy of solvation:           -3.85591887799092       -2419.625575

Components of polar term in f.e. of solvation:        hartree           kcal/mol
- Electrostatic:                            -4.48811207479480       -2816.332786
- Change in nonelectrostatic DFT terms:     -0.01112015922081          -6.978005
 -------------------------------------------------------------------------------
- Polar term in f.e. of solvation:          -4.49923223401561       -2823.310792

Components of free energy of solvation:               hartree           kcal/mol
- Polar term in f.e. of solvation: (+)      -4.49923223401561       -2823.310792
- Apolar (cavitation, dis., rep.): (+)       0.64331335602586         403.685217
 -------------------------------------------------------------------------------
- Total free energy of solvation:           -3.85591887798975       -2419.625575
================================================================================


------------------------------ TIMING INFORMATION ------------------------------
AVERAGE TIME:   33984.755s on     30 node(s)                                    
TOTAL TIME:     33984.758s on     30 node(s)                                    
================= AVERAGE TIMINGS FROM ALL NODES (CUMULATIVE) ==================
|| TAG                                    #calls    cpu time   %total  Gflops ||
|| work_imbalance                       :     1        0.00s   0.000%  ------ ||
|| parallel_prepare_fd_halos_request    :  1947        0.04s   0.000%  ------ ||
|| sparse_set_to_garbage                :   176        0.05s   0.000%  ------ ||
|| parallel_prepare_fd_halos_alloc      :  1947        0.06s   0.000%  ------ ||
|| ngwfs_initialise_from_radial         :     1        0.23s   0.001%  ------ ||
|| basis_extract_function_from_box      :  7199        0.26s   0.001%  ------ ||
|| parallel_prepare_fd_halos_satisfy    :  1947        0.77s   0.002%  ------ ||
|| pseudopotentials_nonlocal_mat        :    30        0.94s   0.003%  ------ ||
|| restart_ngwfs_tightbox_input         :     1        1.27s   0.004%  ------ ||
|| density_init_guess_real              :     1        4.18s   0.012%  ------ ||
|| parallel_prepare_fd_halos_comms_imbal:  1947        5.63s   0.017%  ------ ||
|| openbc_locps_radial                  :     1        6.52s   0.019%  ------ ||
|| parallel_prepare_fd_halos_clear      :  1947       13.66s   0.040%  ------ ||
|| sparse_init                          :     2       23.35s   0.069%  ------ ||
|| projectors_func_ovlp_box             :    30       28.14s   0.083%  ------ ||
|| parallel_prepare_fd_halos_comms_wait :  1947       28.74s   0.085%  ------ ||
|| restart_kernel_read                  :     1       30.15s   0.089%  ------ ||
|| function_ops_brappd_ketppd           :    30       30.64s   0.090%  ------ ||
|| projectors_init_fftbox_recip         :   254       34.40s   0.101%  ------ ||
|| restart_kernel_write                 :    17       35.13s   0.103%  ------ ||
|| palser_mano_kernel_optimise          :     1       40.57s   0.119%  ------ ||
|| parallel_prepare_fd_halos            :  1947       48.92s   0.144%  ------ ||
|| basis_copy_function_to_box           : 116.9k      52.68s   0.155%  ------ ||
|| fourier_apply_box_pair               : 10256       63.55s   0.187% 497.585 ||
|| ngwf_gradient_coeffs                 :    16       72.85s   0.214%  ------ ||
|| restart_ngwfs_tightbox_output        :    14       74.85s   0.220%  ------ ||
|| sparse_embed_hotelling_invert_embed  :    30      101.46s   0.299%  ------ ||
|| pseudo_make_structure_factor         :     2      110.73s   0.326%  ------ ||
|| finite_difference_derivative         :  1947      138.24s   0.407%  ------ ||
|| sparse_trace                         :  5366      152.62s   0.449%  ------ ||
|| integrals_kinetic                    :    30      201.49s   0.593%  ------ ||
|| fourier_apply_cell_forward           :  1297      273.44s   0.805%  65.518 ||
|| projectors_gradient_batch            :   224      274.50s   0.808%  ------ ||
|| fourier_apply_cell_backward          :  1299      279.08s   0.821%  64.292 ||
|| basis_dot_function_with_box          : 18.14M     307.37s   0.904%  ------ ||
|| openbc_locps_on_grid                 :     2      351.72s   1.035%  ------ ||
|| kernel_purify                        :   495      396.42s   1.166%  ------ ||
|| hamiltonian_energy_components        :     4      527.70s   1.553%  ------ ||
|| lnv_gradient_norm                    :   160      610.34s   1.796%  ------ ||
|| basis_add_function_to_box            : 37.82M     648.82s   1.909%  ------ ||
|| xc_energy_potential                  :   324      656.66s   1.932%  ------ ||
|| kernel_fix                           :   160      709.84s   2.089%  ------ ||
|| ngwf_gradient_build_batch            :   224     1016.80s   2.992%  ------ ||
|| cell_grid_extract_box_real           : 61420     1044.99s   3.075%  ------ ||
|| integrals_locpot_mat_els_batch       :  2366     1105.68s   3.253%  ------ ||
|| ngwf_gradient_batch                  :   224     1392.87s   4.099%  ------ ||
|| density_fftbox_deposit_to_cell       : 70737     1524.87s   4.487%  ------ ||
|| density_batch_row_sums               :  4522     1543.40s   4.541%  ------ ||
|| ngwf_gradient_lnv                    :    16     1623.93s   4.778%  ------ ||
|| cell_grid_deposit_box_real           : 72771     1916.41s   5.639%  ------ ||
|| sparse_product                       :  6695     2515.74s   7.403%  ------ ||
|| potential_apply_to_ngwf_batch        :  2366     4254.13s  12.518%  ------ ||
|| multigrid_prepare_bound_cond         :   324     4885.18s  14.375%  ------ ||
|| density_fftbox_interpolate_multiply  : 70737     5280.65s  15.538%  ------ ||
|| integrals_locpot_dbl_grid            :   169     5369.04s  15.798%  ------ ||
|| fourier_apply_box                    : 243.8k    6338.20s  18.650% 574.780 ||
|| dl_mg_solver_calls                   :   324     7138.44s  21.005%  ------ ||
|| density_batch_interp_deposit         :  4522     7543.96s  22.198%  ------ ||
|| density_on_dbl_grid                  :   323     9672.72s  28.462%  ------ ||
|| multigrid_calculate_hartree          :   324    12211.94s  35.934%  ------ ||
|| hamiltonian_lhxc_calculate           :   319    22392.93s  65.891%  ------ ||
|| lnv_denskernel_optimise_cg           :    16    29059.33s  85.507%  ------ ||
|| ngwf_cg_optimise                     :     2    32762.41s  96.403%  ------ ||
|| total_time                           :     1    33984.76s 100.000%  ------ ||
================================================================================
Overhead of generating timer report: 
- 0 ms averaging over threads,
- 5 ms ensuring consistency across MPI ranks,
- 1 ms printing in order.

Job completed: 04-01-2020 17:51 (-0000)

