 +---------------------------------------------------------------+
 |                                                               |
 |        ####### #     # ####### ####### ####### ######         |
 |        #     # ##    # #          #    #       #     #        |
 |        #     # # #   # #          #    #       #     #        |
 |        #     # #  #  # #####      #    #####   ######         |
 |        #     # #   # # #          #    #       #              |
 |        #     # #    ## #          #    #       #              |
 |        ####### #     # #######    #    ####### #              |
 |                                                               |
 |        Linear-Scaling Ab Initio Total Energy Program          |
 |                                                               |
 |          Release for academic collaborators of ODG            |
 |                                             Version 5.3.2.6.  |
 |                                                               |
 +---------------------------------------------------------------+
 |                                                               |
 |  Authors:                                                     |
 |  Jacek Dziedzic, Peter D. Haynes, Nicholas D. M. Hine,        |
 |  Arash. A. Mostofi, Mike C. Payne and Chris-Kriton Skylaris   |
 |                                                               |
 |  Contributors:                                                |
 |  J. Aarons, L. Andrinopoulos, P. W. Avraam, R. A. Bell,       |
 |  A. Bhandari, G. A. Bramley, R. J. Charlton, S. J. Clark,     |
 |  R. J. Clements, G. C. Constantinescu, F. Corsetti,           |
 |  N. Corsini, O. Dieguez, S. M. M. Dubois, K. K. B. Duff,      |
 |  J. M. Escartin, A. Greco, H. Helal, Q. O. Hill, L. P. Lee,   |
 |  J.-H. Li, E. B. Linscott, G. Moynihan, D. D. O`Regan,        |
 |  O. K. Okan, M. J. S. Phipps, C. J. Pickard,                  |
 |  J. C. A. Prentice, M. I. J. Probert, L. E. Ratcliff,         |
 |  M. Robinson, A. Ruiz Serrano, J. S. Spencer, E. W. Tait,     |
 |  G. Teobaldi, D. Turban, V. Vitale, K. A. Wilkinson,          |
 |  C. Weber, J. C. Womack, N. Yeung and T. J. Zuehlsdorff       |
 |                                                               |
 |                                   Copyright (c) 2004-2019     |
 |                                                               |
 |  Please cite:                                                 |
 |  "Introducing ONETEP: Linear-scaling density functional       |
 |   simulations on parallel computers".                         |
 |   C.-K. Skylaris, P. D. Haynes, A. A. Mostofi, M. C. Payne.   |
 |   J. Chem. Phys. 122 084119 (2005).                           |
 |                                                               |
 |          in all publications arising from your use of ONETEP. |
 |                                                               |
 +---------------------------------------------------------------+
 |                                                               |
 |   ONETEP is based on developments described in the following  |
 |   publications:                                               |
 |                                                               |
 |  "Nonorthogonal generalized Wannier function pseudopotential  |
 |   plane-wave method".                                         |
 |   C.-K. Skylaris, A. A. Mostofi, P. D. Haynes, O. Dieguez,    |
 |   M. C. Payne.                                                |
 |   Phys. Rev. B 66 035119 (2002).                              |
 |                                                               |
 |  "Preconditioned iterative minimization for linear-scaling    |
 |   electronic structure calculations".                         |
 |   A. A. Mostofi, P. D. Haynes, C.-K. Skylaris, M. C. Payne.   |
 |   J. Chem. Phys. 119(17), pp.8842-8848 (2003).                |
 |                                                               |
 |  "Total-energy calculations on a real space grid with         |
 |   localized functions and a plane-wave basis".                |
 |   A. A. Mostofi, C.-K. Skylaris, P. D. Haynes, M. C. Payne.   |
 |   Comput. Phys. Commun. 147, pp.788-802 (2002).               |
 |                                                               |
 |  "Accurate kinetic energy evaluation in electronic structure  |
 |   calculations with localized functions on real space grids"  |
 |   C.-K. Skylaris, A. A. Mostofi, P. D. Haynes, C. J. Pickard, |
 |   M. C. Payne.                                                |
 |   Comput. Phys. Commun. 140, pp.315-322 (2001).               |
 |                                                               |
 |  "Accurate ionic forces and geometry optimization in linear-  |
 |   scaling density-functional theory with local orbitals"      |
 |   N. D. M. Hine, M. Robinson, P. D. Haynes, C.-K. Skylaris,   |
 |   M. C. Payne, and A. A. Mostofi.                             |
 |   Phys. Rev. B 83 195102 (2011).                              |
 |                                                               |
 +---------------------------------------------------------------+

Job started: 04-02-2020 09:48 (-0000)
 
Reading parameters from file "complex_18721.dat" ...... done

If your calculation crashes here, before "Checking processes and threads..."
is displayed, then your stack size is insufficient.
If so, use "ulimit -s unlimited" at runtime.
You can disable this check with "check_stack_size F".

Checking processes and threads...
   Determining the default number of threads...
      No default threads set at compilation time: defaulting to 1.
      OpenMP library call suggests 4 threads.
      Hybrid MPI-OpenMP compilation detected.
      Number of MPI processes > 1.
      OMP_NUM_THREADS environment variable present and
      its value matches the one obtained from the OpenMP library call.
      Using this value as default.
      Default threads: 4
      Default applies to threads_max and threads_num_fftboxes.
      Settings in the input file override this default.
   ... done

   Running with 60 MPI processes.
   There are 6 MPI processes running on the same node as the root process.
   Each MPI process is using: 
               1 threads for simulation cell FFTs.
               1 threads for parallel FFT box operations.
               4 threads for loops over batched FFT box operations.
               4 threads in other parallel regions.
... done

Basic input checks...... done

Reading geometry and species blocks from file "complex_18721.dat" ...
  <species_atomic_set> block not found: NGWF initialisation set to SOLVE
IS: Dielectric excluded regions:
    - NONE.
    
  Number of PPD points along a3 set to 1.  This is 
  the default value, it may have been provided also in the input file.
... done
 Writing xyz coordinates to file "complex_18721.xyz" ... done


--------------------------------------------------------------------------------
---------------------------------- INPUT FILE ----------------------------------
--------------------------------------------------------------------------------

cutoff_energy       : 800 eV                                                    
xc_functional PBE                                                               
task SINGLEPOINT                                                                
write_xyz true                                                                  
output_detail VERBOSE                                                           
ngwf_threshold_orig : 0.000002                                                  
kernel_cutoff       : 1000                                                      
k_zero              : 3.5                                                       
elec_cg_max 0                                                                   
occ_mix 1.0                                                                     
dispersion 1                                                                    
maxit_ngwf_cg 40                                                                
minit_lnv 10                                                                    
maxit_lnv 10                                                                    
write_denskern T                                                                
write_tightbox_ngwfs T                                                          
charge 9                                                                        
is_implicit_solvent T                                                           
is_auto_solvation T                                                             
is_include_apolar T                                                             
is_smeared_ion_rep T                                                            
is_solvent_surf_tension 4.7624E-5 Ha/bohr**2                                    
is_apolar_scaling_factor 0.281075                                               
is_solvation_beta 1.3                                                           
is_density_threshold 0.00035                                                    
is_bulk_permittivity 78.54                                                      
is_dielectric_model fix_initial                                                 
is_smeared_ion_width 0.8                                                        
mg_defco_fd_order 8                                                             
is_bc_coarseness 10                                                             
is_bc_surface_coarseness 1                                                      
fine_grid_scale 2.0                                                             
%block species                                                                  
N   N   7 4 8.0                                                                 
H   H   1 1 8.0                                                                 
C   C   6 4 8.0                                                                 
S   S  16 9 8.0                                                                 
O   O   8 4 8.0                                                                 
%endblock species                                                               
%block species_pot                                                              
N   N_00.recpot                                                                 
H   H_04.recpot                                                                 
C   C_01.recpot                                                                 
S   S_00.recpot                                                                 
O   O_02.recpot                                                                 
%endblock species_pot                                                           
%block lattice_cart                                                             
135.996   0.000   0.000                                                         
0.000 142.663   0.000                                                           
0.000   0.000   160.158                                                         
%endblock lattice_cart                                                          
%block positions_abs                                                            
     Hash =  -000000554689393515336565
%endblock positions_abs                                                         

--------------------------------------------------------------------------------
-------------------------------- END INPUT FILE --------------------------------
--------------------------------------------------------------------------------


 
 ESDF WARNING(1): "kernelcutoff" (esdf_physical) has no units. Assume "bohr".
 ESDF WARNING(2): "kzero" (esdf_physical) has no units. Assume "1/bohr".
 ESDF WARNING(3
 ): "issmearedionwidth" (esdf_physical) has no units. Assume "bohr".
<<<<<<<<<<<<<<<<<<<<<<<<<<<<<<<<< Full system >>>>>>>>>>>>>>>>>>>>>>>>>>>>>>>>>>
<<<<<<<<<<<<<<<<<<<<<<<<< Pseudopotential information >>>>>>>>>>>>>>>>>>>>>>>>>>
File: N_00.recpot [ 2001 points up to Gmax=  52.9 (1/bohr)]
  Atomic number:  7;  ionic charge:  5.000000
    Shell 1: l = 0; rc = 1.48 bohr
File: H_04.recpot [ 2001 points up to Gmax=  52.9 (1/bohr)]
  Atomic number:  1;  ionic charge:  1.000000
    Local potential
File: C_01.recpot [ 2001 points up to Gmax=  52.9 (1/bohr)]
  Atomic number:  6;  ionic charge:  4.000000
    Shell 1: l = 0; rc = 1.48 bohr
File: S_00.recpot [ 2001 points up to Gmax=  52.9 (1/bohr)]
  Atomic number: 16;  ionic charge:  6.000000
    Shell 1: l = 0; rc = 1.90 bohr
    Shell 2: l = 2; rc = 1.84 bohr
File: O_02.recpot [ 2001 points up to Gmax=  52.9 (1/bohr)]
  Atomic number:  8;  ionic charge:  6.000000
    Shell 1: l = 0; rc = 1.31 bohr
<<<<<<<<<<<<<<<<<<<<<<<<<<<<<<<<<<<<<<<<>>>>>>>>>>>>>>>>>>>>>>>>>>>>>>>>>>>>>>>>

-------------------------- Atom counting information ---------------------------
Symbol    Natoms    Nngwfs    Nprojs
  N        236       944       236
  H       1317      1317         0
  C        816      3264       816
  S          6        54        36
  O        240       960       240
.......   ......    ......    ......
Totals:   2615      6539      1328
--------------------------------------------------------------------------------

=============================== PSINC grid sizes ===============================
                      Simulation cell:  270 x 286 x 315
                              FFT-box:   99 x 105 x  99
                                  PPD:    5 x  11 x   1
Grid space d1=  0.503688888889a0 (KE cutoff=  29.94189Eh = 814.76038eV)
Grid space d2=  0.498821678322a0 (KE cutoff=  30.52906Eh = 830.73786eV)
Grid space d3=  0.508438095238a0 (KE cutoff=  29.38514Eh = 799.61048eV)
================================================================================

********************* Fourier parallelisation information **********************
       Coarse grid (whole simulation cell) dimensions:    270   286   315
          Real-space ('12') slabs/node (min max mean):      5     6     5
         Recip-space ('23') slabs/node (min max mean):      2     3     2
********************************************************************************

********************* Fourier parallelisation information **********************
       Double grid (whole simulation cell) dimensions:    540   572   630
          Real-space ('12') slabs/node (min max mean):     10    11    10
         Recip-space ('23') slabs/node (min max mean):      4     5     4
********************************************************************************
ONETEP fine grid is 540 x 572 x 630 gridpoints, 135.9960 x 142.6630 x 160.1580 bohr.
FD multigrid is     537 x 569 x 625 gridpoints, 135.2405 x 141.9148 x 158.8869 bohr.


Calculating local pseudopotential in open BC on a radial grid ...
Discrepancy between calculated realspace psloc and -Z/x on [5a0,253.965a0]:
max |rel. diff| # avg |rel. diff| #  avg rel. diff #  f # pseudopotential file
 0.000259282084    0.000004141996   0.000000074978   54  'N_00.recpot'
 0.000405386992    0.000016970607  -0.000000075982   54  'H_04.recpot'
 0.000371694516    0.000017434762   0.000000149329   54  'C_01.recpot'
 0.000461642895    0.000020341726   0.000000491514   54  'S_00.recpot'
 0.000682525123    0.000027368244   0.000000159803   54  'O_02.recpot'
... done

Atom SCF Calculation for N  : Z (AE atom) =   7 : Z (PS atom) =   5
Config String:
Orbitals (num,occ):  2     2.00 3.00
Orbitals   (num,l):  2        0    1
Real-space Grid (nr,dr,rmax): 1203    0.0066555740    8.0000000000
Spherical Bessel Basis (nsws,lmax,cutoff):   47    1  176.3951722778
Confining potential (l,width,scale):  0    3.0000000000  100.0000000000
Confining potential (l,width,scale):  1    3.0000000000  100.0000000000
  1         -4.7312375307   -3.4155304497    7.0523828109   -1.9351020946
  2         -9.7309464766   -2.0532547791    8.2966052865   -2.2494486027
  3         -9.6627394379   -2.1124926340    8.2327997121   -2.2369778124
  4         -9.6814993499   -2.1215521045    8.2229805960   -2.2365178421
  5         -9.6843326483   -2.1250939529    8.2191374534   -2.2362718126
  6         -9.6859628709   -2.1267894855    8.2172963573   -2.2362066344
  7         -9.6867347035   -2.1276425665    8.2163697352   -2.2361903369
  8         -9.6870802100   -2.1280764625    8.2158983890   -2.2361891460
  9         -9.6872290423   -2.1282977424    8.2156580222   -2.2361920435
 10         -9.6872901988   -2.1284107021    8.2155353368   -2.2361953393
 11         -9.6873135296   -2.1284684031    8.2154726809   -2.2361979819
 12         -9.6873212476   -2.1284978948    8.2154406648   -2.2361998431
 13         -9.6873229586   -2.1285129774    8.2154242957   -2.2362010676
 14         -9.6873226456   -2.1285206957    8.2154159216   -2.2362018403
 15         -9.6873218534   -2.1285246479    8.2154116349   -2.2362023142
 16         -9.6873212599   -2.1285262679    8.2154098784   -2.2362025420
 17         -9.6873207834   -2.1285272564    8.2154088068   -2.2362026955
 18         -9.6873204210   -2.1285278596    8.2154081529   -2.2362027982
 19         -9.6873201550   -2.1285282280    8.2154077538   -2.2362028667
 20         -9.6873199645   -2.1285284529    8.2154075102   -2.2362029121
 21         -9.6873198305   -2.1285285903    8.2154073614   -2.2362029421
 22         -9.6873197377   -2.1285286742    8.2154072705   -2.2362029618
Atom SCF converged after  22 iterations to a total energy of     -9.68731974

Atom SCF Calculation for H  : Z (AE atom) =   1 : Z (PS atom) =   1
Config String:
Orbitals (num,occ):  1     1.00
Orbitals   (num,l):  1        0
Real-space Grid (nr,dr,rmax): 1203    0.0066555740    8.0000000000
Spherical Bessel Basis (nsws,lmax,cutoff):   47    0  176.3951722778
Confining potential (l,width,scale):  0    3.0000000000  100.0000000000
  1         -0.3194257691   -0.2393854593    0.2820953124   -0.2424203209
  2         -0.3951823392   -0.2377116493    0.2886404059   -0.2475147891
  3         -0.4317044583   -0.2352244387    0.2921333887   -0.2514046172
  4         -0.4470703708   -0.2341892222    0.2934391879   -0.2531009782
  5         -0.4532132900   -0.2338556667    0.2938388426   -0.2537313520
  6         -0.4556579251   -0.2337612552    0.2939448584   -0.2539550462
  7         -0.4566418315   -0.2337377355    0.2939680120   -0.2540342273
  8         -0.4570437922   -0.2337331116    0.2939708287   -0.2540627372
  9         -0.4572102946   -0.2337328328    0.2939698291   -0.2540732650
 10         -0.4572800424   -0.2337332404    0.2939687193   -0.2540772588
 11         -0.4573095100   -0.2337335791    0.2939680317   -0.2540788122
 12         -0.4573220379   -0.2337337762    0.2939676699   -0.2540794294
 13         -0.4573273880   -0.2337338775    0.2939674931   -0.2540796787
 14         -0.4573296803   -0.2337339266    0.2939674099   -0.2540797808
 15         -0.4573306647   -0.2337339495    0.2939673718   -0.2540798230
 16         -0.4573310882   -0.2337339601    0.2939673545   -0.2540798406
 17         -0.4573312706   -0.2337339649    0.2939673467   -0.2540798479
 18         -0.4573313493   -0.2337339670    0.2939673433   -0.2540798510
Atom SCF converged after  18 iterations to a total energy of     -0.45733135

Atom SCF Calculation for C  : Z (AE atom) =   6 : Z (PS atom) =   4
Config String:
Orbitals (num,occ):  2     2.00 2.00
Orbitals   (num,l):  2        0    1
Real-space Grid (nr,dr,rmax): 1203    0.0066555740    8.0000000000
Spherical Bessel Basis (nsws,lmax,cutoff):   47    1  176.3951722778
Confining potential (l,width,scale):  0    3.0000000000  100.0000000000
Confining potential (l,width,scale):  1    3.0000000000  100.0000000000
  1         -5.2976922011   -1.3069684169    4.5135249990   -1.4493313817
  2         -5.3721716256   -1.3429755895    4.4750154450   -1.4361613026
  3         -5.3809959565   -1.3617365618    4.4541655428   -1.4305930207
  4         -5.3918938866   -1.3667928461    4.4484735100   -1.4294652294
  5         -5.3956096428   -1.3688539142    4.4461376126   -1.4290734646
  6         -5.3968271862   -1.3696852393    4.4451910874   -1.4289366866
  7         -5.3972028401   -1.3700178062    4.4448112275   -1.4288900460
  8         -5.3973067903   -1.3701500158    4.4446598370   -1.4288749220
  9         -5.3973286940   -1.3702023868    4.4445997329   -1.4288704293
 10         -5.3973289850   -1.3702230869    4.4445759233   -1.4288693188
 11         -5.3973254264   -1.3702312560    4.4445665049   -1.4288691775
 12         -5.3973224003   -1.3702344755    4.4445627836   -1.4288692549
 13         -5.3973208708   -1.3702354890    4.4445616088   -1.4288693270
 14         -5.3973198783   -1.3702360102    4.4445610034   -1.4288693814
 15         -5.3973192535   -1.3702362780    4.4445606917   -1.4288694190
 16         -5.3973188684   -1.3702364155    4.4445605313   -1.4288694437
 17         -5.3973186349   -1.3702364860    4.4445604489   -1.4288694595
 18         -5.3973184951   -1.3702365221    4.4445604065   -1.4288694693
 19         -5.3973184122   -1.3702365405    4.4445603848   -1.4288694753
Atom SCF converged after  19 iterations to a total energy of     -5.39731841

Atom SCF Calculation for S  : Z (AE atom) =  16 : Z (PS atom) =   6
Config String:
Orbitals (num,occ):  3     2.00 4.00 0.00
Orbitals   (num,l):  3        0    1    2
Real-space Grid (nr,dr,rmax): 1203    0.0066555740    8.0000000000
Spherical Bessel Basis (nsws,lmax,cutoff):   47    2  176.3951722778
Confining potential (l,width,scale):  0    3.0000000000  100.0000000000
Confining potential (l,width,scale):  1    3.0000000000  100.0000000000
Confining potential (l,width,scale):  2    3.0000000000  100.0000000000
  1        -12.4735062396   -1.0328741412   10.1554312477   -2.4512393157
  2         -9.9458301913   -2.4607392455    8.3041325857   -2.0306994528
  3        -10.1450417646   -2.2931184565    8.4831893826   -2.0812538287
  4        -10.1528335592   -2.2733105793    8.5050388867   -2.0896035179
  5        -10.1571940363   -2.2633716629    8.5160794258   -2.0939370707
  6        -10.1594380571   -2.2584938667    8.5215163935   -2.0961289008
  7        -10.1605856507   -2.2561081821    8.5241804044   -2.0972291378
  8        -10.1611799191   -2.2549395235    8.5254868240   -2.0977806248
  9        -10.1614918752   -2.2543658586    8.5261285885   -2.0980571586
 10        -10.1616572884   -2.2540839121    8.5264441898   -2.0981959233
 11        -10.1617455602   -2.2539453058    8.5265994231   -2.0982656006
 12        -10.1617928447   -2.2538772062    8.5266757320   -2.0983006047
 13        -10.1618182292   -2.2538437891    8.5267131983   -2.0983181961
 14        -10.1618318741   -2.2538274201    8.5267315620   -2.0983270391
 15        -10.1618392144   -2.2538194197    8.5267405433   -2.0983314852
 16        -10.1618431651   -2.2538155200    8.5267449245   -2.0983337210
 17        -10.1618452923   -2.2538136252    8.5267470551   -2.0983348455
 18        -10.1618464380   -2.2538127080    8.5267480875   -2.0983354110
 19        -10.1618470552   -2.2538122659    8.5267485856   -2.0983356955
 20        -10.1618473878   -2.2538120540    8.5267488248   -2.0983358386
 21        -10.1618475670   -2.2538119530    8.5267489389   -2.0983359106
 22        -10.1618476637   -2.2538119053    8.5267489929   -2.0983359468
Atom SCF converged after  22 iterations to a total energy of    -10.16184766

Atom SCF Calculation for O  : Z (AE atom) =   8 : Z (PS atom) =   6
Config String:
Orbitals (num,occ):  2     2.00 4.00
Orbitals   (num,l):  2        0    1
Real-space Grid (nr,dr,rmax): 1203    0.0066555740    8.0000000000
Spherical Bessel Basis (nsws,lmax,cutoff):   47    1  176.3951722778
Confining potential (l,width,scale):  0    3.0000000000  100.0000000000
Confining potential (l,width,scale):  1    3.0000000000  100.0000000000
  1         -1.8735052164   -7.5539365035   10.1554312477   -2.4512393157
  2        -16.0318313751   -3.1285771268   13.6395848164   -3.2358799643
  3        -15.9524020423   -3.0762819706   13.6967272503   -3.2536856837
  4        -15.8521515939   -3.0781493909   13.6951909330   -3.2561700440
  5        -15.8357139793   -3.0748501933   13.6988803334   -3.2580493133
  6        -15.8246052853   -3.0740779781   13.6997881576   -3.2588327446
  7        -15.8189019501   -3.0737449687   13.7001869911   -3.2592378801
  8        -15.8159785510   -3.0736026016   13.7003615168   -3.2594475790
  9        -15.8144776168   -3.0735437994   13.7004360379   -3.2595560735
 10        -15.8137058024   -3.0735207882   13.7004667348   -3.2596122456
 11        -15.8133083127   -3.0735125946   13.7004786868   -3.2596413656
 12        -15.8131032938   -3.0735102195   13.7004828997   -3.2596564858
 13        -15.8129973902   -3.0735099286   13.7004840891   -3.2596643505
 14        -15.8129426040   -3.0735102506   13.7004842061   -3.2596684489
 15        -15.8129142203   -3.0735106556   13.7004840157   -3.2596705887
 16        -15.8128994940   -3.0735109855   13.7004837906   -3.2596717080
 17        -15.8128918425   -3.0735112169   13.7004836103   -3.2596722946
 18        -15.8128878614   -3.0735113674   13.7004834848   -3.2596726026
 19        -15.8128857871   -3.0735114608   13.7004834035   -3.2596727646
 20        -15.8128847048   -3.0735115170   13.7004833533   -3.2596728500
 21        -15.8128841394   -3.0735115501   13.7004833231   -3.2596728951
 22        -15.8128838436   -3.0735115693   13.7004833054   -3.2596729190
 23        -15.8128836887   -3.0735115802   13.7004832951   -3.2596729316
 24        -15.8128836074   -3.0735115864   13.7004832893   -3.2596729383
Atom SCF converged after  24 iterations to a total energy of    -15.81288361

========================== Calculation in vacuum ==============================
= Adjusting the following parameters: 
= is_implicit_solvent: F
= is_include_apolar: F
= write_denskern: T
= write_tightbox_ngwfs: T
= restart read filename prefix: ""
= restart write filename prefix: "vacuum_"
===============================================================================

Determining parallel strategy ...
... using space-filling curve
... NGWF load balancing: max    109;  min    108;  average    109
... Projector load balancing: max     26;  min     21;  average     22
... done
Calculating direct Ion-Ion energy ...
Ion-Ion Energy        :    834492.71428998326883
======================= Empirical dispersion information =======================
Model : Elstner
Dispersion Correction Energy: -0.32659317E+01 Hartree
================================================================================
Basis initialisation ...... NGWF spheres initialised
... Projector spheres initialised
... NGWF tight boxes initialised
... Tight-boxes gathered
... NGWF basis size (local,global):    1039383  62526641
... Nonlocal pseudopotential projector initialisation
... done

========================== Sparse matrix information ===========================
                        Overlap matrix filling:   6.72%
                        Density kernel filling: 100.00%
              NGWF-Proj overlap matrix filling:   1.76%
                    Hamiltonian matrix filling:   7.59%
                  NGWF diagonal matrix filling:   0.05%
                             KS matrix filling: 100.00% 
                           KSKS matrix filling: 100.00% 
================================================================================

Sparse matrix initialisation ... done

Generating smeared ion density ... done
Smeared ion self correction:     -14525.987107
Smeared ion non-self correction: -834444.438175
NGWF initialisation ...... done
============ Calculation of NGWF S^-1 using Hotelling algorithm ================ 
         Iteration  |  Frobenius norm and Maximum abs value    (of I-S*S_n^-1)   
               1       0.78627909E+02     0.98194462E+00
               2       0.76731170E+02     0.96436784E+00
               3       0.73673829E+02     0.93056929E+00
               4       0.69352647E+02     0.86855656E+00
               5       0.63996789E+02     0.76353051E+00
               6       0.58004037E+02     0.70337469E+00
               7       0.52008855E+02     0.67327883E+00
               8       0.46461768E+02     0.64785603E+00
               9       0.40323938E+02     0.60746162E+00
              10       0.31937961E+02     0.53762313E+00
              11       0.21282100E+02     0.42577141E+00
              12       0.10720779E+02     0.28088117E+00
              13       0.34471816E+01     0.13510990E+00
              14       0.52496895E+00     0.34228265E-01
              15       0.24167363E-01     0.25986519E-02
              16       0.12003797E-03     0.19070952E-04
              17       0.55142719E-08     0.12077566E-08
              18       0.89462412E-13     0.39968029E-14
================================================================================
Calculating local pseudopotential in open BC on the fine real space grid ...
... done

MG BCs: +ve charge blocks (gridpoints):     20620 (   16189648).
MG BCs: -ve charge blocks (gridpoints):      8119 (    1089370).
MG BCs:     Elided blocks (gridpoints):    173294 (  173691607).
MG BCs: Computational effort saved:  99.9850%.
MG BCs: Charge after coarse-graining:           -9.0002307.
MG DL_MG: Calling solver with defect correction order = 8
MG DL_MG: Solver finished
MG Hartree energy from (\int phi*rho dr):              1470.772087
MG Hartree energy from (\int eps (grad phi)^2 dr):     1470.153816
MG Discrepancy due to finite box and discretization:     -0.618271 (  -0.04204%)
MG Correction to account for finite box:                  0.467005
MG Remaining discrepancy, due to discretization:         -0.151265 (  -0.01028%)
Up spin density kernel initialisation ... 
======= Optimisation of K by Palser-Manolopoulos canonical purification ======== 
         Iteration  |  Band structure energy |    c_n   
               1       -2593.64513969664313    0.5267881
               2       -2770.26437009956953    0.5170152
               3       -2951.22595948217440    0.5154421
               4       -3102.25264123210491    0.5290831
               5       -3195.05128826600321    0.5652661
               6       -3233.82188575492000    0.6105281
               7       -3246.98358555762070    0.6219078
               8       -3252.71406887886633    0.6190396
               9       -3255.51606680330860    0.6323930
              10       -3256.68132713268142    0.6633976
              11       -3257.12098868046360    0.6949639
              12       -3257.30066324262407    0.6985199
              13       -3257.39418573301555    0.6588222
              14       -3257.45719311618086    0.5974639
              15       -3257.49791449005079    0.5297090
              16       -3257.51698444940394    0.4649873
              17       -3257.52091534764850    0.4388487
              18       -3257.52181485211622    0.4588325
              19       -3257.52234986392295    0.4884999
              20       -3257.52263070089521    0.4991598
              21       -3257.52269275507024    0.4999957
              22       -3257.52269524785561    0.5000014
              23       -3257.52269525172960    0.5000014
Termination criterion satisfied: band energy change below threshold.
Final occupancy bounds: [    0.00000000000000:    1.00000000000000]
Closest occupancy to 0.5:     1.00000000000000
================================================================================
... done

Writing density kernel to file "complex_18721.vacuum_dkn" ... done

>>> Optimising kernel for current NGWFs:
   Initial electron number for spin 1:    7228.00000000
     Final electron number for spin 1:    7228.00000000

=================== Penalty functional idempotency correction ==================
 RMS occupancy error at iteration   1:  0.000000 (step -0.5000 Ne1=   7228.0000)
            Final RMS occupancy error   :  0.000000 (Ne1=   7228.0000)
               Final occupancy bounds   : [  0.0000,  1.0000]
================================================================================

................................................................................
<<<<<<<<<<<<<< LNV (Original version) density kernel optimisation >>>>>>>>>>>>>>
~~~~~~~~~~~~~~~~~~~~~~~~~~~~~~~~~~~~~~~~~~~~~~~~~~~~~~~~~~~~~~~~~~~~~~~~~~~~~~~~
   iter  |      energy (Eh)       | rms gradient |  commutator  |   dE (Eh)
MG BCs: +ve charge blocks (gridpoints):     31159 (   17333517).
MG BCs: -ve charge blocks (gridpoints):      8434 (    1122671).
MG BCs:     Elided blocks (gridpoints):    162743 (  172514437).
MG BCs: Computational effort saved:  99.9793%.
MG BCs: Charge after coarse-graining:           -9.0009750.
MG DL_MG: Calling solver with defect correction order = 8
MG DL_MG: Solver finished
MG Hartree energy from (\int phi*rho dr):              1424.858235
MG Hartree energy from (\int eps (grad phi)^2 dr):     1424.190022
MG Discrepancy due to finite box and discretization:     -0.668213 (  -0.04690%)
MG Correction to account for finite box:                  0.473759
MG Remaining discrepancy, due to discretization:         -0.194454 (  -0.01365%)
      ideal mu1:      -0.715595912290
             Q0:  -11561.980443336884
             G0:    -142.033511324398
   RMS gradient:       0.001822569400
MG BCs: +ve charge blocks (gridpoints):     31158 (   17414630).
MG BCs: -ve charge blocks (gridpoints):      8346 (    1102313).
MG BCs:     Elided blocks (gridpoints):    162744 (  172453682).
MG BCs: Computational effort saved:  99.9793%.
MG BCs: Charge after coarse-graining:           -9.0009958.
MG DL_MG: Calling solver with defect correction order = 8
MG DL_MG: Solver finished
MG Hartree energy from (\int phi*rho dr):              1450.686461
MG Hartree energy from (\int eps (grad phi)^2 dr):     1450.035477
MG Discrepancy due to finite box and discretization:     -0.650985 (  -0.04487%)
MG Correction to account for finite box:                  0.472475
MG Remaining discrepancy, due to discretization:         -0.178510 (  -0.01231%)
     Trial step:       0.500000000000
             Q1:  -11572.880526371184
 Quadratic coef:      60.116672627899
 Linear coef   :     -71.016755662199
           Qmin:  -11582.953741443389
Quadratic minimum step length (  0.295328868672) accepted
    Initial Ne1:    7228.00000000
      Final Ne1:    7228.00000000

=================== Penalty functional idempotency correction ==================
 RMS occupancy error at iteration   1:  0.003299 (step -0.4888 Ne1=   7228.0000)
 RMS occupancy error at iteration   2:  0.000024 (step -0.5000 Ne1=   7228.0000)
            Final RMS occupancy error   :  0.000000 (Ne1=   7228.0000)
               Final occupancy bounds   : [  0.0000,  1.0000]
================================================================================

    1        -1.156198044334E+04     1.8226E-03     1.6488E-03
MG BCs: +ve charge blocks (gridpoints):     31172 (   17382922).
MG BCs: -ve charge blocks (gridpoints):      8380 (    1110901).
MG BCs:     Elided blocks (gridpoints):    162729 (  172476802).
MG BCs: Computational effort saved:  99.9793%.
MG BCs: Charge after coarse-graining:           -9.0009873.
MG DL_MG: Calling solver with defect correction order = 8
MG DL_MG: Solver finished
MG Hartree energy from (\int phi*rho dr):              1432.248574
MG Hartree energy from (\int eps (grad phi)^2 dr):     1431.591470
MG Discrepancy due to finite box and discretization:     -0.657104 (  -0.04588%)
MG Correction to account for finite box:                  0.472896
MG Remaining discrepancy, due to discretization:         -0.184208 (  -0.01286%)
      ideal mu1:      -0.756284676985
             Q0:  -11583.339988404652
             G0:     -11.556373584281
   RMS gradient:       0.000516444674
MG BCs: +ve charge blocks (gridpoints):     31164 (   17400123).
MG BCs: -ve charge blocks (gridpoints):      8355 (    1105564).
MG BCs:     Elided blocks (gridpoints):    162737 (  172464938).
MG BCs: Computational effort saved:  99.9793%.
MG BCs: Charge after coarse-graining:           -9.0009909.
MG DL_MG: Calling solver with defect correction order = 8
MG DL_MG: Solver finished
MG Hartree energy from (\int phi*rho dr):              1437.757185
MG Hartree energy from (\int eps (grad phi)^2 dr):     1437.104011
MG Discrepancy due to finite box and discretization:     -0.653174 (  -0.04543%)
MG Correction to account for finite box:                  0.472181
MG Remaining discrepancy, due to discretization:         -0.180993 (  -0.01259%)
     Trial step:       0.384271303035
             Q1:  -11586.052185767912
 Quadratic coef:       1.728585372332
 Linear coef   :      -4.440782735591
           Qmin:  -11586.192111247467
Quadratic minimum step length (  0.493601703339) accepted
    Initial Ne1:    7227.99992346
      Final Ne1:    7228.00000000

=================== Penalty functional idempotency correction ==================
 RMS occupancy error at iteration   1:  0.001723 (step -0.4935 Ne1=   7228.0000)
 RMS occupancy error at iteration   2:  0.000009 (step -0.5000 Ne1=   7228.0000)
            Final RMS occupancy error   :  0.000000 (Ne1=   7228.0000)
               Final occupancy bounds   : [  0.0000,  1.0000]
================================================================================

    2        -1.158333998840E+04     5.1644E-04     4.6722E-04    -2.1360E+01
MG BCs: +ve charge blocks (gridpoints):     31167 (   17405153).
MG BCs: -ve charge blocks (gridpoints):      8347 (    1104068).
MG BCs:     Elided blocks (gridpoints):    162734 (  172461404).
MG BCs: Computational effort saved:  99.9793%.
MG BCs: Charge after coarse-graining:           -9.0009919.
MG DL_MG: Calling solver with defect correction order = 8
MG DL_MG: Solver finished
MG Hartree energy from (\int phi*rho dr):              1439.364359
MG Hartree energy from (\int eps (grad phi)^2 dr):     1438.712227
MG Discrepancy due to finite box and discretization:     -0.652132 (  -0.04531%)
MG Correction to account for finite box:                  0.471991
MG Remaining discrepancy, due to discretization:         -0.180142 (  -0.01252%)
      ideal mu1:      -0.778338008927
             Q0:  -11586.225846851710
             G0:      -1.815054206576
   RMS gradient:       0.000204797190
MG BCs: +ve charge blocks (gridpoints):     31166 (   17404646).
MG BCs: -ve charge blocks (gridpoints):      8349 (    1105044).
MG BCs:     Elided blocks (gridpoints):    162735 (  172460935).
MG BCs: Computational effort saved:  99.9793%.
MG BCs: Charge after coarse-graining:           -9.0009915.
MG DL_MG: Calling solver with defect correction order = 8
MG DL_MG: Solver finished
MG Hartree energy from (\int phi*rho dr):              1437.216679
MG Hartree energy from (\int eps (grad phi)^2 dr):     1436.564987
MG Discrepancy due to finite box and discretization:     -0.651693 (  -0.04534%)
MG Correction to account for finite box:                  0.471731
MG Remaining discrepancy, due to discretization:         -0.179961 (  -0.01252%)
     Trial step:       0.435519195584
             Q1:  -11586.681383019080
 Quadratic coef:       0.334954780619
 Linear coef   :      -0.790490947990
           Qmin:  -11586.692235133809
Quadratic minimum step length (  0.513911133242) accepted
    Initial Ne1:    7227.99996939
      Final Ne1:    7228.00000000

=================== Penalty functional idempotency correction ==================
 RMS occupancy error at iteration   1:  0.000570 (step -0.4977 Ne1=   7228.0000)
 RMS occupancy error at iteration   2:  0.000001 (step -0.5000 Ne1=   7228.0000)
            Final RMS occupancy error   :  0.000000 (Ne1=   7228.0000)
               Final occupancy bounds   : [  0.0000,  1.0000]
================================================================================

    3        -1.158622584685E+04     2.0480E-04     1.8528E-04    -2.8859E+00
MG BCs: +ve charge blocks (gridpoints):     31168 (   17404550).
MG BCs: -ve charge blocks (gridpoints):      8351 (    1105247).
MG BCs:     Elided blocks (gridpoints):    162733 (  172460828).
MG BCs: Computational effort saved:  99.9793%.
MG BCs: Charge after coarse-graining:           -9.0009915.
MG DL_MG: Calling solver with defect correction order = 8
MG DL_MG: Solver finished
MG Hartree energy from (\int phi*rho dr):              1436.838006
MG Hartree energy from (\int eps (grad phi)^2 dr):     1436.186384
MG Discrepancy due to finite box and discretization:     -0.651622 (  -0.04535%)
MG Correction to account for finite box:                  0.471685
MG Remaining discrepancy, due to discretization:         -0.179937 (  -0.01252%)
      ideal mu1:      -0.778928425737
             Q0:  -11586.696359553956
             G0:      -0.421902576058
   RMS gradient:       0.000098850450
MG BCs: +ve charge blocks (gridpoints):     31167 (   17405421).
MG BCs: -ve charge blocks (gridpoints):      8347 (    1104973).
MG BCs:     Elided blocks (gridpoints):    162734 (  172460231).
MG BCs: Computational effort saved:  99.9793%.
MG BCs: Charge after coarse-graining:           -9.0009917.
MG DL_MG: Calling solver with defect correction order = 8
MG DL_MG: Solver finished
MG Hartree energy from (\int phi*rho dr):              1438.000000
MG Hartree energy from (\int eps (grad phi)^2 dr):     1437.348371
MG Discrepancy due to finite box and discretization:     -0.651629 (  -0.04531%)
MG Correction to account for finite box:                  0.471582
MG Remaining discrepancy, due to discretization:         -0.180047 (  -0.01252%)
     Trial step:       0.473094243625
             Q1:  -11586.792784769670
 Quadratic coef:       0.103174464390
 Linear coef   :      -0.199599680104
           Qmin:  -11586.792895146686
Quadratic minimum step length (  0.457620304816) accepted
    Initial Ne1:    7227.99999353
      Final Ne1:    7228.00000000

=================== Penalty functional idempotency correction ==================
 RMS occupancy error at iteration   1:  0.000181 (step -0.4992 Ne1=   7228.0000)
            Final RMS occupancy error   :  0.000000 (Ne1=   7228.0000)
               Final occupancy bounds   : [ -0.0000,  1.0000]
================================================================================

    4        -1.158669635955E+04     9.8850E-05     8.9428E-05    -4.7051E-01
MG BCs: +ve charge blocks (gridpoints):     31167 (   17405420).
MG BCs: -ve charge blocks (gridpoints):      8348 (    1104967).
MG BCs:     Elided blocks (gridpoints):    162734 (  172460238).
MG BCs: Computational effort saved:  99.9793%.
MG BCs: Charge after coarse-graining:           -9.0009916.
MG DL_MG: Calling solver with defect correction order = 8
MG DL_MG: Solver finished
MG Hartree energy from (\int phi*rho dr):              1437.961974
MG Hartree energy from (\int eps (grad phi)^2 dr):     1437.310346
MG Discrepancy due to finite box and discretization:     -0.651628 (  -0.04532%)
MG Correction to account for finite box:                  0.471585
MG Remaining discrepancy, due to discretization:         -0.180043 (  -0.01252%)
      ideal mu1:      -0.779296653397
             Q0:  -11586.793296156451
             G0:      -0.101938716185
   RMS gradient:       0.000048728545
MG BCs: +ve charge blocks (gridpoints):     31166 (   17405728).
MG BCs: -ve charge blocks (gridpoints):      8346 (    1104780).
MG BCs:     Elided blocks (gridpoints):    162735 (  172460117).
MG BCs: Computational effort saved:  99.9793%.
MG BCs: Charge after coarse-graining:           -9.0009916.
MG DL_MG: Calling solver with defect correction order = 8
MG DL_MG: Solver finished
MG Hartree energy from (\int phi*rho dr):              1438.324467
MG Hartree energy from (\int eps (grad phi)^2 dr):     1437.672703
MG Discrepancy due to finite box and discretization:     -0.651764 (  -0.04531%)
MG Correction to account for finite box:                  0.471578
MG Remaining discrepancy, due to discretization:         -0.180186 (  -0.01253%)
     Trial step:       0.465292952853
             Q1:  -11586.818273353856
 Quadratic coef:       0.022454168859
 Linear coef   :      -0.047431366264
           Qmin:  -11586.818344227922
Quadratic minimum step length (  0.491433920482) accepted
    Initial Ne1:    7228.00158749
      Final Ne1:    7228.00000000

=================== Penalty functional idempotency correction ==================
 RMS occupancy error at iteration   1:  0.000064 (step -0.4997 Ne1=   7228.0000)
            Final RMS occupancy error   :  0.000000 (Ne1=   7228.0000)
               Final occupancy bounds   : [ -0.0000,  1.0000]
================================================================================

    5        -1.158679329616E+04     4.8729E-05     4.4084E-05    -9.6937E-02
MG BCs: +ve charge blocks (gridpoints):     31166 (   17405741).
MG BCs: -ve charge blocks (gridpoints):      8346 (    1104780).
MG BCs:     Elided blocks (gridpoints):    162735 (  172460104).
MG BCs: Computational effort saved:  99.9793%.
MG BCs: Charge after coarse-graining:           -9.0009915.
MG DL_MG: Calling solver with defect correction order = 8
MG DL_MG: Solver finished
MG Hartree energy from (\int phi*rho dr):              1438.344873
MG Hartree energy from (\int eps (grad phi)^2 dr):     1437.693101
MG Discrepancy due to finite box and discretization:     -0.651771 (  -0.04531%)
MG Correction to account for finite box:                  0.471577
MG Remaining discrepancy, due to discretization:         -0.180194 (  -0.01253%)
      ideal mu1:      -0.779198190340
             Q0:  -11586.818390465458
             G0:      -0.029485351093
   RMS gradient:       0.000026228364
MG BCs: +ve charge blocks (gridpoints):     31168 (   17405360).
MG BCs: -ve charge blocks (gridpoints):      8347 (    1104983).
MG BCs:     Elided blocks (gridpoints):    162733 (  172460282).
MG BCs: Computational effort saved:  99.9793%.
MG BCs: Charge after coarse-graining:           -9.0009915.
MG DL_MG: Calling solver with defect correction order = 8
MG DL_MG: Solver finished
MG Hartree energy from (\int phi*rho dr):              1437.731653
MG Hartree energy from (\int eps (grad phi)^2 dr):     1437.079896
MG Discrepancy due to finite box and discretization:     -0.651757 (  -0.04533%)
MG Correction to account for finite box:                  0.471574
MG Remaining discrepancy, due to discretization:         -0.180183 (  -0.01253%)
     Trial step:       0.478184838732
             Q1:  -11586.827588286833
 Quadratic coef:       0.004901626482
 Linear coef   :      -0.014099447857
           Qmin:  -11586.828529672852
Quadratic minimum step length (  0.687745407012) accepted
    Initial Ne1:    7228.00094494
      Final Ne1:    7228.00000000

=================== Penalty functional idempotency correction ==================
 RMS occupancy error at iteration   1:  0.000036 (step -0.4998 Ne1=   7228.0000)
            Final RMS occupancy error   :  0.000000 (Ne1=   7228.0000)
               Final occupancy bounds   : [ -0.0000,  1.0000]
================================================================================

    6        -1.158681839047E+04     2.6228E-05     2.3728E-05    -2.5094E-02
MG BCs: +ve charge blocks (gridpoints):     31169 (   17405193).
MG BCs: -ve charge blocks (gridpoints):      8347 (    1105081).
MG BCs:     Elided blocks (gridpoints):    162732 (  172460351).
MG BCs: Computational effort saved:  99.9793%.
MG BCs: Charge after coarse-graining:           -9.0009914.
MG DL_MG: Calling solver with defect correction order = 8
MG DL_MG: Solver finished
MG Hartree energy from (\int phi*rho dr):              1437.462298
MG Hartree energy from (\int eps (grad phi)^2 dr):     1436.810547
MG Discrepancy due to finite box and discretization:     -0.651751 (  -0.04534%)
MG Correction to account for finite box:                  0.471573
MG Remaining discrepancy, due to discretization:         -0.180178 (  -0.01253%)
      ideal mu1:      -0.779019173626
             Q0:  -11586.828537871479
             G0:      -0.014726552266
   RMS gradient:       0.000018558343
MG BCs: +ve charge blocks (gridpoints):     31166 (   17405685).
MG BCs: -ve charge blocks (gridpoints):      8346 (    1104827).
MG BCs:     Elided blocks (gridpoints):    162735 (  172460113).
MG BCs: Computational effort saved:  99.9793%.
MG BCs: Charge after coarse-graining:           -9.0009915.
MG DL_MG: Calling solver with defect correction order = 8
MG DL_MG: Solver finished
MG Hartree energy from (\int phi*rho dr):              1438.056986
MG Hartree energy from (\int eps (grad phi)^2 dr):     1437.405266
MG Discrepancy due to finite box and discretization:     -0.651721 (  -0.04532%)
MG Correction to account for finite box:                  0.471559
MG Remaining discrepancy, due to discretization:         -0.180161 (  -0.01253%)
     Trial step:       0.573471382495
             Q1:  -11586.832300413516
 Quadratic coef:       0.004682714251
 Linear coef   :      -0.008445256287
           Qmin:  -11586.832345617902
Quadratic minimum step length (  0.517126664097) accepted
    Initial Ne1:    7228.00013576
      Final Ne1:    7228.00000000

=================== Penalty functional idempotency correction ==================
 RMS occupancy error at iteration   1:  0.000002 (step -0.5000 Ne1=   7228.0000)
            Final RMS occupancy error   :  0.000000 (Ne1=   7228.0000)
               Final occupancy bounds   : [  0.0000,  1.0000]
================================================================================

    7        -1.158682853787E+04     1.8558E-05     1.6789E-05    -1.0147E-02
MG BCs: +ve charge blocks (gridpoints):     31166 (   17405632).
MG BCs: -ve charge blocks (gridpoints):      8346 (    1104850).
MG BCs:     Elided blocks (gridpoints):    162735 (  172460143).
MG BCs: Computational effort saved:  99.9793%.
MG BCs: Charge after coarse-graining:           -9.0009915.
MG DL_MG: Calling solver with defect correction order = 8
MG DL_MG: Solver finished
MG Hartree energy from (\int phi*rho dr):              1437.998476
MG Hartree energy from (\int eps (grad phi)^2 dr):     1437.346752
MG Discrepancy due to finite box and discretization:     -0.651724 (  -0.04532%)
MG Correction to account for finite box:                  0.471561
MG Remaining discrepancy, due to discretization:         -0.180163 (  -0.01253%)
      ideal mu1:      -0.779303629591
             Q0:  -11586.832345718518
             G0:      -0.008499800996
   RMS gradient:       0.000014099595
MG BCs: +ve charge blocks (gridpoints):     31166 (   17405721).
MG BCs: -ve charge blocks (gridpoints):      8346 (    1104797).
MG BCs:     Elided blocks (gridpoints):    162735 (  172460107).
MG BCs: Computational effort saved:  99.9793%.
MG BCs: Charge after coarse-graining:           -9.0009915.
MG DL_MG: Calling solver with defect correction order = 8
MG DL_MG: Solver finished
MG Hartree energy from (\int phi*rho dr):              1438.048255
MG Hartree energy from (\int eps (grad phi)^2 dr):     1437.396572
MG Discrepancy due to finite box and discretization:     -0.651683 (  -0.04532%)
MG Correction to account for finite box:                  0.471549
MG Remaining discrepancy, due to discretization:         -0.180134 (  -0.01253%)
     Trial step:       0.544570787855
             Q1:  -11586.835738405818
 Quadratic coef:       0.001236056025
 Linear coef   :      -0.004628743325
           Qmin:  -11586.836679111248
Quadratic minimum step length (  1.019645690946) accepted
    Initial Ne1:    7228.00015360
      Final Ne1:    7228.00000000

=================== Penalty functional idempotency correction ==================
 RMS occupancy error at iteration   1:  0.000021 (step -0.4994 Ne1=   7228.0000)
            Final RMS occupancy error   :  0.000000 (Ne1=   7228.0000)
               Final occupancy bounds   : [ -0.0000,  1.0000]
================================================================================

    8        -1.158683234572E+04     1.4100E-05     1.2756E-05    -3.8078E-03
MG BCs: +ve charge blocks (gridpoints):     31165 (   17405728).
MG BCs: -ve charge blocks (gridpoints):      8345 (    1104801).
MG BCs:     Elided blocks (gridpoints):    162736 (  172460096).
MG BCs: Computational effort saved:  99.9793%.
MG BCs: Charge after coarse-graining:           -9.0009916.
MG DL_MG: Calling solver with defect correction order = 8
MG DL_MG: Solver finished
MG Hartree energy from (\int phi*rho dr):              1438.090316
MG Hartree energy from (\int eps (grad phi)^2 dr):     1437.438669
MG Discrepancy due to finite box and discretization:     -0.651647 (  -0.04531%)
MG Correction to account for finite box:                  0.471538
MG Remaining discrepancy, due to discretization:         -0.180109 (  -0.01252%)
      ideal mu1:      -0.779409056959
             Q0:  -11586.836670598015
             G0:      -0.011611635921
   RMS gradient:       0.000016511344
MG BCs: +ve charge blocks (gridpoints):     31166 (   17405559).
MG BCs: -ve charge blocks (gridpoints):      8346 (    1104958).
MG BCs:     Elided blocks (gridpoints):    162735 (  172460108).
MG BCs: Computational effort saved:  99.9793%.
MG BCs: Charge after coarse-graining:           -9.0009915.
MG DL_MG: Calling solver with defect correction order = 8
MG DL_MG: Solver finished
MG Hartree energy from (\int phi*rho dr):              1437.770537
MG Hartree energy from (\int eps (grad phi)^2 dr):     1437.118956
MG Discrepancy due to finite box and discretization:     -0.651581 (  -0.04532%)
MG Correction to account for finite box:                  0.471512
MG Remaining discrepancy, due to discretization:         -0.180069 (  -0.01252%)
     Trial step:       0.745163913009
             Q1:  -11586.842046711710
 Quadratic coef:       0.003276458365
 Linear coef   :      -0.008652572059
           Qmin:  -11586.842383092644
Quadratic minimum step length (  0.983925894281) accepted
    Initial Ne1:    7228.00037205
      Final Ne1:    7228.00000000

=================== Penalty functional idempotency correction ==================
 RMS occupancy error at iteration   1:  0.000109 (step -0.4968 Ne1=   7228.0000)
 RMS occupancy error at iteration   2:  0.000000 (step -0.5000 Ne1=   7228.0000)
            Final RMS occupancy error   :  0.000000 (Ne1=   7228.0000)
               Final occupancy bounds   : [  0.0000,  1.0000]
================================================================================

    9        -1.158683667060E+04     1.6511E-05     1.4937E-05    -4.3249E-03
MG BCs: +ve charge blocks (gridpoints):     31166 (   17405505).
MG BCs: -ve charge blocks (gridpoints):      8346 (    1105021).
MG BCs:     Elided blocks (gridpoints):    162735 (  172460099).
MG BCs: Computational effort saved:  99.9793%.
MG BCs: Charge after coarse-graining:           -9.0009915.
MG DL_MG: Calling solver with defect correction order = 8
MG DL_MG: Solver finished
MG Hartree energy from (\int phi*rho dr):              1437.665804
MG Hartree energy from (\int eps (grad phi)^2 dr):     1437.014246
MG Discrepancy due to finite box and discretization:     -0.651558 (  -0.04532%)
MG Correction to account for finite box:                  0.471503
MG Remaining discrepancy, due to discretization:         -0.180055 (  -0.01252%)
      ideal mu1:      -0.779072230074
   10        -1.158684235227E+04     1.7644E-05     1.5962E-05    -5.6817E-03
Finished density kernel iterations (  10)

Writing density kernel to file "complex_18721.vacuum_dkn" ... done


>>> Density kernel optimised for the current NGWF basis:
     ~~~~~~~~~~~~~~~~~~~~~~~~~~~~~~~~~~~~~~~~~~~~~~~~~~~~~~~~~~~
     Total energy                =  -1.15868423522664E+04  Eh
     Estimated bandgap           =  -2.8133E-01  Eh
     RMS occupancy error         =   3.6012E-12
     [H,K] commutator            =   1.5962E-05
     Occupancy bounds            = [  0.000:  1.000]
     ~~~~~~~~~~~~~~~~~~~~~~~~~~~~~~~~~~~~~~~~~~~~~~~~~~~~~~~~~~~




################################################################################
########################### NGWF CG iteration  001 #############################
################################################################################
****** Reciprocal space K.E. preconditioning with k_zero =  3.5000 a0^-1 *******

>>> Checking for convergence of NGWFs:   NOT CONVERGED
  ========================================================================
         NGWF RMS gradient =  1.5843E-03 >  2.0000E-06  | above tolerance
  ========================================================================

>>> Improving NGWFs using line search:
============ Calculation of NGWF S^-1 using Hotelling algorithm ================ 
         Iteration  |  Frobenius norm and Maximum abs value    (of I-S*S_n^-1)   
               1       0.19628660E+00     0.52623489E-02
               2       0.89181248E-03     0.37758783E-04
               3       0.31228606E-07     0.22292026E-08
               4       0.12743589E-12     0.53290705E-14
================================================================================
MG BCs: +ve charge blocks (gridpoints):     30593 (   17353473).
MG BCs: -ve charge blocks (gridpoints):      8365 (    1104776).
MG BCs:     Elided blocks (gridpoints):    163313 (  172512376).
MG BCs: Computational effort saved:  99.9796%.
MG BCs: Charge after coarse-graining:           -9.0009922.
MG DL_MG: Calling solver with defect correction order = 8
MG DL_MG: Solver finished
MG Hartree energy from (\int phi*rho dr):              1405.894313
MG Hartree energy from (\int eps (grad phi)^2 dr):     1405.243629
MG Discrepancy due to finite box and discretization:     -0.650684 (  -0.04628%)
MG Correction to account for finite box:                  0.471438
MG Remaining discrepancy, due to discretization:         -0.179247 (  -0.01275%)
============ Calculation of NGWF S^-1 using Hotelling algorithm ================ 
         Iteration  |  Frobenius norm and Maximum abs value    (of I-S*S_n^-1)   
               1       0.18490002E+01     0.42547385E-01
               2       0.70866560E-01     0.23384234E-02
               3       0.14060286E-03     0.76117639E-05
               4       0.99661295E-09     0.97483799E-10
               5       0.11017883E-12     0.46629367E-14
================================================================================
------------------------------- NGWF line search -------------------------------
RMS gradient                =       0.00158430932802
Trial step length           =               0.122474
Gradient along search dir.  =       -275.55233453081
Functional at step 0        =  -11586.84235226642340
Functional at step 1        =  -11618.02570848853793
Functional predicted        =  -11697.85954680480063
Selected quadratic step     =               0.805779
--------------------------- NGWF line search finished --------------------------
                                               
Writing NGWFs to file "complex_18721.vacuum_tightbox_ngwfs"....  done

>>> Optimising kernel for current NGWFs:
   Initial electron number for spin 1:    7262.73606813
     Final electron number for spin 1:    7228.00000000

=================== Penalty functional idempotency correction ==================
 RMS occupancy error at iteration   1:  0.004297 (step -0.4859 Ne1=   7228.0000)
 RMS occupancy error at iteration   2:  0.000071 (step -0.5002 Ne1=   7228.0000)
            Final RMS occupancy error   :  0.000000 (Ne1=   7228.0000)
               Final occupancy bounds   : [  0.0000,  1.0000]
================================================================================

................................................................................
<<<<<<<<<<<<<< LNV (Original version) density kernel optimisation >>>>>>>>>>>>>>
~~~~~~~~~~~~~~~~~~~~~~~~~~~~~~~~~~~~~~~~~~~~~~~~~~~~~~~~~~~~~~~~~~~~~~~~~~~~~~~~
   iter  |      energy (Eh)       | rms gradient |  commutator  |   dE (Eh)
MG BCs: +ve charge blocks (gridpoints):     24914 (   17090928).
MG BCs: -ve charge blocks (gridpoints):      8541 (    1088626).
MG BCs:     Elided blocks (gridpoints):    169000 (  172791071).
MG BCs: Computational effort saved:  99.9825%.
MG BCs: Charge after coarse-graining:           -9.0006765.
MG DL_MG: Calling solver with defect correction order = 8
MG DL_MG: Solver finished
MG Hartree energy from (\int phi*rho dr):              1250.910779
MG Hartree energy from (\int eps (grad phi)^2 dr):     1250.260329
MG Discrepancy due to finite box and discretization:     -0.650450 (  -0.05200%)
MG Correction to account for finite box:                  0.471114
MG Remaining discrepancy, due to discretization:         -0.179336 (  -0.01434%)
      ideal mu1:      -0.718363984834
             Q0:  -11697.058750418015
             G0:      -9.714555247150
   RMS gradient:       0.000476650578
MG BCs: +ve charge blocks (gridpoints):     24998 (   17108830).
MG BCs: -ve charge blocks (gridpoints):      8520 (    1084252).
MG BCs:     Elided blocks (gridpoints):    168916 (  172777543).
MG BCs: Computational effort saved:  99.9824%.
MG BCs: Charge after coarse-graining:           -9.0006716.
MG DL_MG: Calling solver with defect correction order = 8
MG DL_MG: Solver finished
MG Hartree energy from (\int phi*rho dr):              1270.178216
MG Hartree energy from (\int eps (grad phi)^2 dr):     1269.521110
MG Discrepancy due to finite box and discretization:     -0.657107 (  -0.05173%)
MG Correction to account for finite box:                  0.470861
MG Remaining discrepancy, due to discretization:         -0.186245 (  -0.01466%)
     Trial step:       0.856262850703
             Q1:  -11694.569978149375
 Quadratic coef:      10.806985037876
 Linear coef   :      -8.318212769236
           Qmin:  -11698.659397208765
Quadratic minimum step length (  0.329535784198) accepted
    Initial Ne1:    7227.99959992
      Final Ne1:    7228.00000000

=================== Penalty functional idempotency correction ==================
 RMS occupancy error at iteration   1:  0.000349 (step -0.4986 Ne1=   7228.0000)
 RMS occupancy error at iteration   2:  0.000000 (step -0.5000 Ne1=   7228.0000)
            Final RMS occupancy error   :  0.000000 (Ne1=   7228.0000)
               Final occupancy bounds   : [  0.0000,  1.0000]
================================================================================

    1        -1.169705875042E+04     4.7665E-04     4.3121E-04
MG BCs: +ve charge blocks (gridpoints):     24937 (   17097962).
MG BCs: -ve charge blocks (gridpoints):      8536 (    1087069).
MG BCs:     Elided blocks (gridpoints):    168977 (  172785594).
MG BCs: Computational effort saved:  99.9825%.
MG BCs: Charge after coarse-graining:           -9.0006744.
MG DL_MG: Calling solver with defect correction order = 8
MG DL_MG: Solver finished
MG Hartree energy from (\int phi*rho dr):              1257.059276
MG Hartree energy from (\int eps (grad phi)^2 dr):     1256.406386
MG Discrepancy due to finite box and discretization:     -0.652890 (  -0.05194%)
MG Correction to account for finite box:                  0.470996
MG Remaining discrepancy, due to discretization:         -0.181894 (  -0.01447%)
      ideal mu1:      -0.724905712330
             Q0:  -11698.625691955676
             G0:      -0.971700642867
   RMS gradient:       0.000151850323
MG BCs: +ve charge blocks (gridpoints):     24946 (   17097840).
MG BCs: -ve charge blocks (gridpoints):      8540 (    1087862).
MG BCs:     Elided blocks (gridpoints):    168968 (  172784923).
MG BCs: Computational effort saved:  99.9825%.
MG BCs: Charge after coarse-graining:           -9.0006743.
MG DL_MG: Calling solver with defect correction order = 8
MG DL_MG: Solver finished
MG Hartree energy from (\int phi*rho dr):              1258.306892
MG Hartree energy from (\int eps (grad phi)^2 dr):     1257.653617
MG Discrepancy due to finite box and discretization:     -0.653274 (  -0.05192%)
MG Correction to account for finite box:                  0.471001
MG Remaining discrepancy, due to discretization:         -0.182274 (  -0.01449%)
     Trial step:       0.531196056071
             Q1:  -11698.818888727459
 Quadratic coef:       0.322966777390
 Linear coef   :      -0.516163549173
           Qmin:  -11698.831924320850
Quadratic minimum step length (  0.424477161125) accepted
    Initial Ne1:    7227.99994769
      Final Ne1:    7228.00000000

=================== Penalty functional idempotency correction ==================
 RMS occupancy error at iteration   1:  0.000140 (step -0.4994 Ne1=   7228.0000)
            Final RMS occupancy error   :  0.000000 (Ne1=   7228.0000)
               Final occupancy bounds   : [ -0.0000,  1.0000]
================================================================================

    2        -1.169862569196E+04     1.5185E-04     1.3738E-04    -1.5669E+00
MG BCs: +ve charge blocks (gridpoints):     24946 (   17097791).
MG BCs: -ve charge blocks (gridpoints):      8537 (    1087722).
MG BCs:     Elided blocks (gridpoints):    168968 (  172785112).
MG BCs: Computational effort saved:  99.9825%.
MG BCs: Charge after coarse-graining:           -9.0006744.
MG DL_MG: Calling solver with defect correction order = 8
MG DL_MG: Solver finished
MG Hartree energy from (\int phi*rho dr):              1258.055890
MG Hartree energy from (\int eps (grad phi)^2 dr):     1257.402696
MG Discrepancy due to finite box and discretization:     -0.653194 (  -0.05192%)
MG Correction to account for finite box:                  0.471000
MG Remaining discrepancy, due to discretization:         -0.182195 (  -0.01448%)
      ideal mu1:      -0.725884517441
             Q0:  -11698.832383248606
             G0:      -0.144732076972
   RMS gradient:       0.000058115211
MG BCs: +ve charge blocks (gridpoints):     24944 (   17097243).
MG BCs: -ve charge blocks (gridpoints):      8537 (    1088140).
MG BCs:     Elided blocks (gridpoints):    168970 (  172785242).
MG BCs: Computational effort saved:  99.9825%.
MG BCs: Charge after coarse-graining:           -9.0006744.
MG DL_MG: Calling solver with defect correction order = 8
MG DL_MG: Solver finished
MG Hartree energy from (\int phi*rho dr):              1257.588153
MG Hartree energy from (\int eps (grad phi)^2 dr):     1256.934979
MG Discrepancy due to finite box and discretization:     -0.653174 (  -0.05194%)
MG Correction to account for finite box:                  0.471004
MG Remaining discrepancy, due to discretization:         -0.182170 (  -0.01449%)
     Trial step:       0.474847969230
             Q1:  -11698.876282850746
 Quadratic coef:       0.024826130692
 Linear coef   :      -0.068725732832
           Qmin:  -11698.879946302350
Quadratic minimum step length (  0.657256563152) accepted
    Initial Ne1:    7228.00058030
      Final Ne1:    7228.00000000

=================== Penalty functional idempotency correction ==================
 RMS occupancy error at iteration   1:  0.000061 (step -0.4998 Ne1=   7228.0000)
            Final RMS occupancy error   :  0.000000 (Ne1=   7228.0000)
               Final occupancy bounds   : [ -0.0000,  1.0000]
================================================================================

    3        -1.169883238325E+04     5.8115E-05     5.2575E-05    -2.0669E-01
MG BCs: +ve charge blocks (gridpoints):     24943 (   17097013).
MG BCs: -ve charge blocks (gridpoints):      8537 (    1088274).
MG BCs:     Elided blocks (gridpoints):    168971 (  172785338).
MG BCs: Computational effort saved:  99.9825%.
MG BCs: Charge after coarse-graining:           -9.0006744.
MG DL_MG: Calling solver with defect correction order = 8
MG DL_MG: Solver finished
MG Hartree energy from (\int phi*rho dr):              1257.408611
MG Hartree energy from (\int eps (grad phi)^2 dr):     1256.755444
MG Discrepancy due to finite box and discretization:     -0.653167 (  -0.05195%)
MG Correction to account for finite box:                  0.471005
MG Remaining discrepancy, due to discretization:         -0.182162 (  -0.01449%)
      ideal mu1:      -0.724996757588
             Q0:  -11698.880031293840
             G0:      -0.034497986851
   RMS gradient:       0.000028363849
MG BCs: +ve charge blocks (gridpoints):     24942 (   17096884).
MG BCs: -ve charge blocks (gridpoints):      8539 (    1088305).
MG BCs:     Elided blocks (gridpoints):    168972 (  172785436).
MG BCs: Computational effort saved:  99.9825%.
MG BCs: Charge after coarse-graining:           -9.0006744.
MG DL_MG: Calling solver with defect correction order = 8
MG DL_MG: Solver finished
MG Hartree energy from (\int phi*rho dr):              1257.408441
MG Hartree energy from (\int eps (grad phi)^2 dr):     1256.755371
MG Discrepancy due to finite box and discretization:     -0.653070 (  -0.05194%)
MG Correction to account for finite box:                  0.471012
MG Remaining discrepancy, due to discretization:         -0.182058 (  -0.01448%)
     Trial step:       0.558656374058
             Q1:  -11698.888409180916
 Quadratic coef:       0.010894633171
 Linear coef   :      -0.019272520247
           Qmin:  -11698.888554527959
Quadratic minimum step length (  0.494129362176) accepted
    Initial Ne1:    7228.00021059
      Final Ne1:    7228.00000000

=================== Penalty functional idempotency correction ==================
 RMS occupancy error at iteration   1:  0.000017 (step -0.4999 Ne1=   7228.0000)
            Final RMS occupancy error   :  0.000000 (Ne1=   7228.0000)
               Final occupancy bounds   : [ -0.0000,  1.0000]
================================================================================

    4        -1.169888003129E+04     2.8364E-05     2.5660E-05    -4.7648E-02
MG BCs: +ve charge blocks (gridpoints):     24942 (   17096910).
MG BCs: -ve charge blocks (gridpoints):      8539 (    1088299).
MG BCs:     Elided blocks (gridpoints):    168972 (  172785416).
MG BCs: Computational effort saved:  99.9825%.
MG BCs: Charge after coarse-graining:           -9.0006744.
MG DL_MG: Calling solver with defect correction order = 8
MG DL_MG: Solver finished
MG Hartree energy from (\int phi*rho dr):              1257.408259
MG Hartree energy from (\int eps (grad phi)^2 dr):     1256.755178
MG Discrepancy due to finite box and discretization:     -0.653081 (  -0.05194%)
MG Correction to account for finite box:                  0.471011
MG Remaining discrepancy, due to discretization:         -0.182070 (  -0.01448%)
      ideal mu1:      -0.724989713367
             Q0:  -11698.888559024432
             G0:      -0.010864501005
   RMS gradient:       0.000015937123
MG BCs: +ve charge blocks (gridpoints):     24942 (   17097365).
MG BCs: -ve charge blocks (gridpoints):      8539 (    1088134).
MG BCs:     Elided blocks (gridpoints):    168972 (  172785126).
MG BCs: Computational effort saved:  99.9825%.
MG BCs: Charge after coarse-graining:           -9.0006743.
MG DL_MG: Calling solver with defect correction order = 8
MG DL_MG: Solver finished
MG Hartree energy from (\int phi*rho dr):              1257.791161
MG Hartree energy from (\int eps (grad phi)^2 dr):     1257.138120
MG Discrepancy due to finite box and discretization:     -0.653041 (  -0.05192%)
MG Correction to account for finite box:                  0.471003
MG Remaining discrepancy, due to discretization:         -0.182038 (  -0.01447%)
     Trial step:       0.525403195450
             Q1:  -11698.891560926917
 Quadratic coef:       0.002706341060
 Linear coef   :      -0.005708243545
           Qmin:  -11698.891568996536
Quadratic minimum step length (  0.554093023153) accepted
    Initial Ne1:    7228.00008553
      Final Ne1:    7228.00000000

=================== Penalty functional idempotency correction ==================
 RMS occupancy error at iteration   1:  0.000008 (step -0.5000 Ne1=   7228.0000)
            Final RMS occupancy error   :  0.000000 (Ne1=   7228.0000)
               Final occupancy bounds   : [ -0.0000,  1.0000]
================================================================================

    5        -1.169888855902E+04     1.5937E-05     1.4418E-05    -8.5277E-03
MG BCs: +ve charge blocks (gridpoints):     24942 (   17097394).
MG BCs: -ve charge blocks (gridpoints):      8539 (    1088133).
MG BCs:     Elided blocks (gridpoints):    168972 (  172785098).
MG BCs: Computational effort saved:  99.9825%.
MG BCs: Charge after coarse-graining:           -9.0006743.
MG DL_MG: Calling solver with defect correction order = 8
MG DL_MG: Solver finished
MG Hartree energy from (\int phi*rho dr):              1257.812094
MG Hartree energy from (\int eps (grad phi)^2 dr):     1257.159056
MG Discrepancy due to finite box and discretization:     -0.653038 (  -0.05192%)
MG Correction to account for finite box:                  0.471002
MG Remaining discrepancy, due to discretization:         -0.182036 (  -0.01447%)
      ideal mu1:      -0.725351005032
             Q0:  -11698.891569838976
             G0:      -0.003154586138
   RMS gradient:       0.000008587778
MG BCs: +ve charge blocks (gridpoints):     24943 (   17097396).
MG BCs: -ve charge blocks (gridpoints):      8539 (    1088143).
MG BCs:     Elided blocks (gridpoints):    168971 (  172785086).
MG BCs: Computational effort saved:  99.9825%.
MG BCs: Charge after coarse-graining:           -9.0006743.
MG DL_MG: Calling solver with defect correction order = 8
MG DL_MG: Solver finished
MG Hartree energy from (\int phi*rho dr):              1257.781811
MG Hartree energy from (\int eps (grad phi)^2 dr):     1257.128783
MG Discrepancy due to finite box and discretization:     -0.653028 (  -0.05192%)
MG Correction to account for finite box:                  0.470996
MG Remaining discrepancy, due to discretization:         -0.182032 (  -0.01447%)
     Trial step:       0.539557452864
             Q1:  -11698.892622347455
 Quadratic coef:       0.000649571981
 Linear coef   :      -0.001702080462
           Qmin:  -11698.892684833920
Quadratic minimum step length (  0.706904104159) accepted
    Initial Ne1:    7228.00003676
      Final Ne1:    7228.00000000

=================== Penalty functional idempotency correction ==================
 RMS occupancy error at iteration   1:  0.000005 (step -0.5000 Ne1=   7228.0000)
            Final RMS occupancy error   :  0.000000 (Ne1=   7228.0000)
               Final occupancy bounds   : [  0.0000,  1.0000]
================================================================================

    6        -1.169889156984E+04     8.5878E-06     7.7692E-06    -3.0108E-03
MG BCs: +ve charge blocks (gridpoints):     24943 (   17097386).
MG BCs: -ve charge blocks (gridpoints):      8539 (    1088144).
MG BCs:     Elided blocks (gridpoints):    168971 (  172785095).
MG BCs: Computational effort saved:  99.9825%.
MG BCs: Charge after coarse-graining:           -9.0006743.
MG DL_MG: Calling solver with defect correction order = 8
MG DL_MG: Solver finished
MG Hartree energy from (\int phi*rho dr):              1257.772401
MG Hartree energy from (\int eps (grad phi)^2 dr):     1257.119377
MG Discrepancy due to finite box and discretization:     -0.653025 (  -0.05192%)
MG Correction to account for finite box:                  0.470994
MG Remaining discrepancy, due to discretization:         -0.182031 (  -0.01447%)
      ideal mu1:      -0.725315570542
             Q0:  -11698.892684921506
             G0:      -0.001640664386
   RMS gradient:       0.000006194390
MG BCs: +ve charge blocks (gridpoints):     24943 (   17097189).
MG BCs: -ve charge blocks (gridpoints):      8539 (    1088204).
MG BCs:     Elided blocks (gridpoints):    168971 (  172785232).
MG BCs: Computational effort saved:  99.9825%.
MG BCs: Charge after coarse-graining:           -9.0006743.
MG DL_MG: Calling solver with defect correction order = 8
MG DL_MG: Solver finished
MG Hartree energy from (\int phi*rho dr):              1257.677010
MG Hartree energy from (\int eps (grad phi)^2 dr):     1257.023975
MG Discrepancy due to finite box and discretization:     -0.653035 (  -0.05192%)
MG Correction to account for finite box:                  0.470997
MG Remaining discrepancy, due to discretization:         -0.182038 (  -0.01447%)
     Trial step:       0.617588356318
             Q1:  -11698.893041770905
 Quadratic coef:       0.000656405822
 Linear coef   :      -0.001013255221
           Qmin:  -11698.893075947190
Quadratic minimum step length (  0.476667486470) accepted
    Initial Ne1:    7227.99999791
      Final Ne1:    7228.00000000

=================== Penalty functional idempotency correction ==================
 RMS occupancy error at iteration   1:  0.000000 (step -0.5000 Ne1=   7228.0000)
            Final RMS occupancy error   :  0.000000 (Ne1=   7228.0000)
               Final occupancy bounds   : [  0.0000,  1.0000]
================================================================================

    7        -1.169889268492E+04     6.1944E-06     5.6039E-06    -1.1151E-03
MG BCs: +ve charge blocks (gridpoints):     24943 (   17097237).
MG BCs: -ve charge blocks (gridpoints):      8539 (    1088190).
MG BCs:     Elided blocks (gridpoints):    168971 (  172785198).
MG BCs: Computational effort saved:  99.9825%.
MG BCs: Charge after coarse-graining:           -9.0006743.
MG DL_MG: Calling solver with defect correction order = 8
MG DL_MG: Solver finished
MG Hartree energy from (\int phi*rho dr):              1257.698742
MG Hartree energy from (\int eps (grad phi)^2 dr):     1257.045709
MG Discrepancy due to finite box and discretization:     -0.653033 (  -0.05192%)
MG Correction to account for finite box:                  0.470996
MG Remaining discrepancy, due to discretization:         -0.182037 (  -0.01447%)
      ideal mu1:      -0.725230560384
             Q0:  -11698.893075940316
             G0:      -0.000978971661
   RMS gradient:       0.000004784826
MG BCs: +ve charge blocks (gridpoints):     24943 (   17097194).
MG BCs: -ve charge blocks (gridpoints):      8539 (    1088201).
MG BCs:     Elided blocks (gridpoints):    168971 (  172785230).
MG BCs: Computational effort saved:  99.9825%.
MG BCs: Charge after coarse-graining:           -9.0006743.
MG DL_MG: Calling solver with defect correction order = 8
MG DL_MG: Solver finished
MG Hartree energy from (\int phi*rho dr):              1257.658590
MG Hartree energy from (\int eps (grad phi)^2 dr):     1257.005552
MG Discrepancy due to finite box and discretization:     -0.653038 (  -0.05192%)
MG Correction to account for finite box:                  0.470996
MG Remaining discrepancy, due to discretization:         -0.182043 (  -0.01447%)
     Trial step:       0.542571921020
             Q1:  -11698.893492338364
 Quadratic coef:       0.000114764485
 Linear coef   :      -0.000531162534
           Qmin:  -11698.893690532968
Quadratic minimum step length (  1.255588242564) accepted
    Initial Ne1:    7227.99999669
      Final Ne1:    7228.00000000

=================== Penalty functional idempotency correction ==================
 RMS occupancy error at iteration   1:  0.000006 (step -0.4998 Ne1=   7228.0000)
            Final RMS occupancy error   :  0.000000 (Ne1=   7228.0000)
               Final occupancy bounds   : [ -0.0000,  1.0000]
================================================================================

    8        -1.169889307594E+04     4.7848E-06     4.3287E-06    -3.9102E-04
MG BCs: +ve charge blocks (gridpoints):     24942 (   17097143).
MG BCs: -ve charge blocks (gridpoints):      8539 (    1088220).
MG BCs:     Elided blocks (gridpoints):    168972 (  172785262).
MG BCs: Computational effort saved:  99.9825%.
MG BCs: Charge after coarse-graining:           -9.0006743.
MG DL_MG: Calling solver with defect correction order = 8
MG DL_MG: Solver finished
MG Hartree energy from (\int phi*rho dr):              1257.605547
[...]
MG Correction to account for finite box:                  0.006430
MG Remaining discrepancy, due to discretization:         -0.180920 (  -0.01488%)
     Trial step:       0.331959120984
             Q1:  -11733.015323175117
 Quadratic coef:       0.000000001286
 Linear coef   :      -0.000000001636
           Qmin:  -11733.015323175288
Quadratic minimum step length (  0.211168032977) accepted
    Initial Ne1:    7228.00000000
      Final Ne1:    7228.00000000

=================== Penalty functional idempotency correction ==================
 RMS occupancy error at iteration   1:  0.000000 (step -0.5000 Ne1=   7228.0000)
            Final RMS occupancy error   :  0.000000 (Ne1=   7228.0000)
               Final occupancy bounds   : [ -0.0000,  1.0000]
================================================================================

    7        -1.173301532317E+04     1.0736E-08     9.7129E-09    -9.3132E-10

Reusing previously generated solute cavity.
MG BCs: +ve charge blocks (gridpoints):     29129 (   19327443).
MG BCs: -ve charge blocks (gridpoints):      8518 (    1056521).
MG BCs:     Elided blocks (gridpoints):    164785 (  170586661).
MG BCs: Computational effort saved:  99.9803%.
MG BCs: Charge after coarse-graining:           -9.0009536.
MG DL_MG: Calling solver with defect correction order = 8
MG DL_MG: Solver finished
MG Hartree energy from (\int phi*rho dr):              1215.462117
MG Hartree energy from (\int eps (grad phi)^2 dr):     1215.274766
MG Discrepancy due to finite box and discretization:     -0.187350 (  -0.01541%)
MG Correction to account for finite box:                  0.006430
MG Remaining discrepancy, due to discretization:         -0.180920 (  -0.01488%)
      ideal mu1:      -0.480919846099
             Q0:  -11733.015323175117
             G0:      -0.000000003042
   RMS gradient:       0.000000006735

Reusing previously generated solute cavity.
MG BCs: +ve charge blocks (gridpoints):     29129 (   19327442).
MG BCs: -ve charge blocks (gridpoints):      8518 (    1056521).
MG BCs:     Elided blocks (gridpoints):    164785 (  170586662).
MG BCs: Computational effort saved:  99.9803%.
MG BCs: Charge after coarse-graining:           -9.0009536.
MG DL_MG: Calling solver with defect correction order = 8
MG DL_MG: Solver finished
MG Hartree energy from (\int phi*rho dr):              1215.462121
MG Hartree energy from (\int eps (grad phi)^2 dr):     1215.274771
MG Discrepancy due to finite box and discretization:     -0.187350 (  -0.01541%)
MG Correction to account for finite box:                  0.006430
MG Remaining discrepancy, due to discretization:         -0.180920 (  -0.01488%)
     Trial step:       0.264762449390
             Q1:  -11733.015323174885
 Quadratic coef:       0.000000001039
 Linear coef   :      -0.000000000805
           Qmin:  -11733.015323175274
Quadratic minimum step length (  0.102649815095) accepted
    Initial Ne1:    7228.00000000
      Final Ne1:    7228.00000000

=================== Penalty functional idempotency correction ==================
 RMS occupancy error at iteration   1:  0.000000 (step -0.5000 Ne1=   7228.0000)
            Final RMS occupancy error   :  0.000000 (Ne1=   7228.0000)
               Final occupancy bounds   : [  0.0000,  1.0000]
================================================================================

    8        -1.173301532318E+04     6.7348E-09     6.0928E-09    -3.4925E-10

Reusing previously generated solute cavity.
MG BCs: +ve charge blocks (gridpoints):     29129 (   19327442).
MG BCs: -ve charge blocks (gridpoints):      8518 (    1056521).
MG BCs:     Elided blocks (gridpoints):    164785 (  170586662).
MG BCs: Computational effort saved:  99.9803%.
MG BCs: Charge after coarse-graining:           -9.0009536.
MG DL_MG: Calling solver with defect correction order = 8
MG DL_MG: Solver finished
MG Hartree energy from (\int phi*rho dr):              1215.462118
MG Hartree energy from (\int eps (grad phi)^2 dr):     1215.274768
MG Discrepancy due to finite box and discretization:     -0.187350 (  -0.01541%)
MG Correction to account for finite box:                  0.006430
MG Remaining discrepancy, due to discretization:         -0.180920 (  -0.01488%)
      ideal mu1:      -0.480919846042
             Q0:  -11733.015323175117
             G0:      -0.000000002912
   RMS gradient:       0.000000005562

Reusing previously generated solute cavity.
MG BCs: +ve charge blocks (gridpoints):     29129 (   19327442).
MG BCs: -ve charge blocks (gridpoints):      8518 (    1056521).
MG BCs:     Elided blocks (gridpoints):    164785 (  170586662).
MG BCs: Computational effort saved:  99.9803%.
MG BCs: Charge after coarse-graining:           -9.0009536.
MG DL_MG: Calling solver with defect correction order = 8
MG DL_MG: Solver finished
MG Hartree energy from (\int phi*rho dr):              1215.462120
MG Hartree energy from (\int eps (grad phi)^2 dr):     1215.274770
MG Discrepancy due to finite box and discretization:     -0.187350 (  -0.01541%)
MG Correction to account for finite box:                  0.006430
MG Remaining discrepancy, due to discretization:         -0.180920 (  -0.01488%)
     Trial step:       0.164856957615
             Q1:  -11733.015323174885
 Quadratic coef:       0.000000000713
 Linear coef   :      -0.000000000480
           Qmin:  -11733.015323175197
Quadratic minimum step length (  0.055487211223) accepted
    Initial Ne1:    7228.00000000
      Final Ne1:    7228.00000000

=================== Penalty functional idempotency correction ==================
 RMS occupancy error at iteration   1:  0.000000 (step -0.5000 Ne1=   7228.0000)
            Final RMS occupancy error   :  0.000000 (Ne1=   7228.0000)
               Final occupancy bounds   : [ -0.0000,  1.0000]
================================================================================

    9        -1.173301532318E+04     5.5621E-09     5.0319E-09     0.0000E+00

Reusing previously generated solute cavity.
MG BCs: +ve charge blocks (gridpoints):     29129 (   19327442).
MG BCs: -ve charge blocks (gridpoints):      8518 (    1056521).
MG BCs:     Elided blocks (gridpoints):    164785 (  170586662).
MG BCs: Computational effort saved:  99.9803%.
MG BCs: Charge after coarse-graining:           -9.0009536.
MG DL_MG: Calling solver with defect correction order = 8
MG DL_MG: Solver finished
MG Hartree energy from (\int phi*rho dr):              1215.462119
MG Hartree energy from (\int eps (grad phi)^2 dr):     1215.274769
MG Discrepancy due to finite box and discretization:     -0.187350 (  -0.01541%)
MG Correction to account for finite box:                  0.006430
MG Remaining discrepancy, due to discretization:         -0.180920 (  -0.01488%)
      ideal mu1:      -0.480919844942
   10        -1.173301532318E+04     4.9809E-09     4.5061E-09     1.1642E-10
Finished density kernel iterations (  10)

Writing density kernel to file "complex_18721.dkn" ... done


>>> Density kernel optimised for the current NGWF basis:
     ~~~~~~~~~~~~~~~~~~~~~~~~~~~~~~~~~~~~~~~~~~~~~~~~~~~~~~~~~~~
     Total energy                =  -1.17330153231750E+04  Eh
     Estimated bandgap           =   9.6409E-02  Eh
     RMS occupancy error         =   2.7043E-16
     [H,K] commutator            =   4.5061E-09
     Occupancy bounds            = [ -0.000:  1.000]
     ~~~~~~~~~~~~~~~~~~~~~~~~~~~~~~~~~~~~~~~~~~~~~~~~~~~~~~~~~~~




################################################################################
########################### NGWF CG iteration  005 #############################
################################################################################
****** Reciprocal space K.E. preconditioning with k_zero =  3.5000 a0^-1 *******

>>> Checking for convergence of NGWFs: 
           ........................................................
           |         *** NGWF optimisation converged ***          |
           | RMS NGWF gradient =    0.00000088845162              |
           | Criteria satisfied:                                  |
           | -> RMS NGWF gradient lower than set threshold.       |
           ========================================================

Reusing previously generated solute cavity.
MG BCs: +ve charge blocks (gridpoints):     29129 (   19327442).
MG BCs: -ve charge blocks (gridpoints):      8518 (    1056521).
MG BCs:     Elided blocks (gridpoints):    164785 (  170586662).
MG BCs: Computational effort saved:  99.9803%.
MG BCs: Charge after coarse-graining:           -9.0009536.
MG DL_MG: Calling solver with defect correction order = 8
MG DL_MG: Solver finished
MG Hartree energy from (\int phi*rho dr):              1215.462119
MG Hartree energy from (\int eps (grad phi)^2 dr):     1215.274769
MG Discrepancy due to finite box and discretization:     -0.187350 (  -0.01541%)
MG Correction to account for finite box:                  0.006430
MG Remaining discrepancy, due to discretization:         -0.180920 (  -0.01488%)

================================================================================
           ---------------- ENERGY COMPONENTS (Eh) ----------------
           | Kinetic                    :     8570.00243441375824 |
           | Pseudo. (local,OBC,corr'd) :    -5073.91499088492128 |
           | Pseudopotential (non-local):     1409.52790438252600 |
           | Hartree (molecular)        :     1215.46211875016706 |
           | Exchange-correlation       :    -3373.77279221814206 |
           | Ion-ion (open BC)          :   834492.71428998326883 |
           | Dispersion Correction      :       -3.26593169710362 |
           | Smeared ion non-self corr. :  -834444.43817537953146 |
           | Smeared ion self corr.     :   -14525.98710726666468 |
           | Solvent cavitation energy  :        2.33719377972952 |
           | Solute-solvent dis-rep en. :       -1.68026703809205 |
           | Total                      :   -11733.01532317496094 |
           --------------------------------------------------------
           ------ LOCAL ENERGY COMPONENTS FROM MATRIX TRACES ------
           | Pseudopotential (local)    :    -5073.91499088492674 |
           | Hartree                    :    -1999.70244254385580 |
           --------------------------------------------------------
           Integrated density           :     7227.99999999899956
           Integrated density tr(KS)    :     7228.00000000000091
================================================================================


                        <<<<< CALCULATION SUMMARY >>>>>                         
|ITER|    RMS GRADIENT   |     TOTAL ENERGY    |   step   |     Epredicted              
   0     0.00003888887272 -11732.95646437699907   0.611373 -11733.00721617773343        
   1     0.00001037183194 -11733.01463050686289   0.097633 -11733.01520701279514        
   2     0.00000456038549 -11733.01529912592378   0.017651 -11733.01531927574069        
   3     0.00000203122118 -11733.01532223110553   0.003553 -11733.01532303579188        
   4     0.00000088845162 -11733.01532317500096  <-- CG                                 

=================== Finished the calculation in solvent ========================
= Adjusting the following parameters: 
= read_denskern: F
= read_tightbox_ngwfs: F
= maxit_pen: 0 (restored to user-specified value)
= restart read filename prefix: ""
= restart write filename prefix: ""
================================================================================

================================================================================
IS: Calculation in solvent completed (NGWFs converged).      

Individual components of total energy in solvent:     hartree           kcal/mol
- Usual non-electrostatic DFT terms:    -12949.13436866680604    -8125704.320967
- Electrostatic fixed charge energy:      1215.46211875016706      762713.978333
- Apolar cavitation energy:                  2.33719377972952        1466.611208
- Apolar dispersion-repulsion energy:       -1.68026703809205       -1054.383462
 -------------------------------------------------------------------------------
- Total energy in solvent:              -11733.01532317500096    -7362578.114888

Components of total energy in solvent:                hartree           kcal/mol
- Usual non-electrostatic DFT terms:    -12949.13436866680604    -8125704.320967
- Electrostatic energy:                   1215.46211875016706      762713.978333
- Apolar energy terms:                       0.65692674163748         412.227745
 -------------------------------------------------------------------------------
- Total energy in solvent:              -11733.01532317500096    -7362578.114888

Calculation of free energy of solvation:              hartree           kcal/mol
- Total energy in solvent:         (+)  -11733.01532317500096    -7362578.114888
- Total energy in vacuum:          (-)  -11729.23945105529856    -7360208.719411
 -------------------------------------------------------------------------------
- Total free energy of solvation:           -3.77587211970240       -2369.395477

Components of polar term in f.e. of solvation:        hartree           kcal/mol
- Electrostatic:                            -4.65082854861248       -2918.438913
- Change in nonelectrostatic DFT terms:      0.21802968727206         136.815691
 -------------------------------------------------------------------------------
- Polar term in f.e. of solvation:          -4.43279886134042       -2781.623222

Components of free energy of solvation:               hartree           kcal/mol
- Polar term in f.e. of solvation: (+)      -4.43279886134042       -2781.623222
- Apolar (cavitation, dis., rep.): (+)       0.65692674163748         412.227745
 -------------------------------------------------------------------------------
- Total free energy of solvation:           -3.77587211970294       -2369.395477
================================================================================


------------------------------ TIMING INFORMATION ------------------------------
AVERAGE TIME:   33363.271s on     60 node(s)                                    
TOTAL TIME:     33363.271s on     60 node(s)                                    
================= AVERAGE TIMINGS FROM ALL NODES (CUMULATIVE) ==================
|| TAG                                    #calls    cpu time   %total  Gflops ||
|| work_imbalance                       :     1        0.00s   0.000%  ------ ||
|| sparse_set_to_garbage                :   188        0.03s   0.000%  ------ ||
|| parallel_prepare_fd_halos_request    :  2067        0.04s   0.000%  ------ ||
|| ngwfs_initialise_from_radial         :     1        0.11s   0.000%  ------ ||
|| basis_extract_function_from_box      :  3814        0.17s   0.001%  ------ ||
|| parallel_prepare_fd_halos_satisfy    :  2067        0.74s   0.002%  ------ ||
|| parallel_prepare_fd_halos_alloc      :  2067        1.83s   0.005%  ------ ||
|| pseudopotentials_nonlocal_mat        :    32        2.37s   0.007%  ------ ||
|| openbc_locps_radial                  :     1        3.11s   0.009%  ------ ||
|| density_init_guess_real              :     1        5.03s   0.015%  ------ ||
|| restart_kernel_read                  :     1        5.82s   0.017%  ------ ||
|| restart_ngwfs_tightbox_input         :     1        7.46s   0.022%  ------ ||
|| parallel_prepare_fd_halos_comms_imbal:  2067        9.70s   0.029%  ------ ||
|| parallel_prepare_fd_halos_clear      :  2067       21.18s   0.063%  ------ ||
|| sparse_init                          :     2       22.25s   0.067%  ------ ||
|| projectors_func_ovlp_box             :    32       28.43s   0.085%  ------ ||
|| parallel_prepare_fd_halos_comms_wait :  2067       29.22s   0.088%  ------ ||
|| palser_mano_kernel_optimise          :     1       31.85s   0.095%  ------ ||
|| function_ops_brappd_ketppd           :    32       32.17s   0.096%  ------ ||
|| projectors_init_fftbox_recip         :   151       37.23s   0.112%  ------ ||
|| basis_copy_function_to_box           : 62011       47.29s   0.142%  ------ ||
|| ngwf_gradient_coeffs                 :    17       50.14s   0.150%  ------ ||
|| pseudo_make_structure_factor         :     2       52.06s   0.156%  ------ ||
|| fourier_apply_box_pair               :  5464       57.36s   0.172% 587.514 ||
|| parallel_prepare_fd_halos            :  2067       62.73s   0.188%  ------ ||
|| sparse_embed_hotelling_invert_embed  :    32       80.64s   0.242%  ------ ||
|| restart_kernel_write                 :    18      116.83s   0.350%  ------ ||
|| finite_difference_derivative         :  2067      135.52s   0.406%  ------ ||
|| integrals_kinetic                    :    32      158.48s   0.475%  ------ ||
|| basis_dot_function_with_box          : 9.419M     190.20s   0.570%  ------ ||
|| projectors_gradient_batch            :   119      191.50s   0.574%  ------ ||
|| fourier_apply_cell_backward          :  1379      204.40s   0.613%  90.599 ||
|| sparse_trace                         :  5443      220.97s   0.662%  ------ ||
|| fourier_apply_cell_forward           :  1377      259.97s   0.779%  71.130 ||
|| openbc_locps_on_grid                 :     2      261.88s   0.785%  ------ ||
|| kernel_purify                        :   526      301.45s   0.904%  ------ ||
|| lnv_gradient_norm                    :   170      443.39s   1.329%  ------ ||
|| basis_add_function_to_box            : 19.68M     448.64s   1.345%  ------ ||
|| kernel_fix                           :   170      496.90s   1.489%  ------ ||
|| hamiltonian_energy_components        :     4      499.90s   1.498%  ------ ||
|| xc_energy_potential                  :   344      536.24s   1.607%  ------ ||
|| integrals_locpot_mat_els_batch       :  1253      789.46s   2.366%  ------ ||
|| ngwf_gradient_build_batch            :   119      839.47s   2.516%  ------ ||
|| ngwf_gradient_batch                  :   119     1151.09s   3.450%  ------ ||
|| density_batch_row_sums               :  2401     1217.49s   3.649%  ------ ||
|| restart_ngwfs_tightbox_output        :    15     1234.68s   3.701%  ------ ||
|| ngwf_gradient_lnv                    :    17     1288.86s   3.863%  ------ ||
|| cell_grid_deposit_box_real           : 39497     1513.90s   4.538%  ------ ||
|| cell_grid_extract_box_real           : 43215     1831.46s   5.489%  ------ ||
|| sparse_product                       :  6933     1852.30s   5.552%  ------ ||
|| density_fftbox_deposit_to_cell       : 37387     2310.88s   6.926%  ------ ||
|| density_fftbox_interpolate_multiply  : 37387     4103.20s  12.299%  ------ ||
|| potential_apply_to_ngwf_batch        :  1253     4185.29s  12.545%  ------ ||
|| multigrid_prepare_bound_cond         :   344     4895.29s  14.673%  ------ ||
|| integrals_locpot_dbl_grid            :   179     4997.84s  14.980%  ------ ||
|| fourier_apply_box                    : 129.6k    5044.47s  15.120% 767.661 ||
|| density_batch_interp_deposit         :  2401     7477.26s  22.412%  ------ ||
|| dl_mg_solver_calls                   :   344     7547.42s  22.622%  ------ ||
|| density_on_dbl_grid                  :   343     9028.22s  27.060%  ------ ||
|| multigrid_calculate_hartree          :   344    12633.64s  37.867%  ------ ||
|| hamiltonian_lhxc_calculate           :   339    22149.91s  66.390%  ------ ||
|| lnv_denskernel_optimise_cg           :    17    28020.95s  83.987%  ------ ||
|| ngwf_cg_optimise                     :     2    32444.80s  97.247%  ------ ||
|| total_time                           :     1    33363.27s 100.000%  ------ ||
================================================================================
Overhead of generating timer report: 
- 0 ms averaging over threads,
- 15 ms ensuring consistency across MPI ranks,
- 1 ms printing in order.

Job completed: 04-02-2020 19:04 (-0000)

Application 38843109 resources: utime ~6953126s, stime ~236545s, Rss ~3758356, inblocks ~330771163, outblocks ~72536303
