 +---------------------------------------------------------------+
 |                                                               |
 |        ####### #     # ####### ####### ####### ######         |
 |        #     # ##    # #          #    #       #     #        |
 |        #     # # #   # #          #    #       #     #        |
 |        #     # #  #  # #####      #    #####   ######         |
 |        #     # #   # # #          #    #       #              |
 |        #     # #    ## #          #    #       #              |
 |        ####### #     # #######    #    ####### #              |
 |                                                               |
 |        Linear-Scaling Ab Initio Total Energy Program          |
 |                                                               |
 |          Release for academic collaborators of ODG            |
 |                                             Version 5.3.2.6.  |
 |                                                               |
 +---------------------------------------------------------------+
 |                                                               |
 |  Authors:                                                     |
 |  Jacek Dziedzic, Peter D. Haynes, Nicholas D. M. Hine,        |
 |  Arash. A. Mostofi, Mike C. Payne and Chris-Kriton Skylaris   |
 |                                                               |
 |  Contributors:                                                |
 |  J. Aarons, L. Andrinopoulos, P. W. Avraam, R. A. Bell,       |
 |  A. Bhandari, G. A. Bramley, R. J. Charlton, S. J. Clark,     |
 |  R. J. Clements, G. C. Constantinescu, F. Corsetti,           |
 |  N. Corsini, O. Dieguez, S. M. M. Dubois, K. K. B. Duff,      |
 |  J. M. Escartin, A. Greco, H. Helal, Q. O. Hill, L. P. Lee,   |
 |  J.-H. Li, E. B. Linscott, G. Moynihan, D. D. O`Regan,        |
 |  O. K. Okan, M. J. S. Phipps, C. J. Pickard,                  |
 |  J. C. A. Prentice, M. I. J. Probert, L. E. Ratcliff,         |
 |  M. Robinson, A. Ruiz Serrano, J. S. Spencer, E. W. Tait,     |
 |  G. Teobaldi, D. Turban, V. Vitale, K. A. Wilkinson,          |
 |  C. Weber, J. C. Womack, N. Yeung and T. J. Zuehlsdorff       |
 |                                                               |
 |                                   Copyright (c) 2004-2019     |
 |                                                               |
 |  Please cite:                                                 |
 |  "Introducing ONETEP: Linear-scaling density functional       |
 |   simulations on parallel computers".                         |
 |   C.-K. Skylaris, P. D. Haynes, A. A. Mostofi, M. C. Payne.   |
 |   J. Chem. Phys. 122 084119 (2005).                           |
 |                                                               |
 |          in all publications arising from your use of ONETEP. |
 |                                                               |
 +---------------------------------------------------------------+
 |                                                               |
 |   ONETEP is based on developments described in the following  |
 |   publications:                                               |
 |                                                               |
 |  "Nonorthogonal generalized Wannier function pseudopotential  |
 |   plane-wave method".                                         |
 |   C.-K. Skylaris, A. A. Mostofi, P. D. Haynes, O. Dieguez,    |
 |   M. C. Payne.                                                |
 |   Phys. Rev. B 66 035119 (2002).                              |
 |                                                               |
 |  "Preconditioned iterative minimization for linear-scaling    |
 |   electronic structure calculations".                         |
 |   A. A. Mostofi, P. D. Haynes, C.-K. Skylaris, M. C. Payne.   |
 |   J. Chem. Phys. 119(17), pp.8842-8848 (2003).                |
 |                                                               |
 |  "Total-energy calculations on a real space grid with         |
 |   localized functions and a plane-wave basis".                |
 |   A. A. Mostofi, C.-K. Skylaris, P. D. Haynes, M. C. Payne.   |
 |   Comput. Phys. Commun. 147, pp.788-802 (2002).               |
 |                                                               |
 |  "Accurate kinetic energy evaluation in electronic structure  |
 |   calculations with localized functions on real space grids"  |
 |   C.-K. Skylaris, A. A. Mostofi, P. D. Haynes, C. J. Pickard, |
 |   M. C. Payne.                                                |
 |   Comput. Phys. Commun. 140, pp.315-322 (2001).               |
 |                                                               |
 |  "Accurate ionic forces and geometry optimization in linear-  |
 |   scaling density-functional theory with local orbitals"      |
 |   N. D. M. Hine, M. Robinson, P. D. Haynes, C.-K. Skylaris,   |
 |   M. C. Payne, and A. A. Mostofi.                             |
 |   Phys. Rev. B 83 195102 (2011).                              |
 |                                                               |
 +---------------------------------------------------------------+

Job started: 28-03-2020 14:44 (-0000)
 
Reading parameters from file "complex_34681.dat" ...... done

If your calculation crashes here, before "Checking processes and threads..."
is displayed, then your stack size is insufficient.
If so, use "ulimit -s unlimited" at runtime.
You can disable this check with "check_stack_size F".

Checking processes and threads...
   Determining the default number of threads...
      No default threads set at compilation time: defaulting to 1.
      OpenMP library call suggests 4 threads.
      Hybrid MPI-OpenMP compilation detected.
      Number of MPI processes > 1.
      OMP_NUM_THREADS environment variable present and
      its value matches the one obtained from the OpenMP library call.
      Using this value as default.
      Default threads: 4
      Default applies to threads_max and threads_num_fftboxes.
      Settings in the input file override this default.
   ... done

   Running with 60 MPI processes.
   There are 6 MPI processes running on the same node as the root process.
   Each MPI process is using: 
               1 threads for simulation cell FFTs.
               1 threads for parallel FFT box operations.
               4 threads for loops over batched FFT box operations.
               4 threads in other parallel regions.
... done

Basic input checks...... done

Reading geometry and species blocks from file "complex_34681.dat" ...
  <species_atomic_set> block not found: NGWF initialisation set to SOLVE
IS: Dielectric excluded regions:
    - NONE.
    
  Number of PPD points along a3 set to 1.  This is 
  the default value, it may have been provided also in the input file.
... done
 Writing xyz coordinates to file "complex_34681.xyz" ... done


--------------------------------------------------------------------------------
---------------------------------- INPUT FILE ----------------------------------
--------------------------------------------------------------------------------

cutoff_energy       : 800 eV                                                    
xc_functional PBE                                                               
task SINGLEPOINT                                                                
write_xyz true                                                                  
output_detail VERBOSE                                                           
ngwf_threshold_orig : 0.000002                                                  
kernel_cutoff       : 1000                                                      
k_zero              : 3.5                                                       
elec_cg_max 0                                                                   
occ_mix 1.0                                                                     
dispersion 1                                                                    
maxit_ngwf_cg 40                                                                
minit_lnv 10                                                                    
maxit_lnv 10                                                                    
write_denskern T                                                                
write_tightbox_ngwfs T                                                          
charge 9                                                                        
is_implicit_solvent T                                                           
is_auto_solvation T                                                             
is_include_apolar T                                                             
is_smeared_ion_rep T                                                            
is_solvent_surf_tension 4.7624E-5 Ha/bohr**2                                    
is_apolar_scaling_factor 0.281075                                               
is_solvation_beta 1.3                                                           
is_density_threshold 0.00035                                                    
is_bulk_permittivity 78.54                                                      
is_dielectric_model fix_initial                                                 
is_smeared_ion_width 0.8                                                        
mg_defco_fd_order 8                                                             
is_bc_coarseness 10                                                             
is_bc_surface_coarseness 1                                                      
fine_grid_scale 2.0                                                             
%block species                                                                  
N   N   7 4 8.0                                                                 
H   H   1 1 8.0                                                                 
C   C   6 4 8.0                                                                 
S   S  16 9 8.0                                                                 
O   O   8 4 8.0                                                                 
%endblock species                                                               
%block species_pot                                                              
N   N_00.recpot                                                                 
H   H_04.recpot                                                                 
C   C_01.recpot                                                                 
S   S_00.recpot                                                                 
O   O_02.recpot                                                                 
%endblock species_pot                                                           
%block lattice_cart                                                             
135.996   0.000   0.000                                                         
0.000 142.663   0.000                                                           
0.000   0.000   160.158                                                         
%endblock lattice_cart                                                          
%block positions_abs                                                            
     Hash =   000008155796038835324224
%endblock positions_abs                                                         

--------------------------------------------------------------------------------
-------------------------------- END INPUT FILE --------------------------------
--------------------------------------------------------------------------------


 
 ESDF WARNING(1): "kernelcutoff" (esdf_physical) has no units. Assume "bohr".
 ESDF WARNING(2): "kzero" (esdf_physical) has no units. Assume "1/bohr".
 ESDF WARNING(3
 ): "issmearedionwidth" (esdf_physical) has no units. Assume "bohr".
<<<<<<<<<<<<<<<<<<<<<<<<<<<<<<<<< Full system >>>>>>>>>>>>>>>>>>>>>>>>>>>>>>>>>>
<<<<<<<<<<<<<<<<<<<<<<<<< Pseudopotential information >>>>>>>>>>>>>>>>>>>>>>>>>>
File: N_00.recpot [ 2001 points up to Gmax=  52.9 (1/bohr)]
  Atomic number:  7;  ionic charge:  5.000000
    Shell 1: l = 0; rc = 1.48 bohr
File: H_04.recpot [ 2001 points up to Gmax=  52.9 (1/bohr)]
  Atomic number:  1;  ionic charge:  1.000000
    Local potential
File: C_01.recpot [ 2001 points up to Gmax=  52.9 (1/bohr)]
  Atomic number:  6;  ionic charge:  4.000000
    Shell 1: l = 0; rc = 1.48 bohr
File: S_00.recpot [ 2001 points up to Gmax=  52.9 (1/bohr)]
  Atomic number: 16;  ionic charge:  6.000000
    Shell 1: l = 0; rc = 1.90 bohr
    Shell 2: l = 2; rc = 1.84 bohr
File: O_02.recpot [ 2001 points up to Gmax=  52.9 (1/bohr)]
  Atomic number:  8;  ionic charge:  6.000000
    Shell 1: l = 0; rc = 1.31 bohr
<<<<<<<<<<<<<<<<<<<<<<<<<<<<<<<<<<<<<<<<>>>>>>>>>>>>>>>>>>>>>>>>>>>>>>>>>>>>>>>>

-------------------------- Atom counting information ---------------------------
Symbol    Natoms    Nngwfs    Nprojs
  N        236       944       236
  H       1317      1317         0
  C        816      3264       816
  S          6        54        36
  O        240       960       240
.......   ......    ......    ......
Totals:   2615      6539      1328
--------------------------------------------------------------------------------

=============================== PSINC grid sizes ===============================
                      Simulation cell:  270 x 286 x 315
                              FFT-box:   99 x 105 x  99
                                  PPD:    5 x  11 x   1
Grid space d1=  0.503688888889a0 (KE cutoff=  29.94189Eh = 814.76038eV)
Grid space d2=  0.498821678322a0 (KE cutoff=  30.52906Eh = 830.73786eV)
Grid space d3=  0.508438095238a0 (KE cutoff=  29.38514Eh = 799.61048eV)
================================================================================

********************* Fourier parallelisation information **********************
       Coarse grid (whole simulation cell) dimensions:    270   286   315
          Real-space ('12') slabs/node (min max mean):      5     6     5
         Recip-space ('23') slabs/node (min max mean):      2     3     2
********************************************************************************

********************* Fourier parallelisation information **********************
       Double grid (whole simulation cell) dimensions:    540   572   630
          Real-space ('12') slabs/node (min max mean):     10    11    10
         Recip-space ('23') slabs/node (min max mean):      4     5     4
********************************************************************************
ONETEP fine grid is 540 x 572 x 630 gridpoints, 135.9960 x 142.6630 x 160.1580 bohr.
FD multigrid is     537 x 569 x 625 gridpoints, 135.2405 x 141.9148 x 158.8869 bohr.


Calculating local pseudopotential in open BC on a radial grid ...
Discrepancy between calculated realspace psloc and -Z/x on [5a0,253.965a0]:
max |rel. diff| # avg |rel. diff| #  avg rel. diff #  f # pseudopotential file
 0.000259282084    0.000004141996   0.000000074978   54  'N_00.recpot'
 0.000405386992    0.000016970607  -0.000000075982   54  'H_04.recpot'
 0.000371694516    0.000017434762   0.000000149329   54  'C_01.recpot'
 0.000461642895    0.000020341726   0.000000491514   54  'S_00.recpot'
 0.000682525123    0.000027368244   0.000000159803   54  'O_02.recpot'
... done

Atom SCF Calculation for N  : Z (AE atom) =   7 : Z (PS atom) =   5
Config String:
Orbitals (num,occ):  2     2.00 3.00
Orbitals   (num,l):  2        0    1
Real-space Grid (nr,dr,rmax): 1203    0.0066555740    8.0000000000
Spherical Bessel Basis (nsws,lmax,cutoff):   47    1  176.3951722778
Confining potential (l,width,scale):  0    3.0000000000  100.0000000000
Confining potential (l,width,scale):  1    3.0000000000  100.0000000000
  1         -4.7312375307   -3.4155304497    7.0523828109   -1.9351020946
  2         -9.7309464766   -2.0532547791    8.2966052865   -2.2494486027
  3         -9.6627394379   -2.1124926340    8.2327997121   -2.2369778124
  4         -9.6814993499   -2.1215521045    8.2229805960   -2.2365178421
  5         -9.6843326483   -2.1250939529    8.2191374534   -2.2362718126
  6         -9.6859628709   -2.1267894855    8.2172963573   -2.2362066344
  7         -9.6867347035   -2.1276425665    8.2163697352   -2.2361903369
  8         -9.6870802100   -2.1280764625    8.2158983890   -2.2361891460
  9         -9.6872290423   -2.1282977424    8.2156580222   -2.2361920435
 10         -9.6872901988   -2.1284107021    8.2155353368   -2.2361953393
 11         -9.6873135296   -2.1284684031    8.2154726809   -2.2361979819
 12         -9.6873212476   -2.1284978948    8.2154406648   -2.2361998431
 13         -9.6873229586   -2.1285129774    8.2154242957   -2.2362010676
 14         -9.6873226456   -2.1285206957    8.2154159216   -2.2362018403
 15         -9.6873218534   -2.1285246479    8.2154116349   -2.2362023142
 16         -9.6873212599   -2.1285262679    8.2154098784   -2.2362025420
 17         -9.6873207834   -2.1285272564    8.2154088068   -2.2362026955
 18         -9.6873204210   -2.1285278596    8.2154081529   -2.2362027982
 19         -9.6873201550   -2.1285282280    8.2154077538   -2.2362028667
 20         -9.6873199645   -2.1285284529    8.2154075102   -2.2362029121
 21         -9.6873198305   -2.1285285903    8.2154073614   -2.2362029421
 22         -9.6873197377   -2.1285286742    8.2154072705   -2.2362029618
Atom SCF converged after  22 iterations to a total energy of     -9.68731974

Atom SCF Calculation for H  : Z (AE atom) =   1 : Z (PS atom) =   1
Config String:
Orbitals (num,occ):  1     1.00
Orbitals   (num,l):  1        0
Real-space Grid (nr,dr,rmax): 1203    0.0066555740    8.0000000000
Spherical Bessel Basis (nsws,lmax,cutoff):   47    0  176.3951722778
Confining potential (l,width,scale):  0    3.0000000000  100.0000000000
  1         -0.3194257691   -0.2393854593    0.2820953124   -0.2424203209
  2         -0.3951823392   -0.2377116493    0.2886404059   -0.2475147891
  3         -0.4317044583   -0.2352244387    0.2921333887   -0.2514046172
  4         -0.4470703708   -0.2341892222    0.2934391879   -0.2531009782
  5         -0.4532132900   -0.2338556667    0.2938388426   -0.2537313520
  6         -0.4556579251   -0.2337612552    0.2939448584   -0.2539550462
  7         -0.4566418315   -0.2337377355    0.2939680120   -0.2540342273
  8         -0.4570437922   -0.2337331116    0.2939708287   -0.2540627372
  9         -0.4572102946   -0.2337328328    0.2939698291   -0.2540732650
 10         -0.4572800424   -0.2337332404    0.2939687193   -0.2540772588
 11         -0.4573095100   -0.2337335791    0.2939680317   -0.2540788122
 12         -0.4573220379   -0.2337337762    0.2939676699   -0.2540794294
 13         -0.4573273880   -0.2337338775    0.2939674931   -0.2540796787
 14         -0.4573296803   -0.2337339266    0.2939674099   -0.2540797808
 15         -0.4573306647   -0.2337339495    0.2939673718   -0.2540798230
 16         -0.4573310882   -0.2337339601    0.2939673545   -0.2540798406
 17         -0.4573312706   -0.2337339649    0.2939673467   -0.2540798479
 18         -0.4573313493   -0.2337339670    0.2939673433   -0.2540798510
Atom SCF converged after  18 iterations to a total energy of     -0.45733135

Atom SCF Calculation for C  : Z (AE atom) =   6 : Z (PS atom) =   4
Config String:
Orbitals (num,occ):  2     2.00 2.00
Orbitals   (num,l):  2        0    1
Real-space Grid (nr,dr,rmax): 1203    0.0066555740    8.0000000000
Spherical Bessel Basis (nsws,lmax,cutoff):   47    1  176.3951722778
Confining potential (l,width,scale):  0    3.0000000000  100.0000000000
Confining potential (l,width,scale):  1    3.0000000000  100.0000000000
  1         -5.2976922011   -1.3069684169    4.5135249990   -1.4493313817
  2         -5.3721716256   -1.3429755895    4.4750154450   -1.4361613026
  3         -5.3809959565   -1.3617365618    4.4541655428   -1.4305930207
  4         -5.3918938866   -1.3667928461    4.4484735100   -1.4294652294
  5         -5.3956096428   -1.3688539142    4.4461376126   -1.4290734646
  6         -5.3968271862   -1.3696852393    4.4451910874   -1.4289366866
  7         -5.3972028401   -1.3700178062    4.4448112275   -1.4288900460
  8         -5.3973067903   -1.3701500158    4.4446598370   -1.4288749220
  9         -5.3973286940   -1.3702023868    4.4445997329   -1.4288704293
 10         -5.3973289850   -1.3702230869    4.4445759233   -1.4288693188
 11         -5.3973254264   -1.3702312560    4.4445665049   -1.4288691775
 12         -5.3973224003   -1.3702344755    4.4445627836   -1.4288692549
 13         -5.3973208708   -1.3702354890    4.4445616088   -1.4288693270
 14         -5.3973198783   -1.3702360102    4.4445610034   -1.4288693814
 15         -5.3973192535   -1.3702362780    4.4445606917   -1.4288694190
 16         -5.3973188684   -1.3702364155    4.4445605313   -1.4288694437
 17         -5.3973186349   -1.3702364860    4.4445604489   -1.4288694595
 18         -5.3973184951   -1.3702365221    4.4445604065   -1.4288694693
 19         -5.3973184122   -1.3702365405    4.4445603848   -1.4288694753
Atom SCF converged after  19 iterations to a total energy of     -5.39731841

Atom SCF Calculation for S  : Z (AE atom) =  16 : Z (PS atom) =   6
Config String:
Orbitals (num,occ):  3     2.00 4.00 0.00
Orbitals   (num,l):  3        0    1    2
Real-space Grid (nr,dr,rmax): 1203    0.0066555740    8.0000000000
Spherical Bessel Basis (nsws,lmax,cutoff):   47    2  176.3951722778
Confining potential (l,width,scale):  0    3.0000000000  100.0000000000
Confining potential (l,width,scale):  1    3.0000000000  100.0000000000
Confining potential (l,width,scale):  2    3.0000000000  100.0000000000
  1        -12.4735062396   -1.0328741412   10.1554312477   -2.4512393157
  2         -9.9458301913   -2.4607392455    8.3041325857   -2.0306994528
  3        -10.1450417646   -2.2931184565    8.4831893826   -2.0812538287
  4        -10.1528335592   -2.2733105793    8.5050388867   -2.0896035179
  5        -10.1571940363   -2.2633716629    8.5160794258   -2.0939370707
  6        -10.1594380571   -2.2584938667    8.5215163935   -2.0961289008
  7        -10.1605856507   -2.2561081821    8.5241804044   -2.0972291378
  8        -10.1611799191   -2.2549395235    8.5254868240   -2.0977806248
  9        -10.1614918752   -2.2543658586    8.5261285885   -2.0980571586
 10        -10.1616572884   -2.2540839121    8.5264441898   -2.0981959233
 11        -10.1617455602   -2.2539453058    8.5265994231   -2.0982656006
 12        -10.1617928447   -2.2538772062    8.5266757320   -2.0983006047
 13        -10.1618182292   -2.2538437891    8.5267131983   -2.0983181961
 14        -10.1618318741   -2.2538274201    8.5267315620   -2.0983270391
 15        -10.1618392144   -2.2538194197    8.5267405433   -2.0983314852
 16        -10.1618431651   -2.2538155200    8.5267449245   -2.0983337210
 17        -10.1618452923   -2.2538136252    8.5267470551   -2.0983348455
 18        -10.1618464380   -2.2538127080    8.5267480875   -2.0983354110
 19        -10.1618470552   -2.2538122659    8.5267485856   -2.0983356955
 20        -10.1618473878   -2.2538120540    8.5267488248   -2.0983358386
 21        -10.1618475670   -2.2538119530    8.5267489389   -2.0983359106
 22        -10.1618476637   -2.2538119053    8.5267489929   -2.0983359468
Atom SCF converged after  22 iterations to a total energy of    -10.16184766

Atom SCF Calculation for O  : Z (AE atom) =   8 : Z (PS atom) =   6
Config String:
Orbitals (num,occ):  2     2.00 4.00
Orbitals   (num,l):  2        0    1
Real-space Grid (nr,dr,rmax): 1203    0.0066555740    8.0000000000
Spherical Bessel Basis (nsws,lmax,cutoff):   47    1  176.3951722778
Confining potential (l,width,scale):  0    3.0000000000  100.0000000000
Confining potential (l,width,scale):  1    3.0000000000  100.0000000000
  1         -1.8735052164   -7.5539365035   10.1554312477   -2.4512393157
  2        -16.0318313751   -3.1285771268   13.6395848164   -3.2358799643
  3        -15.9524020423   -3.0762819706   13.6967272503   -3.2536856837
  4        -15.8521515939   -3.0781493909   13.6951909330   -3.2561700440
  5        -15.8357139793   -3.0748501933   13.6988803334   -3.2580493133
  6        -15.8246052853   -3.0740779781   13.6997881576   -3.2588327446
  7        -15.8189019501   -3.0737449687   13.7001869911   -3.2592378801
  8        -15.8159785510   -3.0736026016   13.7003615168   -3.2594475790
  9        -15.8144776168   -3.0735437994   13.7004360379   -3.2595560735
 10        -15.8137058024   -3.0735207882   13.7004667348   -3.2596122456
 11        -15.8133083127   -3.0735125946   13.7004786868   -3.2596413656
 12        -15.8131032938   -3.0735102195   13.7004828997   -3.2596564858
 13        -15.8129973902   -3.0735099286   13.7004840891   -3.2596643505
 14        -15.8129426040   -3.0735102506   13.7004842061   -3.2596684489
 15        -15.8129142203   -3.0735106556   13.7004840157   -3.2596705887
 16        -15.8128994940   -3.0735109855   13.7004837906   -3.2596717080
 17        -15.8128918425   -3.0735112169   13.7004836103   -3.2596722946
 18        -15.8128878614   -3.0735113674   13.7004834848   -3.2596726026
 19        -15.8128857871   -3.0735114608   13.7004834035   -3.2596727646
 20        -15.8128847048   -3.0735115170   13.7004833533   -3.2596728500
 21        -15.8128841394   -3.0735115501   13.7004833231   -3.2596728951
 22        -15.8128838436   -3.0735115693   13.7004833054   -3.2596729190
 23        -15.8128836887   -3.0735115802   13.7004832951   -3.2596729316
 24        -15.8128836074   -3.0735115864   13.7004832893   -3.2596729383
Atom SCF converged after  24 iterations to a total energy of    -15.81288361

========================== Calculation in vacuum ==============================
= Adjusting the following parameters: 
= is_implicit_solvent: F
= is_include_apolar: F
= write_denskern: T
= write_tightbox_ngwfs: T
= restart read filename prefix: ""
= restart write filename prefix: "vacuum_"
===============================================================================

Determining parallel strategy ...
... using space-filling curve
... NGWF load balancing: max    109;  min    108;  average    109
... Projector load balancing: max     26;  min     21;  average     22
... done
Calculating direct Ion-Ion energy ...
Ion-Ion Energy        :    837210.92190537182614
======================= Empirical dispersion information =======================
Model : Elstner
Dispersion Correction Energy: -0.32734412E+01 Hartree
================================================================================
Basis initialisation ...... NGWF spheres initialised
... Projector spheres initialised
... NGWF tight boxes initialised
... Tight-boxes gathered
... NGWF basis size (local,global):    1038343  62494649
... Nonlocal pseudopotential projector initialisation
... done

========================== Sparse matrix information ===========================
                        Overlap matrix filling:   6.76%
                        Density kernel filling: 100.00%
              NGWF-Proj overlap matrix filling:   1.77%
                    Hamiltonian matrix filling:   7.64%
                  NGWF diagonal matrix filling:   0.05%
                             KS matrix filling: 100.00% 
                           KSKS matrix filling: 100.00% 
================================================================================

Sparse matrix initialisation ... done

Generating smeared ion density ... done
Smeared ion self correction:     -14525.987107
Smeared ion non-self correction: -837162.694451
NGWF initialisation ...... done
============ Calculation of NGWF S^-1 using Hotelling algorithm ================ 
         Iteration  |  Frobenius norm and Maximum abs value    (of I-S*S_n^-1)   
               1       0.78624160E+02     0.98207513E+00
               2       0.76725750E+02     0.96464999E+00
               3       0.73668140E+02     0.93120026E+00
               4       0.69349653E+02     0.86931871E+00
               5       0.63997148E+02     0.76316124E+00
               6       0.58003506E+02     0.70278232E+00
               7       0.52004050E+02     0.66852987E+00
               8       0.46456689E+02     0.64543304E+00
               9       0.40322738E+02     0.60399233E+00
              10       0.31945234E+02     0.53064352E+00
              11       0.21306228E+02     0.42278507E+00
              12       0.10760677E+02     0.28062939E+00
              13       0.34841396E+01     0.12552915E+00
              14       0.53908083E+00     0.34664175E-01
              15       0.25924905E-01     0.34456492E-02
              16       0.15866816E-03     0.35663419E-04
              17       0.12673566E-07     0.38664393E-08
              18       0.90452803E-13     0.44408921E-14
================================================================================
Calculating local pseudopotential in open BC on the fine real space grid ...
... done

MG BCs: +ve charge blocks (gridpoints):     20456 (   16109588).
MG BCs: -ve charge blocks (gridpoints):      8143 (    1089594).
MG BCs:     Elided blocks (gridpoints):    173458 (  173771443).
MG BCs: Computational effort saved:  99.9850%.
MG BCs: Charge after coarse-graining:           -9.0002241.
MG DL_MG: Calling solver with defect correction order = 8
MG DL_MG: Solver finished
MG Hartree energy from (\int phi*rho dr):              1470.482415
MG Hartree energy from (\int eps (grad phi)^2 dr):     1469.864069
MG Discrepancy due to finite box and discretization:     -0.618347 (  -0.04205%)
MG Correction to account for finite box:                  0.467006
MG Remaining discrepancy, due to discretization:         -0.151341 (  -0.01029%)
Up spin density kernel initialisation ... 
======= Optimisation of K by Palser-Manolopoulos canonical purification ======== 
         Iteration  |  Band structure energy |    c_n   
               1       -2597.90091617327016    0.5267661
               2       -2774.67671460093698    0.5169818
               3       -2955.64905524645837    0.5154699
               4       -3106.49912441002607    0.5292371
               5       -3199.06286216625585    0.5654399
               6       -3237.72288358675132    0.6108010
               7       -3250.87102857891614    0.6237028
               8       -3256.57452688402918    0.6242320
               9       -3259.33918541361527    0.6397075
              10       -3260.49726606713011    0.6598940
              11       -3260.96943968527648    0.6690082
              12       -3261.18410887419986    0.6512947
              13       -3261.29711793105434    0.5737297
              14       -3261.36983396571713    0.4292990
              15       -3261.39719177721554    0.2967729
              16       -3261.39873871143254    0.2743816
              17       -3261.39941904309308    0.2959519
              18       -3261.39990511662700    0.3424701
              19       -3261.40038796074623    0.3978252
              20       -3261.40083089864811    0.4524475
              21       -3261.40117618026989    0.4887962
              22       -3261.40138299237151    0.4993575
              23       -3261.40145619380291    0.4999979
              24       -3261.40146410536363    0.5000000
              25       -3261.40146418722770    0.5000000
Termination criterion satisfied: band energy change below threshold.
Final occupancy bounds: [    0.00000000000182:    0.99999999999993]
Closest occupancy to 0.5:     0.99999999999999
================================================================================
... done

Writing density kernel to file "complex_34681.vacuum_dkn" ... done

>>> Optimising kernel for current NGWFs:
   Initial electron number for spin 1:    7228.00000000
     Final electron number for spin 1:    7228.00000000

=================== Penalty functional idempotency correction ==================
 RMS occupancy error at iteration   1:  0.000000 (step -0.5000 Ne1=   7228.0000)
            Final RMS occupancy error   :  0.000000 (Ne1=   7228.0000)
               Final occupancy bounds   : [  0.0000,  1.0000]
================================================================================

................................................................................
<<<<<<<<<<<<<< LNV (Original version) density kernel optimisation >>>>>>>>>>>>>>
~~~~~~~~~~~~~~~~~~~~~~~~~~~~~~~~~~~~~~~~~~~~~~~~~~~~~~~~~~~~~~~~~~~~~~~~~~~~~~~~
   iter  |      energy (Eh)       | rms gradient |  commutator  |   dE (Eh)
MG BCs: +ve charge blocks (gridpoints):     31041 (   17223801).
MG BCs: -ve charge blocks (gridpoints):      8459 (    1122332).
MG BCs:     Elided blocks (gridpoints):    162865 (  172624492).
MG BCs: Computational effort saved:  99.9793%.
MG BCs: Charge after coarse-graining:           -9.0009665.
MG DL_MG: Calling solver with defect correction order = 8
MG DL_MG: Solver finished
MG Hartree energy from (\int phi*rho dr):              1425.680262
MG Hartree energy from (\int eps (grad phi)^2 dr):     1425.007448
MG Discrepancy due to finite box and discretization:     -0.672814 (  -0.04719%)
MG Correction to account for finite box:                  0.479134
MG Remaining discrepancy, due to discretization:         -0.193680 (  -0.01359%)
      ideal mu1:      -0.704319093239
             Q0:  -11560.098849682719
             G0:    -144.558419881509
   RMS gradient:       0.001838697810
MG BCs: +ve charge blocks (gridpoints):     31045 (   17303741).
MG BCs: -ve charge blocks (gridpoints):      8363 (    1102062).
MG BCs:     Elided blocks (gridpoints):    162862 (  172564822).
MG BCs: Computational effort saved:  99.9794%.
MG BCs: Charge after coarse-graining:           -9.0009868.
MG DL_MG: Calling solver with defect correction order = 8
MG DL_MG: Solver finished
MG Hartree energy from (\int phi*rho dr):              1450.465314
MG Hartree energy from (\int eps (grad phi)^2 dr):     1449.809250
MG Discrepancy due to finite box and discretization:     -0.656064 (  -0.04523%)
MG Correction to account for finite box:                  0.478058
MG Remaining discrepancy, due to discretization:         -0.178005 (  -0.01227%)
     Trial step:       0.500000000000
             Q1:  -11571.661601652275
 Quadratic coef:      60.716457971199
 Linear coef   :     -72.279209940754
           Qmin:  -11581.609838483062
Quadratic minimum step length (  0.297609628245) accepted
    Initial Ne1:    7228.00000000
      Final Ne1:    7228.00000000

=================== Penalty functional idempotency correction ==================
 RMS occupancy error at iteration   1:  0.003404 (step -0.4885 Ne1=   7228.0000)
 RMS occupancy error at iteration   2:  0.000027 (step -0.5001 Ne1=   7228.0000)
            Final RMS occupancy error   :  0.000000 (Ne1=   7228.0000)
               Final occupancy bounds   : [  0.0000,  1.0000]
================================================================================

    1        -1.156009884968E+04     1.8387E-03     1.6634E-03
MG BCs: +ve charge blocks (gridpoints):     31033 (   17273168).
MG BCs: -ve charge blocks (gridpoints):      8407 (    1110465).
MG BCs:     Elided blocks (gridpoints):    162874 (  172586992).
MG BCs: Computational effort saved:  99.9793%.
MG BCs: Charge after coarse-graining:           -9.0009783.
MG DL_MG: Calling solver with defect correction order = 8
MG DL_MG: Solver finished
MG Hartree energy from (\int phi*rho dr):              1432.533212
MG Hartree energy from (\int eps (grad phi)^2 dr):     1431.871290
MG Discrepancy due to finite box and discretization:     -0.661922 (  -0.04621%)
MG Correction to account for finite box:                  0.478391
MG Remaining discrepancy, due to discretization:         -0.183530 (  -0.01281%)
      ideal mu1:      -0.747315549174
             Q0:  -11582.011966916383
             G0:     -12.207977581338
   RMS gradient:       0.000530735258
MG BCs: +ve charge blocks (gridpoints):     31051 (   17289634).
MG BCs: -ve charge blocks (gridpoints):      8376 (    1105569).
MG BCs:     Elided blocks (gridpoints):    162856 (  172575422).
MG BCs: Computational effort saved:  99.9794%.
MG BCs: Charge after coarse-graining:           -9.0009819.
MG DL_MG: Calling solver with defect correction order = 8
MG DL_MG: Solver finished
MG Hartree energy from (\int phi*rho dr):              1437.689741
MG Hartree energy from (\int eps (grad phi)^2 dr):     1437.031961
MG Discrepancy due to finite box and discretization:     -0.657780 (  -0.04575%)
MG Correction to account for finite box:                  0.477437
MG Remaining discrepancy, due to discretization:         -0.180343 (  -0.01254%)
     Trial step:       0.385752270405
             Q1:  -11584.875355645898
 Quadratic coef:       1.845866339541
 Linear coef   :      -4.709255069056
           Qmin:  -11585.015581375128
Quadratic minimum step length (  0.492074045637) accepted
    Initial Ne1:    7227.99990036
      Final Ne1:    7228.00000000

=================== Penalty functional idempotency correction ==================
 RMS occupancy error at iteration   1:  0.001817 (step -0.4930 Ne1=   7228.0000)
 RMS occupancy error at iteration   2:  0.000012 (step -0.5002 Ne1=   7228.0000)
            Final RMS occupancy error   :  0.000000 (Ne1=   7228.0000)
               Final occupancy bounds   : [  0.0000,  1.0000]
================================================================================

    2        -1.158201196692E+04     5.3074E-04     4.8014E-04    -2.1913E+01
MG BCs: +ve charge blocks (gridpoints):     31052 (   17294277).
MG BCs: -ve charge blocks (gridpoints):      8369 (    1104075).
MG BCs:     Elided blocks (gridpoints):    162855 (  172572273).
MG BCs: Computational effort saved:  99.9794%.
MG BCs: Charge after coarse-graining:           -9.0009829.
MG DL_MG: Calling solver with defect correction order = 8
MG DL_MG: Solver finished
MG Hartree energy from (\int phi*rho dr):              1439.161451
MG Hartree energy from (\int eps (grad phi)^2 dr):     1438.504737
MG Discrepancy due to finite box and discretization:     -0.656714 (  -0.04563%)
MG Correction to account for finite box:                  0.477187
MG Remaining discrepancy, due to discretization:         -0.179526 (  -0.01247%)
      ideal mu1:      -0.771019642542
             Q0:  -11585.052736834157
             G0:      -1.950543530444
   RMS gradient:       0.000212245187
MG BCs: +ve charge blocks (gridpoints):     31050 (   17293589).
MG BCs: -ve charge blocks (gridpoints):      8378 (    1104902).
MG BCs:     Elided blocks (gridpoints):    162857 (  172572134).
MG BCs: Computational effort saved:  99.9794%.
MG BCs: Charge after coarse-graining:           -9.0009828.
MG DL_MG: Calling solver with defect correction order = 8
MG DL_MG: Solver finished
MG Hartree energy from (\int phi*rho dr):              1437.024595
MG Hartree energy from (\int eps (grad phi)^2 dr):     1436.368439
MG Discrepancy due to finite box and discretization:     -0.656156 (  -0.04566%)
MG Correction to account for finite box:                  0.476830
MG Remaining discrepancy, due to discretization:         -0.179326 (  -0.01248%)
     Trial step:       0.435681856762
             Q1:  -11585.547494462691
 Quadratic coef:       0.355058798505
 Linear coef   :      -0.849816427039
           Qmin:  -11585.561235681889
Quadratic minimum step length (  0.521391950290) accepted
    Initial Ne1:    7227.99992101
      Final Ne1:    7228.00000000

=================== Penalty functional idempotency correction ==================
 RMS occupancy error at iteration   1:  0.000631 (step -0.4972 Ne1=   7228.0000)
 RMS occupancy error at iteration   2:  0.000002 (step -0.5000 Ne1=   7228.0000)
            Final RMS occupancy error   :  0.000000 (Ne1=   7228.0000)
               Final occupancy bounds   : [  0.0000,  1.0000]
================================================================================

    3        -1.158505273683E+04     2.1225E-04     1.9201E-04    -3.0408E+00
MG BCs: +ve charge blocks (gridpoints):     31050 (   17293483).
MG BCs: -ve charge blocks (gridpoints):      8377 (    1105101).
MG BCs:     Elided blocks (gridpoints):    162857 (  172572041).
MG BCs: Computational effort saved:  99.9794%.
MG BCs: Charge after coarse-graining:           -9.0009828.
MG DL_MG: Calling solver with defect correction order = 8
MG DL_MG: Solver finished
MG Hartree energy from (\int phi*rho dr):              1436.613426
MG Hartree energy from (\int eps (grad phi)^2 dr):     1435.957371
MG Discrepancy due to finite box and discretization:     -0.656055 (  -0.04567%)
MG Correction to account for finite box:                  0.476759
MG Remaining discrepancy, due to discretization:         -0.179296 (  -0.01248%)
      ideal mu1:      -0.772206998281
             Q0:  -11585.566055384814
             G0:      -0.511969324078
   RMS gradient:       0.000108846233
MG BCs: +ve charge blocks (gridpoints):     31051 (   17294182).
MG BCs: -ve charge blocks (gridpoints):      8379 (    1105004).
MG BCs:     Elided blocks (gridpoints):    162856 (  172571439).
MG BCs: Computational effort saved:  99.9794%.
MG BCs: Charge after coarse-graining:           -9.0009829.
MG DL_MG: Calling solver with defect correction order = 8
MG DL_MG: Solver finished
MG Hartree energy from (\int phi*rho dr):              1437.712624
MG Hartree energy from (\int eps (grad phi)^2 dr):     1437.056705
MG Discrepancy due to finite box and discretization:     -0.655919 (  -0.04562%)
MG Correction to account for finite box:                  0.476528
MG Remaining discrepancy, due to discretization:         -0.179391 (  -0.01248%)
     Trial step:       0.476614113307
             Q1:  -11585.691071265144
 Quadratic coef:       0.118995925106
 Linear coef   :      -0.244011805436
           Qmin:  -11585.691147401913
Quadratic minimum step length (  0.488669969919) accepted
    Initial Ne1:    7227.99998044
      Final Ne1:    7228.00000000

=================== Penalty functional idempotency correction ==================
 RMS occupancy error at iteration   1:  0.000265 (step -0.4976 Ne1=   7228.0000)
 RMS occupancy error at iteration   2:  0.000001 (step -0.5000 Ne1=   7228.0000)
            Final RMS occupancy error   :  0.000000 (Ne1=   7228.0000)
               Final occupancy bounds   : [  0.0000,  1.0000]
================================================================================

    4        -1.158556605538E+04     1.0885E-04     9.8471E-05    -5.1332E-01
MG BCs: +ve charge blocks (gridpoints):     31051 (   17294190).
MG BCs: -ve charge blocks (gridpoints):      8379 (    1105006).
MG BCs:     Elided blocks (gridpoints):    162856 (  172571429).
MG BCs: Computational effort saved:  99.9794%.
MG BCs: Charge after coarse-graining:           -9.0009829.
MG DL_MG: Calling solver with defect correction order = 8
MG DL_MG: Solver finished
MG Hartree energy from (\int phi*rho dr):              1437.740880
MG Hartree energy from (\int eps (grad phi)^2 dr):     1437.084964
MG Discrepancy due to finite box and discretization:     -0.655916 (  -0.04562%)
MG Correction to account for finite box:                  0.476522
MG Remaining discrepancy, due to discretization:         -0.179394 (  -0.01248%)
      ideal mu1:      -0.772277261438
             Q0:  -11585.691791150486
             G0:      -0.179975369918
   RMS gradient:       0.000064720807
MG BCs: +ve charge blocks (gridpoints):     31053 (   17294352).
MG BCs: -ve charge blocks (gridpoints):      8375 (    1104862).
MG BCs:     Elided blocks (gridpoints):    162854 (  172571411).
MG BCs: Computational effort saved:  99.9794%.
MG BCs: Charge after coarse-graining:           -9.0009829.
MG DL_MG: Calling solver with defect correction order = 8
MG DL_MG: Solver finished
MG Hartree energy from (\int phi*rho dr):              1438.228225
MG Hartree energy from (\int eps (grad phi)^2 dr):     1437.572237
MG Discrepancy due to finite box and discretization:     -0.655988 (  -0.04561%)
MG Correction to account for finite box:                  0.476436
MG Remaining discrepancy, due to discretization:         -0.179552 (  -0.01248%)
     Trial step:       0.482604397423
             Q1:  -11585.748212246923
 Quadratic coef:       0.030435808514
 Linear coef   :      -0.086856904950
           Qmin:  -11585.753758634724
Quadratic minimum step length (  0.688621829386) accepted
    Initial Ne1:    7227.99999022
      Final Ne1:    7228.00000000

=================== Penalty functional idempotency correction ==================
 RMS occupancy error at iteration   1:  0.000355 (step -0.4851 Ne1=   7228.0000)
 RMS occupancy error at iteration   2:  0.000005 (step -0.5000 Ne1=   7228.0000)
            Final RMS occupancy error   :  0.000000 (Ne1=   7228.0000)
               Final occupancy bounds   : [  0.0000,  1.0000]
================================================================================

    5        -1.158569179115E+04     6.4721E-05     5.8551E-05    -1.2574E-01
MG BCs: +ve charge blocks (gridpoints):     31052 (   17294459).
MG BCs: -ve charge blocks (gridpoints):      8374 (    1104799).
MG BCs:     Elided blocks (gridpoints):    162855 (  172571367).
MG BCs: Computational effort saved:  99.9794%.
MG BCs: Charge after coarse-graining:           -9.0009829.
MG DL_MG: Calling solver with defect correction order = 8
MG DL_MG: Solver finished
MG Hartree energy from (\int phi*rho dr):              1438.434389
MG Hartree energy from (\int eps (grad phi)^2 dr):     1437.778372
MG Discrepancy due to finite box and discretization:     -0.656017 (  -0.04561%)
MG Correction to account for finite box:                  0.476397
MG Remaining discrepancy, due to discretization:         -0.179620 (  -0.01249%)
      ideal mu1:      -0.772506461800
             Q0:  -11585.753457029467
             G0:      -0.163066571117
   RMS gradient:       0.000062010814
MG BCs: +ve charge blocks (gridpoints):     31050 (   17293819).
MG BCs: -ve charge blocks (gridpoints):      8376 (    1105238).
MG BCs:     Elided blocks (gridpoints):    162857 (  172571568).
MG BCs: Computational effort saved:  99.9794%.
MG BCs: Charge after coarse-graining:           -9.0009826.
MG DL_MG: Calling solver with defect correction order = 8
MG DL_MG: Solver finished
MG Hartree energy from (\int phi*rho dr):              1437.235877
MG Hartree energy from (\int eps (grad phi)^2 dr):     1436.580002
MG Discrepancy due to finite box and discretization:     -0.655875 (  -0.04563%)
MG Correction to account for finite box:                  0.476246
MG Remaining discrepancy, due to discretization:         -0.179629 (  -0.01250%)
     Trial step:       0.576482370089
             Q1:  -11585.831319950754
 Quadratic coef:       0.016142082111
 Linear coef   :      -0.094005003400
           Qmin:  -11585.890318876085
Quadratic minimum step length (  1.678600901236) accepted
    Initial Ne1:    7227.99995270
      Final Ne1:    7228.00000000

=================== Penalty functional idempotency correction ==================
 RMS occupancy error at iteration   1:  0.005348 (step -0.3079 Ne1=   7228.0000)
 RMS occupancy error at iteration   2:  0.000357 (step -0.4965 Ne1=   7228.0000)
 RMS occupancy error at iteration   3:  0.000008 (step -0.5005 Ne1=   7228.0000)
            Final RMS occupancy error   :  0.000000 (Ne1=   7228.0000)
               Final occupancy bounds   : [  0.0000,  1.0000]
================================================================================

    6        -1.158575345703E+04     6.2011E-05     5.6100E-05    -6.1666E-02
MG BCs: +ve charge blocks (gridpoints):     31049 (   17292740).
MG BCs: -ve charge blocks (gridpoints):      8381 (    1105913).
MG BCs:     Elided blocks (gridpoints):    162858 (  172571972).
MG BCs: Computational effort saved:  99.9794%.
MG BCs: Charge after coarse-graining:           -9.0009823.
MG DL_MG: Calling solver with defect correction order = 8
MG DL_MG: Solver finished
MG Hartree energy from (\int phi*rho dr):              1434.951205
MG Hartree energy from (\int eps (grad phi)^2 dr):     1434.295600
MG Discrepancy due to finite box and discretization:     -0.655604 (  -0.04569%)
MG Correction to account for finite box:                  0.475963
MG Remaining discrepancy, due to discretization:         -0.179641 (  -0.01252%)
      ideal mu1:      -0.771748773719
             Q0:  -11585.824563718284
             G0:      -0.581926460326
   RMS gradient:       0.000116660200
MG BCs: +ve charge blocks (gridpoints):     31062 (   17297051).
MG BCs: -ve charge blocks (gridpoints):      8371 (    1103649).
MG BCs:     Elided blocks (gridpoints):    162845 (  172569925).
MG BCs: Computational effort saved:  99.9794%.
MG BCs: Charge after coarse-graining:           -9.0009836.
MG DL_MG: Calling solver with defect correction order = 8
MG DL_MG: Solver finished
MG Hartree energy from (\int phi*rho dr):              1440.797064
MG Hartree energy from (\int eps (grad phi)^2 dr):     1440.141757
MG Discrepancy due to finite box and discretization:     -0.655307 (  -0.04548%)
MG Correction to account for finite box:                  0.475908
MG Remaining discrepancy, due to discretization:         -0.179398 (  -0.01245%)
     Trial step:       0.983709218203
             Q1:  -11585.900729316170
 Quadratic coef:       0.496280825453
 Linear coef   :      -0.572446423339
           Qmin:  -11585.989639060101
Quadratic minimum step length (  0.567340903260) accepted
    Initial Ne1:    7227.99997929
      Final Ne1:    7228.00000000

=================== Penalty functional idempotency correction ==================
 RMS occupancy error at iteration   1:  0.000255 (step -0.4814 Ne1=   7228.0000)
 RMS occupancy error at iteration   2:  0.000002 (step -0.5000 Ne1=   7228.0000)
            Final RMS occupancy error   :  0.000000 (Ne1=   7228.0000)
               Final occupancy bounds   : [  0.0000,  1.0000]
================================================================================

    7        -1.158582456372E+04     1.1666E-04     1.0554E-04    -7.1107E-02
MG BCs: +ve charge blocks (gridpoints):     31055 (   17295204).
MG BCs: -ve charge blocks (gridpoints):      8377 (    1104624).
MG BCs:     Elided blocks (gridpoints):    162852 (  172570797).
MG BCs: Computational effort saved:  99.9794%.
MG BCs: Charge after coarse-graining:           -9.0009830.
MG DL_MG: Calling solver with defect correction order = 8
MG DL_MG: Solver finished
MG Hartree energy from (\int phi*rho dr):              1438.303804
MG Hartree energy from (\int eps (grad phi)^2 dr):     1437.648382
MG Discrepancy due to finite box and discretization:     -0.655422 (  -0.04557%)
MG Correction to account for finite box:                  0.475925
MG Remaining discrepancy, due to discretization:         -0.179497 (  -0.01248%)
      ideal mu1:      -0.773534987816
             Q0:  -11585.990788447089
             G0:      -0.365036388216
   RMS gradient:       0.000092147045
MG BCs: +ve charge blocks (gridpoints):     31053 (   17295418).
MG BCs: -ve charge blocks (gridpoints):      8378 (    1104502).
MG BCs:     Elided blocks (gridpoints):    162854 (  172570705).
MG BCs: Computational effort saved:  99.9794%.
MG BCs: Charge after coarse-graining:           -9.0009832.
MG DL_MG: Calling solver with defect correction order = 8
MG DL_MG: Solver finished
MG Hartree energy from (\int phi*rho dr):              1438.376577
MG Hartree energy from (\int eps (grad phi)^2 dr):     1437.721227
MG Discrepancy due to finite box and discretization:     -0.655350 (  -0.04556%)
MG Correction to account for finite box:                  0.476075
MG Remaining discrepancy, due to discretization:         -0.179275 (  -0.01246%)
     Trial step:       0.747059888095
             Q1:  -11586.137560772244
 Quadratic coef:       0.125931718176
 Linear coef   :      -0.272704043331
           Qmin:  -11586.138423007164
Quadratic minimum step length (  0.808875853698) accepted
    Initial Ne1:    7227.99998052
      Final Ne1:    7228.00000000

=================== Penalty functional idempotency correction ==================
 RMS occupancy error at iteration   1:  0.001917 (step -0.3861 Ne1=   7228.0000)
 RMS occupancy error at iteration   2:  0.000085 (step -0.4953 Ne1=   7228.0000)
 RMS occupancy error at iteration   3:  0.000000 (step -0.5000 Ne1=   7228.0000)
            Final RMS occupancy error   :  0.000000 (Ne1=   7228.0000)
               Final occupancy bounds   : [  0.0000,  1.0000]
================================================================================

    8        -1.158599078845E+04     9.2147E-05     8.3363E-05    -1.6622E-01
MG BCs: +ve charge blocks (gridpoints):     31053 (   17295417).
MG BCs: -ve charge blocks (gridpoints):      8378 (    1104500).
MG BCs:     Elided blocks (gridpoints):    162854 (  172570708).
MG BCs: Computational effort saved:  99.9794%.
MG BCs: Charge after coarse-graining:           -9.0009833.
MG DL_MG: Calling solver with defect correction order = 8
MG DL_MG: Solver finished
MG Hartree energy from (\int phi*rho dr):              1438.389074
MG Hartree energy from (\int eps (grad phi)^2 dr):     1437.733737
MG Discrepancy due to finite box and discretization:     -0.655337 (  -0.04556%)
MG Correction to account for finite box:                  0.476079
MG Remaining discrepancy, due to discretization:         -0.179258 (  -0.01246%)
      ideal mu1:      -0.772545766993
             Q0:  -11586.137040677364
             G0:      -0.336652963352
   RMS gradient:       0.000088861027
MG BCs: +ve charge blocks (gridpoints):     31050 (   17294287).
MG BCs: -ve charge blocks (gridpoints):      8387 (    1105255).
MG BCs:     Elided blocks (gridpoints):    162857 (  172571083).
MG BCs: Computational effort saved:  99.9793%.
MG BCs: Charge after coarse-graining:           -9.0009829.
MG DL_MG: Calling solver with defect correction order = 8
MG DL_MG: Solver finished
MG Hartree energy from (\int phi*rho dr):              1436.326926
MG Hartree energy from (\int eps (grad phi)^2 dr):     1435.671471
MG Discrepancy due to finite box and discretization:     -0.655455 (  -0.04563%)
MG Correction to account for finite box:                  0.476325
MG Remaining discrepancy, due to discretization:         -0.179130 (  -0.01247%)
     Trial step:       0.777353654874
             Q1:  -11586.221963020740
 Quadratic coef:       0.176776068110
 Linear coef   :      -0.261698411486
           Qmin:  -11586.233894933863
Quadratic minimum step length (  0.575395241046) accepted
    Initial Ne1:    7227.99998709
      Final Ne1:    7228.00000000

=================== Penalty functional idempotency correction ==================
 RMS occupancy error at iteration   1:  0.003272 (step -0.3375 Ne1=   7228.0000)
 RMS occupancy error at iteration   2:  0.000218 (step -0.4867 Ne1=   7228.0000)
 RMS occupancy error at iteration   3:  0.000003 (step -0.5000 Ne1=   7228.0000)
            Final RMS occupancy error   :  0.000000 (Ne1=   7228.0000)
               Final occupancy bounds   : [  0.0000,  1.0000]
================================================================================

    9        -1.158613704068E+04     8.8861E-05     8.0390E-05    -1.4625E-01
MG BCs: +ve charge blocks (gridpoints):     31050 (   17294545).
MG BCs: -ve charge blocks (gridpoints):      8386 (    1105081).
MG BCs:     Elided blocks (gridpoints):    162857 (  172570999).
MG BCs: Computational effort saved:  99.9793%.
MG BCs: Charge after coarse-graining:           -9.0009830.
MG DL_MG: Calling solver with defect correction order = 8
MG DL_MG: Solver finished
MG Hartree energy from (\int phi*rho dr):              1436.851084
MG Hartree energy from (\int eps (grad phi)^2 dr):     1436.195659
MG Discrepancy due to finite box and discretization:     -0.655424 (  -0.04562%)
MG Correction to account for finite box:                  0.476269
MG Remaining discrepancy, due to discretization:         -0.179155 (  -0.01247%)
      ideal mu1:      -0.771610900140
   10        -1.158624035816E+04     6.7160E-05     6.0758E-05    -1.0332E-01
Finished density kernel iterations (  10)

Writing density kernel to file "complex_34681.vacuum_dkn" ... done


>>> Density kernel optimised for the current NGWF basis:
     ~~~~~~~~~~~~~~~~~~~~~~~~~~~~~~~~~~~~~~~~~~~~~~~~~~~~~~~~~~~
     Total energy                =  -1.15862403581613E+04  Eh
     Estimated bandgap           =  -3.7864E-01  Eh
     RMS occupancy error         =   7.6608E-10
     [H,K] commutator            =   6.0758E-05
     Occupancy bounds            = [  0.000:  1.000]
     ~~~~~~~~~~~~~~~~~~~~~~~~~~~~~~~~~~~~~~~~~~~~~~~~~~~~~~~~~~~




################################################################################
########################### NGWF CG iteration  001 #############################
################################################################################
****** Reciprocal space K.E. preconditioning with k_zero =  3.5000 a0^-1 *******

>>> Checking for convergence of NGWFs:   NOT CONVERGED
  ========================================================================
         NGWF RMS gradient =  1.5826E-03 >  2.0000E-06  | above tolerance
  ========================================================================

>>> Improving NGWFs using line search:
============ Calculation of NGWF S^-1 using Hotelling algorithm ================ 
         Iteration  |  Frobenius norm and Maximum abs value    (of I-S*S_n^-1)   
               1       0.19481334E+00     0.50637230E-02
               2       0.87438220E-03     0.35188424E-04
               3       0.29818790E-07     0.20339262E-08
               4       0.12848285E-12     0.62172489E-14
================================================================================
MG BCs: +ve charge blocks (gridpoints):     30530 (   17242023).
MG BCs: -ve charge blocks (gridpoints):      8394 (    1104804).
MG BCs:     Elided blocks (gridpoints):    163376 (  172623798).
MG BCs: Computational effort saved:  99.9796%.
MG BCs: Charge after coarse-graining:           -9.0009818.
MG DL_MG: Calling solver with defect correction order = 8
MG DL_MG: Solver finished
MG Hartree energy from (\int phi*rho dr):              1405.140208
MG Hartree energy from (\int eps (grad phi)^2 dr):     1404.485533
MG Discrepancy due to finite box and discretization:     -0.654675 (  -0.04659%)
MG Correction to account for finite box:                  0.476185
MG Remaining discrepancy, due to discretization:         -0.178490 (  -0.01270%)
============ Calculation of NGWF S^-1 using Hotelling algorithm ================ 
         Iteration  |  Frobenius norm and Maximum abs value    (of I-S*S_n^-1)   
               1       0.18458210E+01     0.41244937E-01
               2       0.70497748E-01     0.21800823E-02
               3       0.13853915E-03     0.78030914E-05
               4       0.97523177E-09     0.12322669E-09
               5       0.11210160E-12     0.57731597E-14
================================================================================
------------------------------- NGWF line search -------------------------------
RMS gradient                =       0.00158263795075
Trial step length           =               0.122474
Gradient along search dir.  =       -274.97124980423
Functional at step 0        =  -11586.24035816127434
Functional at step 1        =  -11617.35936618712731
Functional predicted        =  -11697.08456030742673
Selected quadratic step     =               0.806224
--------------------------- NGWF line search finished --------------------------
                                               
Writing NGWFs to file "complex_34681.vacuum_tightbox_ngwfs"....  done

>>> Optimising kernel for current NGWFs:
   Initial electron number for spin 1:    7262.38260407
     Final electron number for spin 1:    7228.00000000

=================== Penalty functional idempotency correction ==================
 RMS occupancy error at iteration   1:  0.004233 (step -0.4862 Ne1=   7228.0000)
 RMS occupancy error at iteration   2:  0.000069 (step -0.5003 Ne1=   7228.0000)
            Final RMS occupancy error   :  0.000000 (Ne1=   7228.0000)
               Final occupancy bounds   : [  0.0000,  1.0000]
================================================================================

................................................................................
<<<<<<<<<<<<<< LNV (Original version) density kernel optimisation >>>>>>>>>>>>>>
~~~~~~~~~~~~~~~~~~~~~~~~~~~~~~~~~~~~~~~~~~~~~~~~~~~~~~~~~~~~~~~~~~~~~~~~~~~~~~~~
   iter  |      energy (Eh)       | rms gradient |  commutator  |   dE (Eh)
MG BCs: +ve charge blocks (gridpoints):     24751 (   16984095).
MG BCs: -ve charge blocks (gridpoints):      8530 (    1088752).
MG BCs:     Elided blocks (gridpoints):    169163 (  172897778).
MG BCs: Computational effort saved:  99.9826%.
MG BCs: Charge after coarse-graining:           -9.0006590.
MG DL_MG: Calling solver with defect correction order = 8
MG DL_MG: Solver finished
MG Hartree energy from (\int phi*rho dr):              1250.335000
MG Hartree energy from (\int eps (grad phi)^2 dr):     1249.679894
MG Discrepancy due to finite box and discretization:     -0.655107 (  -0.05239%)
MG Correction to account for finite box:                  0.475796
MG Remaining discrepancy, due to discretization:         -0.179310 (  -0.01434%)
      ideal mu1:      -0.711923247360
             Q0:  -11696.281483272905
             G0:      -9.952425142321
   RMS gradient:       0.000482450902
MG BCs: +ve charge blocks (gridpoints):     24809 (   16997845).
MG BCs: -ve charge blocks (gridpoints):      8513 (    1085427).
MG BCs:     Elided blocks (gridpoints):    169105 (  172887353).
MG BCs: Computational effort saved:  99.9826%.
MG BCs: Charge after coarse-graining:           -9.0006554.
MG DL_MG: Calling solver with defect correction order = 8
MG DL_MG: Solver finished
MG Hartree energy from (\int phi*rho dr):              1264.815728
MG Hartree energy from (\int eps (grad phi)^2 dr):     1264.155870
MG Discrepancy due to finite box and discretization:     -0.659858 (  -0.05217%)
MG Correction to account for finite box:                  0.475027
MG Remaining discrepancy, due to discretization:         -0.184831 (  -0.01461%)
     Trial step:       0.668794133964
             Q1:  -11696.220500821713
 Quadratic coef:       6.717106005093
 Linear coef   :      -6.656123553901
           Qmin:  -11697.930406958612
Quadratic minimum step length (  0.331361183255) accepted
    Initial Ne1:    7227.99959499
      Final Ne1:    7228.00000000

=================== Penalty functional idempotency correction ==================
 RMS occupancy error at iteration   1:  0.000361 (step -0.4985 Ne1=   7228.0000)
 RMS occupancy error at iteration   2:  0.000000 (step -0.5000 Ne1=   7228.0000)
            Final RMS occupancy error   :  0.000000 (Ne1=   7228.0000)
               Final occupancy bounds   : [  0.0000,  1.0000]
================================================================================

    1        -1.169628148327E+04     4.8245E-04     4.3646E-04
MG BCs: +ve charge blocks (gridpoints):     24781 (   16991146).
MG BCs: -ve charge blocks (gridpoints):      8525 (    1087191).
MG BCs:     Elided blocks (gridpoints):    169133 (  172892288).
MG BCs: Computational effort saved:  99.9826%.
MG BCs: Charge after coarse-graining:           -9.0006570.
MG DL_MG: Calling solver with defect correction order = 8
MG DL_MG: Solver finished
MG Hartree energy from (\int phi*rho dr):              1256.673804
MG Hartree energy from (\int eps (grad phi)^2 dr):     1256.016433
MG Discrepancy due to finite box and discretization:     -0.657371 (  -0.05231%)
MG Correction to account for finite box:                  0.475390
MG Remaining discrepancy, due to discretization:         -0.181981 (  -0.01448%)
      ideal mu1:      -0.718351017394
             Q0:  -11697.908725346671
             G0:      -1.075940238577
   RMS gradient:       0.000159110155
MG BCs: +ve charge blocks (gridpoints):     24783 (   16990437).
MG BCs: -ve charge blocks (gridpoints):      8528 (    1088083).
MG BCs:     Elided blocks (gridpoints):    169131 (  172892105).
MG BCs: Computational effort saved:  99.9826%.
MG BCs: Charge after coarse-graining:           -9.0006571.
MG DL_MG: Calling solver with defect correction order = 8
MG DL_MG: Solver finished
MG Hartree energy from (\int phi*rho dr):              1257.618420
MG Hartree energy from (\int eps (grad phi)^2 dr):     1256.960724
MG Discrepancy due to finite box and discretization:     -0.657696 (  -0.05230%)
MG Correction to account for finite box:                  0.475296
MG Remaining discrepancy, due to discretization:         -0.182400 (  -0.01450%)
     Trial step:       0.470757278843
             Q1:  -11698.143969776924
 Quadratic coef:       0.271262268658
 Linear coef   :      -0.506506698911
           Qmin:  -11698.145165376933
Quadratic minimum step length (  0.439504020362) accepted
    Initial Ne1:    7227.99994156
      Final Ne1:    7228.00000000

=================== Penalty functional idempotency correction ==================
 RMS occupancy error at iteration   1:  0.000172 (step -0.4989 Ne1=   7228.0000)
 RMS occupancy error at iteration   2:  0.000000 (step -0.5000 Ne1=   7228.0000)
            Final RMS occupancy error   :  0.000000 (Ne1=   7228.0000)
               Final occupancy bounds   : [  0.0000,  1.0000]
================================================================================

    2        -1.169790872535E+04     1.5911E-04     1.4394E-04    -1.6272E+00
MG BCs: +ve charge blocks (gridpoints):     24783 (   16990432).
MG BCs: -ve charge blocks (gridpoints):      8528 (    1088065).
MG BCs:     Elided blocks (gridpoints):    169131 (  172892128).
MG BCs: Computational effort saved:  99.9826%.
MG BCs: Charge after coarse-graining:           -9.0006571.
MG DL_MG: Calling solver with defect correction order = 8
MG DL_MG: Solver finished
MG Hartree energy from (\int phi*rho dr):              1257.555788
MG Hartree energy from (\int eps (grad phi)^2 dr):     1256.898114
MG Discrepancy due to finite box and discretization:     -0.657674 (  -0.05230%)
MG Correction to account for finite box:                  0.475302
MG Remaining discrepancy, due to discretization:         -0.182371 (  -0.01450%)
      ideal mu1:      -0.719114436274
             Q0:  -11698.145683158538
             G0:      -0.190896394532
   RMS gradient:       0.000066741453
MG BCs: +ve charge blocks (gridpoints):     24782 (   16989455).
MG BCs: -ve charge blocks (gridpoints):      8528 (    1088581).
MG BCs:     Elided blocks (gridpoints):    169132 (  172892589).
MG BCs: Computational effort saved:  99.9826%.
MG BCs: Charge after coarse-graining:           -9.0006572.
MG DL_MG: Calling solver with defect correction order = 8
MG DL_MG: Solver finished
MG Hartree energy from (\int phi*rho dr):              1256.932524
MG Hartree energy from (\int eps (grad phi)^2 dr):     1256.274957
MG Discrepancy due to finite box and discretization:     -0.657567 (  -0.05232%)
MG Correction to account for finite box:                  0.475211
MG Remaining discrepancy, due to discretization:         -0.182356 (  -0.01451%)
     Trial step:       0.454862305172
             Q1:  -11698.206520432024
 Quadratic coef:       0.025994300580
 Linear coef   :      -0.086831574066
           Qmin:  -11698.218196383423
Quadratic minimum step length (  0.759712880505) accepted
    Initial Ne1:    7227.99998221
      Final Ne1:    7228.00000000

=================== Penalty functional idempotency correction ==================
 RMS occupancy error at iteration   1:  0.000231 (step -0.4894 Ne1=   7228.0000)
 RMS occupancy error at iteration   2:  0.000002 (step -0.5000 Ne1=   7228.0000)
            Final RMS occupancy error   :  0.000000 (Ne1=   7228.0000)
               Final occupancy bounds   : [  0.0000,  1.0000]
================================================================================

    3        -1.169814568316E+04     6.6741E-05     6.0379E-05    -2.3696E-01
MG BCs: +ve charge blocks (gridpoints):     24783 (   16988843).
MG BCs: -ve charge blocks (gridpoints):      8528 (    1088952).
MG BCs:     Elided blocks (gridpoints):    169131 (  172892830).
MG BCs: Computational effort saved:  99.9826%.
MG BCs: Charge after coarse-graining:           -9.0006572.
MG DL_MG: Calling solver with defect correction order = 8
MG DL_MG: Solver finished
MG Hartree energy from (\int phi*rho dr):              1256.514788
MG Hartree energy from (\int eps (grad phi)^2 dr):     1255.857293
MG Discrepancy due to finite box and discretization:     -0.657495 (  -0.05233%)
MG Correction to account for finite box:                  0.475149
MG Remaining discrepancy, due to discretization:         -0.182347 (  -0.01451%)
      ideal mu1:      -0.717915052665
             Q0:  -11698.218222823809
             G0:      -0.085637139682
   RMS gradient:       0.000044715455
MG BCs: +ve charge blocks (gridpoints):     24783 (   16988946).
MG BCs: -ve charge blocks (gridpoints):      8529 (    1088871).
MG BCs:     Elided blocks (gridpoints):    169131 (  172892808).
MG BCs: Computational effort saved:  99.9826%.
MG BCs: Charge after coarse-graining:           -9.0006572.
MG DL_MG: Calling solver with defect correction order = 8
MG DL_MG: Solver finished
MG Hartree energy from (\int phi*rho dr):              1256.589415
MG Hartree energy from (\int eps (grad phi)^2 dr):     1255.932152
MG Discrepancy due to finite box and discretization:     -0.657263 (  -0.05231%)
MG Correction to account for finite box:                  0.475056
MG Remaining discrepancy, due to discretization:         -0.182206 (  -0.01450%)
     Trial step:       0.587847558552
             Q1:  -11698.250125466962
 Quadratic coef:       0.018438940329
 Linear coef   :      -0.050341583483
           Qmin:  -11698.252583190813
Quadratic minimum step length (  0.802464144245) accepted
    Initial Ne1:    7227.99999096
      Final Ne1:    7228.00000000

=================== Penalty functional idempotency correction ==================
 RMS occupancy error at iteration   1:  0.000450 (step -0.4752 Ne1=   7228.0000)
 RMS occupancy error at iteration   2:  0.000004 (step -0.5000 Ne1=   7228.0000)
            Final RMS occupancy error   :  0.000000 (Ne1=   7228.0000)
               Final occupancy bounds   : [  0.0000,  1.0000]
================================================================================

    4        -1.169821822282E+04     4.4715E-05     4.0453E-05    -7.2540E-02
MG BCs: +ve charge blocks (gridpoints):     24782 (   16989000).
MG BCs: -ve charge blocks (gridpoints):      8528 (    1088826).
MG BCs:     Elided blocks (gridpoints):    169132 (  172892799).
MG BCs: Computational effort saved:  99.9826%.
MG BCs: Charge after coarse-graining:           -9.0006572.
MG DL_MG: Calling solver with defect correction order = 8
MG DL_MG: Solver finished
MG Hartree energy from (\int phi*rho dr):              1256.618520
MG Hartree energy from (\int eps (grad phi)^2 dr):     1255.961344
MG Discrepancy due to finite box and discretization:     -0.657175 (  -0.05230%)
MG Correction to account for finite box:                  0.475020
MG Remaining discrepancy, due to discretization:         -0.182156 (  -0.01450%)
      ideal mu1:      -0.718431788222
             Q0:  -11698.252557732165
             G0:      -0.089298433658
   RMS gradient:       0.000045575175
MG BCs: +ve charge blocks (gridpoints):     24782 (   16990762).
MG BCs: -ve charge blocks (gridpoints):      8526 (    1088120).
MG BCs:     Elided blocks (gridpoints):    169132 (  172891743).
MG BCs: Computational effort saved:  99.9826%.
MG BCs: Charge after coarse-graining:           -9.0006569.
MG DL_MG: Calling solver with defect correction order = 8
MG DL_MG: Solver finished
MG Hartree energy from (\int phi*rho dr):              1257.660834
MG Hartree energy from (\int eps (grad phi)^2 dr):     1257.004039
MG Discrepancy due to finite box and discretization:     -0.656795 (  -0.05222%)
MG Correction to account for finite box:                  0.474728
MG Remaining discrepancy, due to discretization:         -0.182067 (  -0.01448%)
     Trial step:       0.686823549407
             Q1:  -11698.287839038298
 Quadratic coef:       0.026050961029
 Linear coef   :      -0.061332267161
           Qmin:  -11698.288656659484
Quadratic minimum step length (  0.808500795388) accepted
    Initial Ne1:    7227.99998874
      Final Ne1:    7228.00000000

=================== Penalty functional idempotency correction ==================
 RMS occupancy error at iteration   1:  0.001381 (step -0.4297 Ne1=   7228.0000)
 RMS occupancy error at iteration   2:  0.000019 (step -0.4998 Ne1=   7228.0000)
            Final RMS occupancy error   :  0.000000 (Ne1=   7228.0000)
               Final occupancy bounds   : [ -0.0000,  1.0000]
================================================================================

    5        -1.169825255773E+04     4.5575E-05     4.1231E-05    -3.4335E-02
MG BCs: +ve charge blocks (gridpoints):     24783 (   16991046).
MG BCs: -ve charge blocks (gridpoints):      8526 (    1088010).
MG BCs:     Elided blocks (gridpoints):    169131 (  172891569).
MG BCs: Computational effort saved:  99.9826%.
MG BCs: Charge after coarse-graining:           -9.0006568.
MG DL_MG: Calling solver with defect correction order = 8
MG DL_MG: Solver finished
MG Hartree energy from (\int phi*rho dr):              1257.847519
MG Hartree energy from (\int eps (grad phi)^2 dr):     1257.190784
MG Discrepancy due to finite box and discretization:     -0.656735 (  -0.05221%)
MG Correction to account for finite box:                  0.474684
MG Remaining discrepancy, due to discretization:         -0.182051 (  -0.01447%)
      ideal mu1:      -0.719859044213
             Q0:  -11698.289336228976
             G0:      -0.080611365209
   RMS gradient:       0.000042309013
MG BCs: +ve charge blocks (gridpoints):     24780 (   16990972).
MG BCs: -ve charge blocks (gridpoints):      8524 (    1088241).
MG BCs:     Elided blocks (gridpoints):    169134 (  172891412).
MG BCs: Computational effort saved:  99.9826%.
MG BCs: Charge after coarse-graining:           -9.0006568.
MG DL_MG: Calling solver with defect correction order = 8
MG DL_MG: Solver finished
MG Hartree energy from (\int phi*rho dr):              1257.550601
MG Hartree energy from (\int eps (grad phi)^2 dr):     1256.894272
MG Discrepancy due to finite box and discretization:     -0.656329 (  -0.05219%)
MG Correction to account for finite box:                  0.474247
MG Remaining discrepancy, due to discretization:         -0.182082 (  -0.01448%)
     Trial step:       0.745182786963
             Q1:  -11698.326066970825
 Quadratic coef:       0.023339459938
 Linear coef   :      -0.060070201787
           Qmin:  -11698.327987821091
Quadratic minimum step length (  0.958961357719) accepted
    Initial Ne1:    7228.00007898
      Final Ne1:    7228.00000000

=================== Penalty functional idempotency correction ==================
 RMS occupancy error at iteration   1:  0.003065 (step -0.3671 Ne1=   7228.0000)
 RMS occupancy error at iteration   2:  0.000083 (step -0.4991 Ne1=   7228.0000)
 RMS occupancy error at iteration   3:  0.000001 (step -0.5000 Ne1=   7228.0000)
            Final RMS occupancy error   :  0.000000 (Ne1=   7228.0000)
               Final occupancy bounds   : [  0.0000,  1.0000]
================================================================================

    6        -1.169828933623E+04     4.2309E-05     3.8276E-05    -3.6778E-02
MG BCs: +ve charge blocks (gridpoints):     24781 (   16990974).
MG BCs: -ve charge blocks (gridpoints):      8525 (    1088293).
MG BCs:     Elided blocks (gridpoints):    169133 (  172891358).
MG BCs: Computational effort saved:  99.9826%.
MG BCs: Charge after coarse-graining:           -9.0006568.
MG DL_MG: Calling solver with defect correction order = 8
MG DL_MG: Solver finished
MG Hartree energy from (\int phi*rho dr):              1257.468291
MG Hartree energy from (\int eps (grad phi)^2 dr):     1256.812031
MG Discrepancy due to finite box and discretization:     -0.656260 (  -0.05219%)
MG Correction to account for finite box:                  0.474169
MG Remaining discrepancy, due to discretization:         -0.182090 (  -0.01448%)
      ideal mu1:      -0.719971603597
             Q0:  -11698.330946854199
             G0:      -0.073482502564
   RMS gradient:       0.000041455354
MG BCs: +ve charge blocks (gridpoints):     24778 (   16988991).
MG BCs: -ve charge blocks (gridpoints):      8528 (    1088711).
MG BCs:     Elided blocks (gridpoints):    169136 (  172892923).
MG BCs: Computational effort saved:  99.9826%.
MG BCs: Charge after coarse-graining:           -9.0006572.
MG DL_MG: Calling solver with defect correction order = 8
MG DL_MG: Solver finished
MG Hartree energy from (\int phi*rho dr):              1256.554597
MG Hartree energy from (\int eps (grad phi)^2 dr):     1255.898432
MG Discrepancy due to finite box and discretization:     -0.656165 (  -0.05222%)
MG Correction to account for finite box:                  0.474034
MG Remaining discrepancy, due to discretization:         -0.182131 (  -0.01449%)
     Trial step:       0.845341053738
             Q1:  -11698.352064790204
 Quadratic coef:       0.040999840143
 Linear coef   :      -0.062117776149
           Qmin:  -11698.354475105165
Quadratic minimum step length (  0.640376964427) accepted
    Initial Ne1:    7227.99999995
      Final Ne1:    7228.00000000

=================== Penalty functional idempotency correction ==================
 RMS occupancy error at iteration   1:  0.000052 (step -0.4967 Ne1=   7228.0000)
            Final RMS occupancy error   :  0.000000 (Ne1=   7228.0000)
               Final occupancy bounds   : [ -0.0000,  1.0000]
================================================================================

    7        -1.169833094685E+04     4.1455E-05     3.7504E-05    -4.1611E-02
MG BCs: +ve charge blocks (gridpoints):     24778 (   16989483).
MG BCs: -ve charge blocks (gridpoints):      8527 (    1088608).
MG BCs:     Elided blocks (gridpoints):    169136 (  172892534).
MG BCs: Computational effort saved:  99.9826%.
MG BCs: Charge after coarse-graining:           -9.0006571.
MG DL_MG: Calling solver with defect correction order = 8
MG DL_MG: Solver finished
MG Hartree energy from (\int phi*rho dr):              1256.774143
MG Hartree energy from (\int eps (grad phi)^2 dr):     1256.117954
MG Discrepancy due to finite box and discretization:     -0.656189 (  -0.05221%)
MG Correction to account for finite box:                  0.474069
MG Remaining discrepancy, due to discretization:         -0.182121 (  -0.01449%)
      ideal mu1:      -0.718998294660
             Q0:  -11698.354497335618
             G0:      -0.064097983321
   RMS gradient:       0.000038708669
MG BCs: +ve charge blocks (gridpoints):     24781 (   16989315).
MG BCs: -ve charge blocks (gridpoints):      8528 (    1088651).
MG BCs:     Elided blocks (gridpoints):    169133 (  172892659).
MG BCs: Computational effort saved:  99.9826%.
MG BCs: Charge after coarse-graining:           -9.0006571.
MG DL_MG: Calling solver with defect correction order = 8
MG DL_MG: Solver finished
MG Hartree energy from (\int phi*rho dr):              1256.593776
MG Hartree energy from (\int eps (grad phi)^2 dr):     1255.937858
MG Discrepancy due to finite box and discretization:     -0.655918 (  -0.05220%)
MG Correction to account for finite box:                  0.473711
[...]
MG Correction to account for finite box:                  0.006450
MG Remaining discrepancy, due to discretization:         -0.181207 (  -0.01492%)
     Trial step:       0.329479176425
             Q1:  -11732.991818379378
 Quadratic coef:       0.000000001663
 Linear coef   :      -0.000000001779
           Qmin:  -11732.991818379738
Quadratic minimum step length (  0.176281832817) accepted
    Initial Ne1:    7228.00000000
      Final Ne1:    7228.00000000

=================== Penalty functional idempotency correction ==================
 RMS occupancy error at iteration   1:  0.000000 (step -0.5000 Ne1=   7228.0000)
            Final RMS occupancy error   :  0.000000 (Ne1=   7228.0000)
               Final occupancy bounds   : [  0.0000,  1.0000]
================================================================================

    7        -1.173299181838E+04     1.1237E-08     1.0166E-08    -6.9849E-10

Reusing previously generated solute cavity.
MG BCs: +ve charge blocks (gridpoints):     28969 (   19163324).
MG BCs: -ve charge blocks (gridpoints):      8511 (    1057428).
MG BCs:     Elided blocks (gridpoints):    164945 (  170749873).
MG BCs: Computational effort saved:  99.9804%.
MG BCs: Charge after coarse-graining:           -9.0009418.
MG DL_MG: Calling solver with defect correction order = 8
MG DL_MG: Solver finished
MG Hartree energy from (\int phi*rho dr):              1214.900592
MG Hartree energy from (\int eps (grad phi)^2 dr):     1214.712935
MG Discrepancy due to finite box and discretization:     -0.187657 (  -0.01545%)
MG Correction to account for finite box:                  0.006450
MG Remaining discrepancy, due to discretization:         -0.181207 (  -0.01492%)
      ideal mu1:      -0.481668903124
             Q0:  -11732.991818379494
             G0:      -0.000000004616
   RMS gradient:       0.000000008015

Reusing previously generated solute cavity.
MG BCs: +ve charge blocks (gridpoints):     28969 (   19163323).
MG BCs: -ve charge blocks (gridpoints):      8511 (    1057428).
MG BCs:     Elided blocks (gridpoints):    164945 (  170749874).
MG BCs: Computational effort saved:  99.9804%.
MG BCs: Charge after coarse-graining:           -9.0009418.
MG DL_MG: Calling solver with defect correction order = 8
MG DL_MG: Solver finished
MG Hartree energy from (\int phi*rho dr):              1214.900599
MG Hartree energy from (\int eps (grad phi)^2 dr):     1214.712942
MG Discrepancy due to finite box and discretization:     -0.187657 (  -0.01545%)
MG Correction to account for finite box:                  0.006450
MG Remaining discrepancy, due to discretization:         -0.181207 (  -0.01492%)
     Trial step:       0.241000400612
             Q1:  -11732.991818379145
 Quadratic coef:       0.000000001462
 Linear coef   :      -0.000000001112
           Qmin:  -11732.991818379705
Quadratic minimum step length (  0.091653302695) accepted
    Initial Ne1:    7228.00000000
      Final Ne1:    7228.00000000

=================== Penalty functional idempotency correction ==================
 RMS occupancy error at iteration   1:  0.000000 (step -0.5000 Ne1=   7228.0000)
            Final RMS occupancy error   :  0.000000 (Ne1=   7228.0000)
               Final occupancy bounds   : [ -0.0000,  1.0000]
================================================================================

    8        -1.173299181838E+04     8.0148E-09     7.2508E-09    -2.3283E-10

Reusing previously generated solute cavity.
MG BCs: +ve charge blocks (gridpoints):     28969 (   19163324).
MG BCs: -ve charge blocks (gridpoints):      8511 (    1057428).
MG BCs:     Elided blocks (gridpoints):    164945 (  170749873).
MG BCs: Computational effort saved:  99.9804%.
MG BCs: Charge after coarse-graining:           -9.0009418.
MG DL_MG: Calling solver with defect correction order = 8
MG DL_MG: Solver finished
MG Hartree energy from (\int phi*rho dr):              1214.900594
MG Hartree energy from (\int eps (grad phi)^2 dr):     1214.712938
MG Discrepancy due to finite box and discretization:     -0.187657 (  -0.01545%)
MG Correction to account for finite box:                  0.006450
MG Remaining discrepancy, due to discretization:         -0.181207 (  -0.01492%)
      ideal mu1:      -0.481668903472
             Q0:  -11732.991818379378
             G0:      -0.000000004313
   RMS gradient:       0.000000006608

Reusing previously generated solute cavity.
MG BCs: +ve charge blocks (gridpoints):     28969 (   19163323).
MG BCs: -ve charge blocks (gridpoints):      8511 (    1057428).
MG BCs:     Elided blocks (gridpoints):    164945 (  170749874).
MG BCs: Computational effort saved:  99.9804%.
MG BCs: Charge after coarse-graining:           -9.0009418.
MG DL_MG: Calling solver with defect correction order = 8
MG DL_MG: Solver finished
MG Hartree energy from (\int phi*rho dr):              1214.900598
MG Hartree energy from (\int eps (grad phi)^2 dr):     1214.712942
MG Discrepancy due to finite box and discretization:     -0.187657 (  -0.01545%)
MG Correction to account for finite box:                  0.006450
MG Remaining discrepancy, due to discretization:         -0.181207 (  -0.01492%)
     Trial step:       0.148621945442
             Q1:  -11732.991818379145
 Quadratic coef:       0.000000000873
 Linear coef   :      -0.000000000641
           Qmin:  -11732.991818379496
Quadratic minimum step length (  0.054551971215) accepted
    Initial Ne1:    7228.00000000
      Final Ne1:    7228.00000000

=================== Penalty functional idempotency correction ==================
 RMS occupancy error at iteration   1:  0.000000 (step -0.5000 Ne1=   7228.0000)
            Final RMS occupancy error   :  0.000000 (Ne1=   7228.0000)
               Final occupancy bounds   : [  0.0000,  1.0000]
================================================================================

    9        -1.173299181838E+04     6.6082E-09     5.9783E-09     1.1642E-10

Reusing previously generated solute cavity.
MG BCs: +ve charge blocks (gridpoints):     28969 (   19163324).
MG BCs: -ve charge blocks (gridpoints):      8511 (    1057428).
MG BCs:     Elided blocks (gridpoints):    164945 (  170749873).
MG BCs: Computational effort saved:  99.9804%.
MG BCs: Charge after coarse-graining:           -9.0009418.
MG DL_MG: Calling solver with defect correction order = 8
MG DL_MG: Solver finished
MG Hartree energy from (\int phi*rho dr):              1214.900596
MG Hartree energy from (\int eps (grad phi)^2 dr):     1214.712939
MG Discrepancy due to finite box and discretization:     -0.187657 (  -0.01545%)
MG Correction to account for finite box:                  0.006450
MG Remaining discrepancy, due to discretization:         -0.181207 (  -0.01492%)
      ideal mu1:      -0.481668902914
   10        -1.173299181838E+04     5.8619E-09     5.3032E-09     1.1642E-10
Finished density kernel iterations (  10)

Writing density kernel to file "complex_34681.dkn" ... done


>>> Density kernel optimised for the current NGWF basis:
     ~~~~~~~~~~~~~~~~~~~~~~~~~~~~~~~~~~~~~~~~~~~~~~~~~~~~~~~~~~~
     Total energy                =  -1.17329918183793E+04  Eh
     Estimated bandgap           =   8.4890E-02  Eh
     RMS occupancy error         =   4.8047E-16
     [H,K] commutator            =   5.3032E-09
     Occupancy bounds            = [  0.000:  1.000]
     ~~~~~~~~~~~~~~~~~~~~~~~~~~~~~~~~~~~~~~~~~~~~~~~~~~~~~~~~~~~




################################################################################
########################### NGWF CG iteration  005 #############################
################################################################################
****** Reciprocal space K.E. preconditioning with k_zero =  3.5000 a0^-1 *******

>>> Checking for convergence of NGWFs: 
           ........................................................
           |         *** NGWF optimisation converged ***          |
           | RMS NGWF gradient =    0.00000088990523              |
           | Criteria satisfied:                                  |
           | -> RMS NGWF gradient lower than set threshold.       |
           ========================================================

Reusing previously generated solute cavity.
MG BCs: +ve charge blocks (gridpoints):     28969 (   19163324).
MG BCs: -ve charge blocks (gridpoints):      8511 (    1057428).
MG BCs:     Elided blocks (gridpoints):    164945 (  170749873).
MG BCs: Computational effort saved:  99.9804%.
MG BCs: Charge after coarse-graining:           -9.0009418.
MG DL_MG: Calling solver with defect correction order = 8
MG DL_MG: Solver finished
MG Hartree energy from (\int phi*rho dr):              1214.900596
MG Hartree energy from (\int eps (grad phi)^2 dr):     1214.712939
MG Discrepancy due to finite box and discretization:     -0.187657 (  -0.01545%)
MG Correction to account for finite box:                  0.006450
MG Remaining discrepancy, due to discretization:         -0.181207 (  -0.01492%)

================================================================================
           ---------------- ENERGY COMPONENTS (Eh) ----------------
           | Kinetic                    :     8570.71112833495135 |
           | Pseudo. (local,OBC,corr'd) :    -5074.08764672865891 |
           | Pseudopotential (non-local):     1409.96875333082244 |
           | Hartree (molecular)        :     1214.90059581220453 |
           | Exchange-correlation       :    -3374.10614267529627 |
           | Ion-ion (open BC)          :   837210.92190537182614 |
           | Dispersion Correction      :       -3.27344122953940 |
           | Smeared ion non-self corr. :  -837162.69445053394884 |
           | Smeared ion self corr.     :   -14525.98710726666468 |
           | Solvent cavitation energy  :        2.32887024806061 |
           | Solute-solvent dis-rep en. :       -1.67428304308697 |
           | Total                      :   -11732.99181837926335 |
           --------------------------------------------------------
           ------ LOCAL ENERGY COMPONENTS FROM MATRIX TRACES ------
           | Pseudopotential (local)    :    -5074.08764672865436 |
           | Hartree                    :    -2002.67781708280268 |
           --------------------------------------------------------
           Integrated density           :     7227.99999999896681
           Integrated density tr(KS)    :     7228.00000000000000
================================================================================


                        <<<<< CALCULATION SUMMARY >>>>>                         
|ITER|    RMS GRADIENT   |     TOTAL ENERGY    |   step   |     Epredicted              
   0     0.00004004937179 -11732.92843034060206   0.621800 -11732.98317427868460        
   1     0.00000998145726 -11732.99122862087097   0.089464 -11732.99171787210435        
   2     0.00000444596828 -11732.99179683090188   0.016650 -11732.99181489604598        
   3     0.00000200266133 -11732.99181748251431   0.003430 -11732.99181823763865        
   4     0.00000088990523 -11732.99181837926153  <-- CG                                 

=================== Finished the calculation in solvent ========================
= Adjusting the following parameters: 
= read_denskern: F
= read_tightbox_ngwfs: F
= maxit_pen: 0 (restored to user-specified value)
= restart read filename prefix: ""
= restart write filename prefix: ""
================================================================================

================================================================================
IS: Calculation in solvent completed (NGWFs converged).      

Individual components of total energy in solvent:     hartree           kcal/mol
- Usual non-electrostatic DFT terms:    -12948.54700139644046    -8125335.742448
- Electrostatic fixed charge energy:      1214.90059581220453      762361.617378
- Apolar cavitation energy:                  2.32887024806061        1461.388113
- Apolar dispersion-repulsion energy:       -1.67428304308697       -1050.628449
 -------------------------------------------------------------------------------
- Total energy in solvent:              -11732.99181837926153    -7362563.365406

Components of total energy in solvent:                hartree           kcal/mol
- Usual non-electrostatic DFT terms:    -12948.54700139644046    -8125335.742448
- Electrostatic energy:                   1214.90059581220453      762361.617378
- Apolar energy terms:                       0.65458720497364         410.759664
 -------------------------------------------------------------------------------
- Total energy in solvent:              -11732.99181837926153    -7362563.365406

Calculation of free energy of solvation:              hartree           kcal/mol
- Total energy in solvent:         (+)  -11732.99181837926153    -7362563.365406
- Total energy in vacuum:          (-)  -11729.10077767434996    -7360121.700553
 -------------------------------------------------------------------------------
- Total free energy of solvation:           -3.89104070491157       -2441.664853

Components of polar term in f.e. of solvation:        hartree           kcal/mol
- Electrostatic:                            -4.66004195124833       -2924.220410
- Change in nonelectrostatic DFT terms:      0.11441404136167          71.795893
 -------------------------------------------------------------------------------
- Polar term in f.e. of solvation:          -4.54562790988666       -2852.424517

Components of free energy of solvation:               hartree           kcal/mol
- Polar term in f.e. of solvation: (+)      -4.54562790988666       -2852.424517
- Apolar (cavitation, dis., rep.): (+)       0.65458720497364         410.759664
 -------------------------------------------------------------------------------
- Total free energy of solvation:           -3.89104070491303       -2441.664853
================================================================================


------------------------------ TIMING INFORMATION ------------------------------
AVERAGE TIME:   33608.804s on     60 node(s)                                    
TOTAL TIME:     33608.805s on     60 node(s)                                    
================= AVERAGE TIMINGS FROM ALL NODES (CUMULATIVE) ==================
|| TAG                                    #calls    cpu time   %total  Gflops ||
|| work_imbalance                       :     1        0.00s   0.000%  ------ ||
|| sparse_set_to_garbage                :   194        0.03s   0.000%  ------ ||
|| parallel_prepare_fd_halos_request    :  2073        0.03s   0.000%  ------ ||
|| ngwfs_initialise_from_radial         :     1        0.10s   0.000%  ------ ||
|| basis_extract_function_from_box      :  3814        0.17s   0.001%  ------ ||
|| parallel_prepare_fd_halos_satisfy    :  2073        0.75s   0.002%  ------ ||
|| parallel_prepare_fd_halos_alloc      :  2073        2.08s   0.006%  ------ ||
|| pseudopotentials_nonlocal_mat        :    33        2.29s   0.007%  ------ ||
|| openbc_locps_radial                  :     1        4.59s   0.014%  ------ ||
|| density_init_guess_real              :     1        5.06s   0.015%  ------ ||
|| restart_kernel_read                  :     1        5.74s   0.017%  ------ ||
|| restart_ngwfs_tightbox_input         :     1        7.02s   0.021%  ------ ||
|| parallel_prepare_fd_halos_comms_imbal:  2073       10.60s   0.032%  ------ ||
|| parallel_prepare_fd_halos_clear      :  2073       21.84s   0.065%  ------ ||
|| sparse_init                          :     2       23.18s   0.069%  ------ ||
|| parallel_prepare_fd_halos_comms_wait :  2073       29.73s   0.088%  ------ ||
|| projectors_func_ovlp_box             :    33       29.80s   0.089%  ------ ||
|| function_ops_brappd_ketppd           :    33       33.71s   0.100%  ------ ||
|| palser_mano_kernel_optimise          :     1       33.71s   0.100%  ------ ||
|| projectors_init_fftbox_recip         :   152       37.16s   0.111%  ------ ||
|| basis_copy_function_to_box           : 62229       47.14s   0.140%  ------ ||
|| ngwf_gradient_coeffs                 :    17       50.83s   0.151%  ------ ||
|| pseudo_make_structure_factor         :     2       53.05s   0.158%  ------ ||
|| fourier_apply_box_pair               :  5519       57.88s   0.172% 588.100 ||
|| parallel_prepare_fd_halos            :  2073       65.06s   0.194%  ------ ||
|| sparse_embed_hotelling_invert_embed  :    33       81.54s   0.243%  ------ ||
|| restart_kernel_write                 :    18      107.55s   0.320%  ------ ||
|| finite_difference_derivative         :  2073      152.36s   0.453%  ------ ||
|| integrals_kinetic                    :    33      167.85s   0.499%  ------ ||
|| projectors_gradient_batch            :   119      168.86s   0.502%  ------ ||
|| fourier_apply_cell_backward          :  1383      191.18s   0.569%  97.149 ||
|| basis_dot_function_with_box          : 9.501M     192.21s   0.572%  ------ ||
|| sparse_trace                         :  5656      217.89s   0.648%  ------ ||
|| fourier_apply_cell_forward           :  1381      250.38s   0.745%  74.070 ||
|| openbc_locps_on_grid                 :     2      261.85s   0.779%  ------ ||
|| kernel_purify                        :   527      307.84s   0.916%  ------ ||
|| lnv_gradient_norm                    :   170      438.03s   1.303%  ------ ||
|| basis_add_function_to_box            : 19.84M     461.47s   1.373%  ------ ||
|| hamiltonian_energy_components        :     4      502.41s   1.495%  ------ ||
|| xc_energy_potential                  :   345      511.04s   1.521%  ------ ||
|| kernel_fix                           :   170      542.62s   1.615%  ------ ||
|| integrals_locpot_mat_els_batch       :  1253      804.91s   2.395%  ------ ||
|| ngwf_gradient_build_batch            :   119      864.59s   2.573%  ------ ||
|| restart_ngwfs_tightbox_output        :    15     1009.15s   3.003%  ------ ||
|| density_batch_row_sums               :  2408     1181.66s   3.516%  ------ ||
|| ngwf_gradient_batch                  :   119     1203.16s   3.580%  ------ ||
|| ngwf_gradient_lnv                    :    17     1366.60s   4.066%  ------ ||
|| cell_grid_deposit_box_real           : 39612     1567.32s   4.663%  ------ ||
|| cell_grid_extract_box_real           : 43278     1757.73s   5.230%  ------ ||
|| sparse_product                       :  7097     1920.93s   5.716%  ------ ||
|| density_fftbox_deposit_to_cell       : 37496     2396.01s   7.129%  ------ ||
|| density_fftbox_interpolate_multiply  : 37496     4081.78s  12.145%  ------ ||
|| potential_apply_to_ngwf_batch        :  1253     4212.68s  12.534%  ------ ||
|| multigrid_prepare_bound_cond         :   345     4819.17s  14.339%  ------ ||
|| fourier_apply_box                    : 129.9k    5010.06s  14.907% 774.397 ||
|| integrals_locpot_dbl_grid            :   179     5040.81s  14.998%  ------ ||
|| density_batch_interp_deposit         :  2408     7604.73s  22.627%  ------ ||
|| dl_mg_solver_calls                   :   345     7682.71s  22.859%  ------ ||
|| density_on_dbl_grid                  :   344     9221.77s  27.439%  ------ ||
|| multigrid_calculate_hartree          :   345    12716.94s  37.838%  ------ ||
|| hamiltonian_lhxc_calculate           :   340    22395.69s  66.636%  ------ ||
|| lnv_denskernel_optimise_cg           :    17    28270.96s  84.118%  ------ ||
|| ngwf_cg_optimise                     :     2    32647.18s  97.139%  ------ ||
|| total_time                           :     1    33608.80s 100.000%  ------ ||
================================================================================
Overhead of generating timer report: 
- 0 ms averaging over threads,
- 15 ms ensuring consistency across MPI ranks,
- 0 ms printing in order.

Job completed: 29-03-2020 00:05 (-0000)

Application 39988256 resources: utime ~7054188s, stime ~235891s, Rss ~3788584, inblocks ~327881370, outblocks ~72625398
