 +---------------------------------------------------------------+
 |                                                               |
 |        ####### #     # ####### ####### ####### ######         |
 |        #     # ##    # #          #    #       #     #        |
 |        #     # # #   # #          #    #       #     #        |
 |        #     # #  #  # #####      #    #####   ######         |
 |        #     # #   # # #          #    #       #              |
 |        #     # #    ## #          #    #       #              |
 |        ####### #     # #######    #    ####### #              |
 |                                                               |
 |        Linear-Scaling Ab Initio Total Energy Program          |
 |                                                               |
 |          Release for academic collaborators of ODG            |
 |                                             Version 5.3.2.6.  |
 |                                                               |
 +---------------------------------------------------------------+
 |                                                               |
 |  Authors:                                                     |
 |  Jacek Dziedzic, Peter D. Haynes, Nicholas D. M. Hine,        |
 |  Arash. A. Mostofi, Mike C. Payne and Chris-Kriton Skylaris   |
 |                                                               |
 |  Contributors:                                                |
 |  J. Aarons, L. Andrinopoulos, P. W. Avraam, R. A. Bell,       |
 |  A. Bhandari, G. A. Bramley, R. J. Charlton, S. J. Clark,     |
 |  R. J. Clements, G. C. Constantinescu, F. Corsetti,           |
 |  N. Corsini, O. Dieguez, S. M. M. Dubois, K. K. B. Duff,      |
 |  J. M. Escartin, A. Greco, H. Helal, Q. O. Hill, L. P. Lee,   |
 |  J.-H. Li, E. B. Linscott, G. Moynihan, D. D. O`Regan,        |
 |  O. K. Okan, M. J. S. Phipps, C. J. Pickard,                  |
 |  J. C. A. Prentice, M. I. J. Probert, L. E. Ratcliff,         |
 |  M. Robinson, A. Ruiz Serrano, J. S. Spencer, E. W. Tait,     |
 |  G. Teobaldi, D. Turban, V. Vitale, K. A. Wilkinson,          |
 |  C. Weber, J. C. Womack, N. Yeung and T. J. Zuehlsdorff       |
 |                                                               |
 |                                   Copyright (c) 2004-2019     |
 |                                                               |
 |  Please cite:                                                 |
 |  "Introducing ONETEP: Linear-scaling density functional       |
 |   simulations on parallel computers".                         |
 |   C.-K. Skylaris, P. D. Haynes, A. A. Mostofi, M. C. Payne.   |
 |   J. Chem. Phys. 122 084119 (2005).                           |
 |                                                               |
 |          in all publications arising from your use of ONETEP. |
 |                                                               |
 +---------------------------------------------------------------+
 |                                                               |
 |   ONETEP is based on developments described in the following  |
 |   publications:                                               |
 |                                                               |
 |  "Nonorthogonal generalized Wannier function pseudopotential  |
 |   plane-wave method".                                         |
 |   C.-K. Skylaris, A. A. Mostofi, P. D. Haynes, O. Dieguez,    |
 |   M. C. Payne.                                                |
 |   Phys. Rev. B 66 035119 (2002).                              |
 |                                                               |
 |  "Preconditioned iterative minimization for linear-scaling    |
 |   electronic structure calculations".                         |
 |   A. A. Mostofi, P. D. Haynes, C.-K. Skylaris, M. C. Payne.   |
 |   J. Chem. Phys. 119(17), pp.8842-8848 (2003).                |
 |                                                               |
 |  "Total-energy calculations on a real space grid with         |
 |   localized functions and a plane-wave basis".                |
 |   A. A. Mostofi, C.-K. Skylaris, P. D. Haynes, M. C. Payne.   |
 |   Comput. Phys. Commun. 147, pp.788-802 (2002).               |
 |                                                               |
 |  "Accurate kinetic energy evaluation in electronic structure  |
 |   calculations with localized functions on real space grids"  |
 |   C.-K. Skylaris, A. A. Mostofi, P. D. Haynes, C. J. Pickard, |
 |   M. C. Payne.                                                |
 |   Comput. Phys. Commun. 140, pp.315-322 (2001).               |
 |                                                               |
 |  "Accurate ionic forces and geometry optimization in linear-  |
 |   scaling density-functional theory with local orbitals"      |
 |   N. D. M. Hine, M. Robinson, P. D. Haynes, C.-K. Skylaris,   |
 |   M. C. Payne, and A. A. Mostofi.                             |
 |   Phys. Rev. B 83 195102 (2011).                              |
 |                                                               |
 +---------------------------------------------------------------+

Job started: 11-06-2020 08:09 (+0100)
 
Reading parameters from file "complex_3141.dat" ...... done

If your calculation crashes here, before "Checking processes and threads..."
is displayed, then your stack size is insufficient.
If so, use "ulimit -s unlimited" at runtime.
You can disable this check with "check_stack_size F".

Checking processes and threads...
   Determining the default number of threads...
      No default threads set at compilation time: defaulting to 1.
      OpenMP library call suggests 4 threads.
      Hybrid MPI-OpenMP compilation detected.
      Number of MPI processes > 1.
      OMP_NUM_THREADS environment variable present and
      its value matches the one obtained from the OpenMP library call.
      Using this value as default.
      Default threads: 4
      Default applies to threads_max and threads_num_fftboxes.
      Settings in the input file override this default.
   ... done

   Running with 60 MPI processes.
   There are 6 MPI processes running on the same node as the root process.
   Each MPI process is using: 
               1 threads for simulation cell FFTs.
               1 threads for parallel FFT box operations.
               4 threads for loops over batched FFT box operations.
               4 threads in other parallel regions.
... done

Basic input checks...... done

Reading geometry and species blocks from file "complex_3141.dat" ...
  <species_atomic_set> block not found: NGWF initialisation set to SOLVE
IS: Dielectric excluded regions:
    - NONE.
    
  Number of PPD points along a3 set to 1.  This is 
  the default value, it may have been provided also in the input file.
... done
 Writing xyz coordinates to file "complex_3141.xyz" ... done


--------------------------------------------------------------------------------
---------------------------------- INPUT FILE ----------------------------------
--------------------------------------------------------------------------------

cutoff_energy       : 800 eV                                                    
xc_functional PBE                                                               
task SINGLEPOINT                                                                
write_xyz true                                                                  
output_detail VERBOSE                                                           
ngwf_threshold_orig : 0.000002                                                  
kernel_cutoff       : 1000                                                      
k_zero              : 3.5                                                       
elec_cg_max 0                                                                   
occ_mix 1.0                                                                     
dispersion 1                                                                    
maxit_ngwf_cg 40                                                                
minit_lnv 10                                                                    
maxit_lnv 10                                                                    
write_denskern T                                                                
write_tightbox_ngwfs T                                                          
charge 9                                                                        
is_implicit_solvent T                                                           
is_auto_solvation T                                                             
is_include_apolar T                                                             
is_smeared_ion_rep T                                                            
is_solvent_surf_tension 4.7624E-5 Ha/bohr**2                                    
is_apolar_scaling_factor 0.281075                                               
is_solvation_beta 1.3                                                           
is_density_threshold 0.00035                                                    
is_bulk_permittivity 78.54                                                      
is_dielectric_model fix_initial                                                 
is_smeared_ion_width 0.8                                                        
mg_defco_fd_order 8                                                             
is_bc_coarseness 10                                                             
is_bc_surface_coarseness 1                                                      
fine_grid_scale 2.0                                                             
%block species                                                                  
N   N   7 4 8.0                                                                 
H   H   1 1 8.0                                                                 
C   C   6 4 8.0                                                                 
S   S  16 9 8.0                                                                 
O   O   8 4 8.0                                                                 
%endblock species                                                               
%block species_pot                                                              
N   N_00.recpot                                                                 
H   H_04.recpot                                                                 
C   C_01.recpot                                                                 
S   S_00.recpot                                                                 
O   O_02.recpot                                                                 
%endblock species_pot                                                           
%block lattice_cart                                                             
135.996   0.000   0.000                                                         
0.000 142.663   0.000                                                           
0.000   0.000   160.158                                                         
%endblock lattice_cart                                                          
%block positions_abs                                                            
     Hash =  -000007633830141007728888
%endblock positions_abs                                                         

--------------------------------------------------------------------------------
-------------------------------- END INPUT FILE --------------------------------
--------------------------------------------------------------------------------


 
 ESDF WARNING(1): "kernelcutoff" (esdf_physical) has no units. Assume "bohr".
 ESDF WARNING(2): "kzero" (esdf_physical) has no units. Assume "1/bohr".
 ESDF WARNING(3
 ): "issmearedionwidth" (esdf_physical) has no units. Assume "bohr".
<<<<<<<<<<<<<<<<<<<<<<<<<<<<<<<<< Full system >>>>>>>>>>>>>>>>>>>>>>>>>>>>>>>>>>
<<<<<<<<<<<<<<<<<<<<<<<<< Pseudopotential information >>>>>>>>>>>>>>>>>>>>>>>>>>
File: N_00.recpot [ 2001 points up to Gmax=  52.9 (1/bohr)]
  Atomic number:  7;  ionic charge:  5.000000
    Shell 1: l = 0; rc = 1.48 bohr
File: H_04.recpot [ 2001 points up to Gmax=  52.9 (1/bohr)]
  Atomic number:  1;  ionic charge:  1.000000
    Local potential
File: C_01.recpot [ 2001 points up to Gmax=  52.9 (1/bohr)]
  Atomic number:  6;  ionic charge:  4.000000
    Shell 1: l = 0; rc = 1.48 bohr
File: S_00.recpot [ 2001 points up to Gmax=  52.9 (1/bohr)]
  Atomic number: 16;  ionic charge:  6.000000
    Shell 1: l = 0; rc = 1.90 bohr
    Shell 2: l = 2; rc = 1.84 bohr
File: O_02.recpot [ 2001 points up to Gmax=  52.9 (1/bohr)]
  Atomic number:  8;  ionic charge:  6.000000
    Shell 1: l = 0; rc = 1.31 bohr
<<<<<<<<<<<<<<<<<<<<<<<<<<<<<<<<<<<<<<<<>>>>>>>>>>>>>>>>>>>>>>>>>>>>>>>>>>>>>>>>

-------------------------- Atom counting information ---------------------------
Symbol    Natoms    Nngwfs    Nprojs
  N        236       944       236
  H       1317      1317         0
  C        816      3264       816
  S          6        54        36
  O        240       960       240
.......   ......    ......    ......
Totals:   2615      6539      1328
--------------------------------------------------------------------------------

=============================== PSINC grid sizes ===============================
                      Simulation cell:  270 x 286 x 315
                              FFT-box:   99 x 105 x  99
                                  PPD:    5 x  11 x   1
Grid space d1=  0.503688888889a0 (KE cutoff=  29.94189Eh = 814.76038eV)
Grid space d2=  0.498821678322a0 (KE cutoff=  30.52906Eh = 830.73786eV)
Grid space d3=  0.508438095238a0 (KE cutoff=  29.38514Eh = 799.61048eV)
================================================================================

********************* Fourier parallelisation information **********************
       Coarse grid (whole simulation cell) dimensions:    270   286   315
          Real-space ('12') slabs/node (min max mean):      5     6     5
         Recip-space ('23') slabs/node (min max mean):      2     3     2
********************************************************************************

********************* Fourier parallelisation information **********************
       Double grid (whole simulation cell) dimensions:    540   572   630
          Real-space ('12') slabs/node (min max mean):     10    11    10
         Recip-space ('23') slabs/node (min max mean):      4     5     4
********************************************************************************
ONETEP fine grid is 540 x 572 x 630 gridpoints, 135.9960 x 142.6630 x 160.1580 bohr.
FD multigrid is     537 x 569 x 625 gridpoints, 135.2405 x 141.9148 x 158.8869 bohr.


Calculating local pseudopotential in open BC on a radial grid ...
Discrepancy between calculated realspace psloc and -Z/x on [5a0,253.965a0]:
max |rel. diff| # avg |rel. diff| #  avg rel. diff #  f # pseudopotential file
 0.000259282084    0.000004141996   0.000000074978   54  'N_00.recpot'
 0.000405386992    0.000016970607  -0.000000075982   54  'H_04.recpot'
 0.000371694516    0.000017434762   0.000000149329   54  'C_01.recpot'
 0.000461642895    0.000020341726   0.000000491514   54  'S_00.recpot'
 0.000682525123    0.000027368244   0.000000159803   54  'O_02.recpot'
... done

Atom SCF Calculation for N  : Z (AE atom) =   7 : Z (PS atom) =   5
Config String:
Orbitals (num,occ):  2     2.00 3.00
Orbitals   (num,l):  2        0    1
Real-space Grid (nr,dr,rmax): 1203    0.0066555740    8.0000000000
Spherical Bessel Basis (nsws,lmax,cutoff):   47    1  176.3951722778
Confining potential (l,width,scale):  0    3.0000000000  100.0000000000
Confining potential (l,width,scale):  1    3.0000000000  100.0000000000
  1         -4.7312375307   -3.4155304497    7.0523828109   -1.9351020946
  2         -9.7309464766   -2.0532547791    8.2966052865   -2.2494486027
  3         -9.6627394379   -2.1124926340    8.2327997121   -2.2369778124
  4         -9.6814993499   -2.1215521045    8.2229805960   -2.2365178421
  5         -9.6843326483   -2.1250939529    8.2191374534   -2.2362718126
  6         -9.6859628709   -2.1267894855    8.2172963573   -2.2362066344
  7         -9.6867347035   -2.1276425665    8.2163697352   -2.2361903369
  8         -9.6870802100   -2.1280764625    8.2158983890   -2.2361891460
  9         -9.6872290423   -2.1282977424    8.2156580222   -2.2361920435
 10         -9.6872901988   -2.1284107021    8.2155353368   -2.2361953393
 11         -9.6873135296   -2.1284684031    8.2154726809   -2.2361979819
 12         -9.6873212476   -2.1284978948    8.2154406648   -2.2361998431
 13         -9.6873229586   -2.1285129774    8.2154242957   -2.2362010676
 14         -9.6873226456   -2.1285206957    8.2154159216   -2.2362018403
 15         -9.6873218534   -2.1285246479    8.2154116349   -2.2362023142
 16         -9.6873212599   -2.1285262679    8.2154098784   -2.2362025420
 17         -9.6873207834   -2.1285272564    8.2154088068   -2.2362026955
 18         -9.6873204210   -2.1285278596    8.2154081529   -2.2362027982
 19         -9.6873201550   -2.1285282280    8.2154077538   -2.2362028667
 20         -9.6873199645   -2.1285284529    8.2154075102   -2.2362029121
 21         -9.6873198305   -2.1285285903    8.2154073614   -2.2362029421
 22         -9.6873197377   -2.1285286742    8.2154072705   -2.2362029618
Atom SCF converged after  22 iterations to a total energy of     -9.68731974

Atom SCF Calculation for H  : Z (AE atom) =   1 : Z (PS atom) =   1
Config String:
Orbitals (num,occ):  1     1.00
Orbitals   (num,l):  1        0
Real-space Grid (nr,dr,rmax): 1203    0.0066555740    8.0000000000
Spherical Bessel Basis (nsws,lmax,cutoff):   47    0  176.3951722778
Confining potential (l,width,scale):  0    3.0000000000  100.0000000000
  1         -0.3194257691   -0.2393854593    0.2820953124   -0.2424203209
  2         -0.3951823392   -0.2377116493    0.2886404059   -0.2475147891
  3         -0.4317044583   -0.2352244387    0.2921333887   -0.2514046172
  4         -0.4470703708   -0.2341892222    0.2934391879   -0.2531009782
  5         -0.4532132900   -0.2338556667    0.2938388426   -0.2537313520
  6         -0.4556579251   -0.2337612552    0.2939448584   -0.2539550462
  7         -0.4566418315   -0.2337377355    0.2939680120   -0.2540342273
  8         -0.4570437922   -0.2337331116    0.2939708287   -0.2540627372
  9         -0.4572102946   -0.2337328328    0.2939698291   -0.2540732650
 10         -0.4572800424   -0.2337332404    0.2939687193   -0.2540772588
 11         -0.4573095100   -0.2337335791    0.2939680317   -0.2540788122
 12         -0.4573220379   -0.2337337762    0.2939676699   -0.2540794294
 13         -0.4573273880   -0.2337338775    0.2939674931   -0.2540796787
 14         -0.4573296803   -0.2337339266    0.2939674099   -0.2540797808
 15         -0.4573306647   -0.2337339495    0.2939673718   -0.2540798230
 16         -0.4573310882   -0.2337339601    0.2939673545   -0.2540798406
 17         -0.4573312706   -0.2337339649    0.2939673467   -0.2540798479
 18         -0.4573313493   -0.2337339670    0.2939673433   -0.2540798510
Atom SCF converged after  18 iterations to a total energy of     -0.45733135

Atom SCF Calculation for C  : Z (AE atom) =   6 : Z (PS atom) =   4
Config String:
Orbitals (num,occ):  2     2.00 2.00
Orbitals   (num,l):  2        0    1
Real-space Grid (nr,dr,rmax): 1203    0.0066555740    8.0000000000
Spherical Bessel Basis (nsws,lmax,cutoff):   47    1  176.3951722778
Confining potential (l,width,scale):  0    3.0000000000  100.0000000000
Confining potential (l,width,scale):  1    3.0000000000  100.0000000000
  1         -5.2976922011   -1.3069684169    4.5135249990   -1.4493313817
  2         -5.3721716256   -1.3429755895    4.4750154450   -1.4361613026
  3         -5.3809959565   -1.3617365618    4.4541655428   -1.4305930207
  4         -5.3918938866   -1.3667928461    4.4484735100   -1.4294652294
  5         -5.3956096428   -1.3688539142    4.4461376126   -1.4290734646
  6         -5.3968271862   -1.3696852393    4.4451910874   -1.4289366866
  7         -5.3972028401   -1.3700178062    4.4448112275   -1.4288900460
  8         -5.3973067903   -1.3701500158    4.4446598370   -1.4288749220
  9         -5.3973286940   -1.3702023868    4.4445997329   -1.4288704293
 10         -5.3973289850   -1.3702230869    4.4445759233   -1.4288693188
 11         -5.3973254264   -1.3702312560    4.4445665049   -1.4288691775
 12         -5.3973224003   -1.3702344755    4.4445627836   -1.4288692549
 13         -5.3973208708   -1.3702354890    4.4445616088   -1.4288693270
 14         -5.3973198783   -1.3702360102    4.4445610034   -1.4288693814
 15         -5.3973192535   -1.3702362780    4.4445606917   -1.4288694190
 16         -5.3973188684   -1.3702364155    4.4445605313   -1.4288694437
 17         -5.3973186349   -1.3702364860    4.4445604489   -1.4288694595
 18         -5.3973184951   -1.3702365221    4.4445604065   -1.4288694693
 19         -5.3973184122   -1.3702365405    4.4445603848   -1.4288694753
Atom SCF converged after  19 iterations to a total energy of     -5.39731841

Atom SCF Calculation for S  : Z (AE atom) =  16 : Z (PS atom) =   6
Config String:
Orbitals (num,occ):  3     2.00 4.00 0.00
Orbitals   (num,l):  3        0    1    2
Real-space Grid (nr,dr,rmax): 1203    0.0066555740    8.0000000000
Spherical Bessel Basis (nsws,lmax,cutoff):   47    2  176.3951722778
Confining potential (l,width,scale):  0    3.0000000000  100.0000000000
Confining potential (l,width,scale):  1    3.0000000000  100.0000000000
Confining potential (l,width,scale):  2    3.0000000000  100.0000000000
  1        -12.4735062396   -1.0328741412   10.1554312477   -2.4512393157
  2         -9.9458301913   -2.4607392455    8.3041325857   -2.0306994528
  3        -10.1450417646   -2.2931184565    8.4831893826   -2.0812538287
  4        -10.1528335592   -2.2733105793    8.5050388867   -2.0896035179
  5        -10.1571940363   -2.2633716629    8.5160794258   -2.0939370707
  6        -10.1594380571   -2.2584938667    8.5215163935   -2.0961289008
  7        -10.1605856507   -2.2561081821    8.5241804044   -2.0972291378
  8        -10.1611799191   -2.2549395235    8.5254868240   -2.0977806248
  9        -10.1614918752   -2.2543658586    8.5261285885   -2.0980571586
 10        -10.1616572884   -2.2540839121    8.5264441898   -2.0981959233
 11        -10.1617455602   -2.2539453058    8.5265994231   -2.0982656006
 12        -10.1617928447   -2.2538772062    8.5266757320   -2.0983006047
 13        -10.1618182292   -2.2538437891    8.5267131983   -2.0983181961
 14        -10.1618318741   -2.2538274201    8.5267315620   -2.0983270391
 15        -10.1618392144   -2.2538194197    8.5267405433   -2.0983314852
 16        -10.1618431651   -2.2538155200    8.5267449245   -2.0983337210
 17        -10.1618452923   -2.2538136252    8.5267470551   -2.0983348455
 18        -10.1618464380   -2.2538127080    8.5267480875   -2.0983354110
 19        -10.1618470552   -2.2538122659    8.5267485856   -2.0983356955
 20        -10.1618473878   -2.2538120540    8.5267488248   -2.0983358386
 21        -10.1618475670   -2.2538119530    8.5267489389   -2.0983359106
 22        -10.1618476637   -2.2538119053    8.5267489929   -2.0983359468
Atom SCF converged after  22 iterations to a total energy of    -10.16184766

Atom SCF Calculation for O  : Z (AE atom) =   8 : Z (PS atom) =   6
Config String:
Orbitals (num,occ):  2     2.00 4.00
Orbitals   (num,l):  2        0    1
Real-space Grid (nr,dr,rmax): 1203    0.0066555740    8.0000000000
Spherical Bessel Basis (nsws,lmax,cutoff):   47    1  176.3951722778
Confining potential (l,width,scale):  0    3.0000000000  100.0000000000
Confining potential (l,width,scale):  1    3.0000000000  100.0000000000
  1         -1.8735052164   -7.5539365035   10.1554312477   -2.4512393157
  2        -16.0318313751   -3.1285771268   13.6395848164   -3.2358799643
  3        -15.9524020423   -3.0762819706   13.6967272503   -3.2536856837
  4        -15.8521515939   -3.0781493909   13.6951909330   -3.2561700440
  5        -15.8357139793   -3.0748501933   13.6988803334   -3.2580493133
  6        -15.8246052853   -3.0740779781   13.6997881576   -3.2588327446
  7        -15.8189019501   -3.0737449687   13.7001869911   -3.2592378801
  8        -15.8159785510   -3.0736026016   13.7003615168   -3.2594475790
  9        -15.8144776168   -3.0735437994   13.7004360379   -3.2595560735
 10        -15.8137058024   -3.0735207882   13.7004667348   -3.2596122456
 11        -15.8133083127   -3.0735125946   13.7004786868   -3.2596413656
 12        -15.8131032938   -3.0735102195   13.7004828997   -3.2596564858
 13        -15.8129973902   -3.0735099286   13.7004840891   -3.2596643505
 14        -15.8129426040   -3.0735102506   13.7004842061   -3.2596684489
 15        -15.8129142203   -3.0735106556   13.7004840157   -3.2596705887
 16        -15.8128994940   -3.0735109855   13.7004837906   -3.2596717080
 17        -15.8128918425   -3.0735112169   13.7004836103   -3.2596722946
 18        -15.8128878614   -3.0735113674   13.7004834848   -3.2596726026
 19        -15.8128857871   -3.0735114608   13.7004834035   -3.2596727646
 20        -15.8128847048   -3.0735115170   13.7004833533   -3.2596728500
 21        -15.8128841394   -3.0735115501   13.7004833231   -3.2596728951
 22        -15.8128838436   -3.0735115693   13.7004833054   -3.2596729190
 23        -15.8128836887   -3.0735115802   13.7004832951   -3.2596729316
 24        -15.8128836074   -3.0735115864   13.7004832893   -3.2596729383
Atom SCF converged after  24 iterations to a total energy of    -15.81288361

========================== Calculation in vacuum ==============================
= Adjusting the following parameters: 
= is_implicit_solvent: F
= is_include_apolar: F
= write_denskern: T
= write_tightbox_ngwfs: T
= restart read filename prefix: ""
= restart write filename prefix: "vacuum_"
===============================================================================

Determining parallel strategy ...
... using space-filling curve
... NGWF load balancing: max    109;  min    108;  average    109
... Projector load balancing: max     26;  min     21;  average     22
... done
Calculating direct Ion-Ion energy ...
Ion-Ion Energy        :    829155.26381960930303
======================= Empirical dispersion information =======================
Model : Elstner
Dispersion Correction Energy: -0.32440583E+01 Hartree
================================================================================
Basis initialisation ...... NGWF spheres initialised
... Projector spheres initialised
... NGWF tight boxes initialised
... Tight-boxes gathered
... NGWF basis size (local,global):    1046767  62494705
... Nonlocal pseudopotential projector initialisation
... done

========================== Sparse matrix information ===========================
                        Overlap matrix filling:   6.66%
                        Density kernel filling: 100.00%
              NGWF-Proj overlap matrix filling:   1.76%
                    Hamiltonian matrix filling:   7.51%
                  NGWF diagonal matrix filling:   0.05%
                             KS matrix filling: 100.00% 
                           KSKS matrix filling: 100.00% 
================================================================================

Sparse matrix initialisation ... done

Generating smeared ion density ... done
Smeared ion self correction:     -14525.987107
Smeared ion non-self correction: -829107.242586
NGWF initialisation ...... done
============ Calculation of NGWF S^-1 using Hotelling algorithm ================ 
         Iteration  |  Frobenius norm and Maximum abs value    (of I-S*S_n^-1)   
               1       0.78738594E+02     0.98299679E+00
               2       0.76920576E+02     0.96640235E+00
               3       0.73962158E+02     0.93438162E+00
               4       0.69731363E+02     0.87518132E+00
               5       0.64435050E+02     0.77309755E+00
               6       0.58460814E+02     0.70304060E+00
               7       0.52427544E+02     0.66763575E+00
               8       0.46853506E+02     0.64263042E+00
               9       0.40823495E+02     0.60195465E+00
              10       0.32632039E+02     0.53087849E+00
              11       0.22091010E+02     0.43453057E+00
              12       0.11413825E+02     0.29614626E+00
              13       0.38363612E+01     0.13876727E+00
              14       0.63416541E+00     0.41845202E-01
              15       0.34311009E-01     0.42751256E-02
              16       0.25242776E-03     0.46980792E-04
              17       0.23893788E-07     0.57500822E-08
              18       0.98203869E-13     0.68833828E-14
================================================================================
Calculating local pseudopotential in open BC on the fine real space grid ...
... done

MG BCs: +ve charge blocks (gridpoints):     20848 (   16349500).
MG BCs: -ve charge blocks (gridpoints):      8096 (    1089481).
MG BCs:     Elided blocks (gridpoints):    173066 (  173531644).
MG BCs: Computational effort saved:  99.9848%.
MG BCs: Charge after coarse-graining:           -9.0002360.
MG DL_MG: Calling solver with defect correction order = 8
MG DL_MG: Solver finished
MG Hartree energy from (\int phi*rho dr):              1470.736306
MG Hartree energy from (\int eps (grad phi)^2 dr):     1470.117861
MG Discrepancy due to finite box and discretization:     -0.618445 (  -0.04205%)
MG Correction to account for finite box:                  0.467066
MG Remaining discrepancy, due to discretization:         -0.151380 (  -0.01029%)
Up spin density kernel initialisation ... 
======= Optimisation of K by Palser-Manolopoulos canonical purification ======== 
         Iteration  |  Band structure energy |    c_n   
               1       -2583.43131368809964    0.5271105
               2       -2759.85562529698018    0.5171168
               3       -2941.08152145068789    0.5153141
               4       -3092.82683280225774    0.5289325
               5       -3186.37413838304383    0.5652137
               6       -3225.56563511247714    0.6107591
               7       -3238.89998505031326    0.6237022
               8       -3244.69666465744285    0.6247629
               9       -3247.50250488594338    0.6397740
              10       -3248.67835221942778    0.6547809
              11       -3249.16667365842068    0.6474821
              12       -3249.40061688747028    0.6116269
              13       -3249.52488065703437    0.5599218
              14       -3249.58287684974903    0.5232477
              15       -3249.59993239376172    0.5444027
              16       -3249.60289550692323    0.5576959
              17       -3249.60373846720040    0.5314446
              18       -3249.60406609420761    0.5058072
              19       -3249.60426498930792    0.5001820
              20       -3249.60445794945963    0.5000002
              21       -3249.60462033029808    0.5000000
              22       -3249.60469332547200    0.5000000
              23       -3249.60470325080951    0.5000000
              24       -3249.60470340278471    0.5000000
Termination criterion satisfied: band energy change below threshold.
Final occupancy bounds: [    0.00000000000230:    1.00000000000000]
Closest occupancy to 0.5:     0.99999999999880
================================================================================
... done

Writing density kernel to file "complex_3141.vacuum_dkn" ... done

>>> Optimising kernel for current NGWFs:
   Initial electron number for spin 1:    7228.00000000
     Final electron number for spin 1:    7228.00000000

=================== Penalty functional idempotency correction ==================
 RMS occupancy error at iteration   1:  0.000000 (step -0.5000 Ne1=   7228.0000)
            Final RMS occupancy error   :  0.000000 (Ne1=   7228.0000)
               Final occupancy bounds   : [  0.0000,  1.0000]
================================================================================

................................................................................
<<<<<<<<<<<<<< LNV (Original version) density kernel optimisation >>>>>>>>>>>>>>
~~~~~~~~~~~~~~~~~~~~~~~~~~~~~~~~~~~~~~~~~~~~~~~~~~~~~~~~~~~~~~~~~~~~~~~~~~~~~~~~
   iter  |      energy (Eh)       | rms gradient |  commutator  |   dE (Eh)
MG BCs: +ve charge blocks (gridpoints):     31595 (   17492720).
MG BCs: -ve charge blocks (gridpoints):      8385 (    1123561).
MG BCs:     Elided blocks (gridpoints):    162317 (  172354344).
MG BCs: Computational effort saved:  99.9791%.
MG BCs: Charge after coarse-graining:           -9.0009795.
MG DL_MG: Calling solver with defect correction order = 8
MG DL_MG: Solver finished
MG Hartree energy from (\int phi*rho dr):              1426.265343
MG Hartree energy from (\int eps (grad phi)^2 dr):     1425.597240
MG Discrepancy due to finite box and discretization:     -0.668103 (  -0.04684%)
MG Correction to account for finite box:                  0.473670
MG Remaining discrepancy, due to discretization:         -0.194432 (  -0.01363%)
      ideal mu1:      -0.700368721749
             Q0:  -11560.493281981093
             G0:    -144.951319327298
   RMS gradient:       0.001841194839
MG BCs: +ve charge blocks (gridpoints):     31545 (   17576865).
MG BCs: -ve charge blocks (gridpoints):      8285 (    1102762).
MG BCs:     Elided blocks (gridpoints):    162365 (  172290998).
MG BCs: Computational effort saved:  99.9791%.
MG BCs: Charge after coarse-graining:           -9.0009992.
MG DL_MG: Calling solver with defect correction order = 8
MG DL_MG: Solver finished
MG Hartree energy from (\int phi*rho dr):              1451.542277
MG Hartree energy from (\int eps (grad phi)^2 dr):     1450.890666
MG Discrepancy due to finite box and discretization:     -0.651611 (  -0.04489%)
MG Correction to account for finite box:                  0.473002
MG Remaining discrepancy, due to discretization:         -0.178609 (  -0.01230%)
     Trial step:       0.500000000000
             Q1:  -11572.080158048775
 Quadratic coef:      60.888783595967
 Linear coef   :     -72.475659663649
           Qmin:  -11582.060149199759
Quadratic minimum step length (  0.297573934736) accepted
    Initial Ne1:    7228.00000000
      Final Ne1:    7228.00000000

=================== Penalty functional idempotency correction ==================
 RMS occupancy error at iteration   1:  0.003413 (step -0.4884 Ne1=   7228.0000)
 RMS occupancy error at iteration   2:  0.000027 (step -0.5001 Ne1=   7228.0000)
            Final RMS occupancy error   :  0.000000 (Ne1=   7228.0000)
               Final occupancy bounds   : [  0.0000,  1.0000]
================================================================================

    1        -1.156049328198E+04     1.8412E-03     1.6657E-03
MG BCs: +ve charge blocks (gridpoints):     31549 (   17543744).
MG BCs: -ve charge blocks (gridpoints):      8318 (    1111684).
MG BCs:     Elided blocks (gridpoints):    162363 (  172315197).
MG BCs: Computational effort saved:  99.9791%.
MG BCs: Charge after coarse-graining:           -9.0009917.
MG DL_MG: Calling solver with defect correction order = 8
MG DL_MG: Solver finished
MG Hartree energy from (\int phi*rho dr):              1433.370853
MG Hartree energy from (\int eps (grad phi)^2 dr):     1432.713493
MG Discrepancy due to finite box and discretization:     -0.657360 (  -0.04586%)
MG Correction to account for finite box:                  0.473176
MG Remaining discrepancy, due to discretization:         -0.184184 (  -0.01285%)
      ideal mu1:      -0.743453879053
             Q0:  -11582.460742196534
             G0:     -12.091153818018
   RMS gradient:       0.000528198578
MG BCs: +ve charge blocks (gridpoints):     31551 (   17560954).
MG BCs: -ve charge blocks (gridpoints):      8308 (    1106407).
MG BCs:     Elided blocks (gridpoints):    162358 (  172303264).
MG BCs: Computational effort saved:  99.9791%.
MG BCs: Charge after coarse-graining:           -9.0009952.
MG DL_MG: Calling solver with defect correction order = 8
MG DL_MG: Solver finished
MG Hartree energy from (\int phi*rho dr):              1438.481998
MG Hartree energy from (\int eps (grad phi)^2 dr):     1437.828345
MG Discrepancy due to finite box and discretization:     -0.653653 (  -0.04544%)
MG Correction to account for finite box:                  0.472661
MG Remaining discrepancy, due to discretization:         -0.180992 (  -0.01258%)
     Trial step:       0.385729137307
             Q1:  -11585.303634675918
 Quadratic coef:       1.821017851888
 Linear coef   :      -4.663910331273
           Qmin:  -11585.446992380133
Quadratic minimum step length (  0.493956197820) accepted
    Initial Ne1:    7227.99989404
      Final Ne1:    7228.00000000

=================== Penalty functional idempotency correction ==================
 RMS occupancy error at iteration   1:  0.001819 (step -0.4929 Ne1=   7228.0000)
 RMS occupancy error at iteration   2:  0.000013 (step -0.5003 Ne1=   7228.0000)
            Final RMS occupancy error   :  0.000000 (Ne1=   7228.0000)
               Final occupancy bounds   : [  0.0000,  1.0000]
================================================================================

    2        -1.158246074220E+04     5.2820E-04     4.7785E-04    -2.1967E+01
MG BCs: +ve charge blocks (gridpoints):     31555 (   17565882).
MG BCs: -ve charge blocks (gridpoints):      8300 (    1104830).
MG BCs:     Elided blocks (gridpoints):    162354 (  172299913).
MG BCs: Computational effort saved:  99.9791%.
MG BCs: Charge after coarse-graining:           -9.0009962.
MG DL_MG: Calling solver with defect correction order = 8
MG DL_MG: Solver finished
MG Hartree energy from (\int phi*rho dr):              1439.966456
MG Hartree energy from (\int eps (grad phi)^2 dr):     1439.313768
MG Discrepancy due to finite box and discretization:     -0.652688 (  -0.04533%)
MG Correction to account for finite box:                  0.472528
MG Remaining discrepancy, due to discretization:         -0.180160 (  -0.01251%)
      ideal mu1:      -0.767422700354
             Q0:  -11585.483661094098
             G0:      -1.932743212088
   RMS gradient:       0.000211284972
MG BCs: +ve charge blocks (gridpoints):     31566 (   17565057).
MG BCs: -ve charge blocks (gridpoints):      8304 (    1106007).
MG BCs:     Elided blocks (gridpoints):    162343 (  172299561).
MG BCs: Computational effort saved:  99.9791%.
MG BCs: Charge after coarse-graining:           -9.0009959.
MG DL_MG: Calling solver with defect correction order = 8
MG DL_MG: Solver finished
MG Hartree energy from (\int phi*rho dr):              1437.758470
MG Hartree energy from (\int eps (grad phi)^2 dr):     1437.106179
MG Discrepancy due to finite box and discretization:     -0.652291 (  -0.04537%)
MG Correction to account for finite box:                  0.472328
MG Remaining discrepancy, due to discretization:         -0.179963 (  -0.01252%)
     Trial step:       0.436501200517
             Q1:  -11585.978376918705
 Quadratic coef:       0.348928907761
 Linear coef   :      -0.843644732367
           Qmin:  -11585.993604823767
Quadratic minimum step length (  0.527689065447) accepted
    Initial Ne1:    7227.99988556
      Final Ne1:    7228.00000000

=================== Penalty functional idempotency correction ==================
 RMS occupancy error at iteration   1:  0.000644 (step -0.4968 Ne1=   7228.0000)
 RMS occupancy error at iteration   2:  0.000003 (step -0.5000 Ne1=   7228.0000)
            Final RMS occupancy error   :  0.000000 (Ne1=   7228.0000)
               Final occupancy bounds   : [  0.0000,  1.0000]
================================================================================

    3        -1.158548366109E+04     2.1128E-04     1.9114E-04    -3.0229E+00
MG BCs: +ve charge blocks (gridpoints):     31569 (   17564990).
MG BCs: -ve charge blocks (gridpoints):      8305 (    1106189).
MG BCs:     Elided blocks (gridpoints):    162340 (  172299446).
MG BCs: Computational effort saved:  99.9791%.
MG BCs: Charge after coarse-graining:           -9.0009958.
MG DL_MG: Calling solver with defect correction order = 8
MG DL_MG: Solver finished
MG Hartree energy from (\int phi*rho dr):              1437.306750
MG Hartree energy from (\int eps (grad phi)^2 dr):     1436.654531
MG Discrepancy due to finite box and discretization:     -0.652218 (  -0.04538%)
MG Correction to account for finite box:                  0.472286
MG Remaining discrepancy, due to discretization:         -0.179932 (  -0.01252%)
      ideal mu1:      -0.768547116683
             Q0:  -11585.998411360779
             G0:      -0.505805242611
   RMS gradient:       0.000108198828
MG BCs: +ve charge blocks (gridpoints):     31567 (   17565836).
MG BCs: -ve charge blocks (gridpoints):      8305 (    1106074).
MG BCs:     Elided blocks (gridpoints):    162342 (  172298715).
MG BCs: Computational effort saved:  99.9791%.
MG BCs: Charge after coarse-graining:           -9.0009959.
MG DL_MG: Calling solver with defect correction order = 8
MG DL_MG: Solver finished
MG Hartree energy from (\int phi*rho dr):              1438.542223
MG Hartree energy from (\int eps (grad phi)^2 dr):     1437.890019
MG Discrepancy due to finite box and discretization:     -0.652205 (  -0.04534%)
MG Correction to account for finite box:                  0.472176
MG Remaining discrepancy, due to discretization:         -0.180029 (  -0.01251%)
     Trial step:       0.479934277342
             Q1:  -11586.123575282283
 Quadratic coef:       0.117589352083
 Linear coef   :      -0.242753273588
           Qmin:  -11586.123697262083
Quadratic minimum step length (  0.495391865283) accepted
    Initial Ne1:    7227.99997189
      Final Ne1:    7228.00000000

=================== Penalty functional idempotency correction ==================
 RMS occupancy error at iteration   1:  0.000283 (step -0.4958 Ne1=   7228.0000)
 RMS occupancy error at iteration   2:  0.000003 (step -0.5000 Ne1=   7228.0000)
            Final RMS occupancy error   :  0.000000 (Ne1=   7228.0000)
               Final occupancy bounds   : [  0.0000,  1.0000]
================================================================================

    4        -1.158599841136E+04     1.0820E-04     9.7885E-05    -5.1475E-01
MG BCs: +ve charge blocks (gridpoints):     31567 (   17565888).
MG BCs: -ve charge blocks (gridpoints):      8305 (    1106065).
MG BCs:     Elided blocks (gridpoints):    162342 (  172298672).
MG BCs: Computational effort saved:  99.9791%.
MG BCs: Charge after coarse-graining:           -9.0009959.
MG DL_MG: Calling solver with defect correction order = 8
MG DL_MG: Solver finished
MG Hartree energy from (\int phi*rho dr):              1438.582567
MG Hartree energy from (\int eps (grad phi)^2 dr):     1437.930362
MG Discrepancy due to finite box and discretization:     -0.652205 (  -0.04534%)
MG Correction to account for finite box:                  0.472172
MG Remaining discrepancy, due to discretization:         -0.180032 (  -0.01251%)
      ideal mu1:      -0.768868089952
             Q0:  -11586.124323315453
             G0:      -0.179324634600
   RMS gradient:       0.000064609340
MG BCs: +ve charge blocks (gridpoints):     31565 (   17566229).
MG BCs: -ve charge blocks (gridpoints):      8302 (    1105805).
MG BCs:     Elided blocks (gridpoints):    162344 (  172298591).
MG BCs: Computational effort saved:  99.9791%.
MG BCs: Charge after coarse-graining:           -9.0009958.
MG DL_MG: Calling solver with defect correction order = 8
MG DL_MG: Solver finished
MG Hartree energy from (\int phi*rho dr):              1439.040009
MG Hartree energy from (\int eps (grad phi)^2 dr):     1438.387678
MG Discrepancy due to finite box and discretization:     -0.652332 (  -0.04533%)
MG Correction to account for finite box:                  0.472140
MG Remaining discrepancy, due to discretization:         -0.180191 (  -0.01252%)
     Trial step:       0.487601822049
             Q1:  -11586.180743937613
 Quadratic coef:       0.031018396408
 Linear coef   :      -0.087439018569
           Qmin:  -11586.185944666438
Quadratic minimum step length (  0.687260298875) accepted
    Initial Ne1:    7227.99998601
      Final Ne1:    7228.00000000

=================== Penalty functional idempotency correction ==================
 RMS occupancy error at iteration   1:  0.000408 (step -0.4766 Ne1=   7228.0000)
 RMS occupancy error at iteration   2:  0.000009 (step -0.5000 Ne1=   7228.0000)
            Final RMS occupancy error   :  0.000000 (Ne1=   7228.0000)
               Final occupancy bounds   : [  0.0000,  1.0000]
================================================================================

    5        -1.158612432332E+04     6.4609E-05     5.8451E-05    -1.2591E-01
MG BCs: +ve charge blocks (gridpoints):     31564 (   17566343).
MG BCs: -ve charge blocks (gridpoints):      8300 (    1105715).
MG BCs:     Elided blocks (gridpoints):    162345 (  172298567).
MG BCs: Computational effort saved:  99.9791%.
MG BCs: Charge after coarse-graining:           -9.0009958.
MG DL_MG: Calling solver with defect correction order = 8
MG DL_MG: Solver finished
MG Hartree energy from (\int phi*rho dr):              1439.226218
MG Hartree energy from (\int eps (grad phi)^2 dr):     1438.573835
MG Discrepancy due to finite box and discretization:     -0.652383 (  -0.04533%)
MG Correction to account for finite box:                  0.472127
MG Remaining discrepancy, due to discretization:         -0.180256 (  -0.01252%)
      ideal mu1:      -0.768965934260
             Q0:  -11586.185571881477
             G0:      -0.157977930738
   RMS gradient:       0.000061030224
MG BCs: +ve charge blocks (gridpoints):     31563 (   17565643).
MG BCs: -ve charge blocks (gridpoints):      8304 (    1106117).
MG BCs:     Elided blocks (gridpoints):    162346 (  172298865).
MG BCs: Computational effort saved:  99.9791%.
MG BCs: Charge after coarse-graining:           -9.0009957.
MG DL_MG: Calling solver with defect correction order = 8
MG DL_MG: Solver finished
MG Hartree energy from (\int phi*rho dr):              1438.012616
MG Hartree energy from (\int eps (grad phi)^2 dr):     1437.360282
MG Discrepancy due to finite box and discretization:     -0.652334 (  -0.04536%)
MG Correction to account for finite box:                  0.472093
MG Remaining discrepancy, due to discretization:         -0.180241 (  -0.01253%)
     Trial step:       0.578886322134
             Q1:  -11586.257018131553
 Quadratic coef:       0.020005013226
 Linear coef   :      -0.091451263303
           Qmin:  -11586.290087352989
Quadratic minimum step length (  1.323165470317) accepted
    Initial Ne1:    7227.99994756
      Final Ne1:    7228.00000000

=================== Penalty functional idempotency correction ==================
 RMS occupancy error at iteration   1:  0.003829 (step -0.3206 Ne1=   7228.0000)
 RMS occupancy error at iteration   2:  0.000301 (step -0.4866 Ne1=   7228.0000)
 RMS occupancy error at iteration   3:  0.000006 (step -0.5001 Ne1=   7228.0000)
            Final RMS occupancy error   :  0.000000 (Ne1=   7228.0000)
               Final occupancy bounds   : [  0.0000,  1.0000]
================================================================================

    6        -1.158618557188E+04     6.1030E-05     5.5213E-05    -6.1249E-02
MG BCs: +ve charge blocks (gridpoints):     31564 (   17564947).
MG BCs: -ve charge blocks (gridpoints):      8309 (    1106654).
MG BCs:     Elided blocks (gridpoints):    162346 (  172299024).
MG BCs: Computational effort saved:  99.9791%.
MG BCs: Charge after coarse-graining:           -9.0009954.
MG DL_MG: Calling solver with defect correction order = 8
MG DL_MG: Solver finished
MG Hartree energy from (\int phi*rho dr):              1436.464401
MG Hartree energy from (\int eps (grad phi)^2 dr):     1435.812130
MG Discrepancy due to finite box and discretization:     -0.652271 (  -0.04541%)
MG Correction to account for finite box:                  0.472051
MG Remaining discrepancy, due to discretization:         -0.180220 (  -0.01255%)
      ideal mu1:      -0.768468148795
             Q0:  -11586.264479389414
             G0:      -0.343175304623
   RMS gradient:       0.000089587347
MG BCs: +ve charge blocks (gridpoints):     31567 (   17567819).
MG BCs: -ve charge blocks (gridpoints):      8302 (    1105102).
MG BCs:     Elided blocks (gridpoints):    162343 (  172297704).
MG BCs: Computational effort saved:  99.9791%.
MG BCs: Charge after coarse-graining:           -9.0009962.
MG DL_MG: Calling solver with defect correction order = 8
MG DL_MG: Solver finished
MG Hartree energy from (\int phi*rho dr):              1440.368436
MG Hartree energy from (\int eps (grad phi)^2 dr):     1439.716340
MG Discrepancy due to finite box and discretization:     -0.652095 (  -0.04527%)
MG Correction to account for finite box:                  0.472039
MG Remaining discrepancy, due to discretization:         -0.180056 (  -0.01250%)
     Trial step:       0.875192774585
             Q1:  -11586.341261840193
 Quadratic coef:       0.223562096244
 Linear coef   :      -0.300344547023
           Qmin:  -11586.365353876237
Quadratic minimum step length (  0.587888962075) accepted
    Initial Ne1:    7227.99997645
      Final Ne1:    7228.00000000

=================== Penalty functional idempotency correction ==================
 RMS occupancy error at iteration   1:  0.000161 (step -0.4887 Ne1=   7228.0000)
 RMS occupancy error at iteration   2:  0.000001 (step -0.5000 Ne1=   7228.0000)
            Final RMS occupancy error   :  0.000000 (Ne1=   7228.0000)
               Final occupancy bounds   : [  0.0000,  1.0000]
================================================================================

    7        -1.158626447939E+04     8.9587E-05     8.1048E-05    -7.8908E-02
MG BCs: +ve charge blocks (gridpoints):     31565 (   17566901).
MG BCs: -ve charge blocks (gridpoints):      8303 (    1105586).
MG BCs:     Elided blocks (gridpoints):    162345 (  172298138).
MG BCs: Computational effort saved:  99.9791%.
MG BCs: Charge after coarse-graining:           -9.0009959.
MG DL_MG: Calling solver with defect correction order = 8
MG DL_MG: Solver finished
MG Hartree energy from (\int phi*rho dr):              1439.079652
MG Hartree energy from (\int eps (grad phi)^2 dr):     1438.427501
MG Discrepancy due to finite box and discretization:     -0.652151 (  -0.04532%)
MG Correction to account for finite box:                  0.472043
MG Remaining discrepancy, due to discretization:         -0.180108 (  -0.01252%)
      ideal mu1:      -0.769572742484
             Q0:  -11586.365677134250
             G0:      -0.212183453691
   RMS gradient:       0.000070361617
MG BCs: +ve charge blocks (gridpoints):     31566 (   17566653).
MG BCs: -ve charge blocks (gridpoints):      8305 (    1105643).
MG BCs:     Elided blocks (gridpoints):    162344 (  172298329).
MG BCs: Computational effort saved:  99.9791%.
MG BCs: Charge after coarse-graining:           -9.0009961.
MG DL_MG: Calling solver with defect correction order = 8
MG DL_MG: Solver finished
MG Hartree energy from (\int phi*rho dr):              1438.945272
MG Hartree energy from (\int eps (grad phi)^2 dr):     1438.293289
MG Discrepancy due to finite box and discretization:     -0.651983 (  -0.04531%)
MG Correction to account for finite box:                  0.472049
MG Remaining discrepancy, due to discretization:         -0.179934 (  -0.01250%)
     Trial step:       0.717297826476
             Q1:  -11586.447854768601
 Quadratic coef:       0.070021095795
 Linear coef   :      -0.152198730147
           Qmin:  -11586.448382400411
Quadratic minimum step length (  0.779563766372) accepted
    Initial Ne1:    7227.99998058
      Final Ne1:    7228.00000000

=================== Penalty functional idempotency correction ==================
 RMS occupancy error at iteration   1:  0.000979 (step -0.4379 Ne1=   7228.0000)
 RMS occupancy error at iteration   2:  0.000029 (step -0.4986 Ne1=   7228.0000)
            Final RMS occupancy error   :  0.000000 (Ne1=   7228.0000)
               Final occupancy bounds   : [ -0.0000,  1.0000]
================================================================================

    8        -1.158636567713E+04     7.0362E-05     6.3654E-05    -1.0120E-01
MG BCs: +ve charge blocks (gridpoints):     31566 (   17566668).
MG BCs: -ve charge blocks (gridpoints):      8305 (    1105648).
MG BCs:     Elided blocks (gridpoints):    162344 (  172298309).
MG BCs: Computational effort saved:  99.9791%.
MG BCs: Charge after coarse-graining:           -9.0009960.
MG DL_MG: Calling solver with defect correction order = 8
MG DL_MG: Solver finished
MG Hartree energy from (\int phi*rho dr):              1438.935798
MG Hartree energy from (\int eps (grad phi)^2 dr):     1438.283830
MG Discrepancy due to finite box and discretization:     -0.651968 (  -0.04531%)
MG Correction to account for finite box:                  0.472049
MG Remaining discrepancy, due to discretization:         -0.179920 (  -0.01250%)
      ideal mu1:      -0.769142660146
             Q0:  -11586.448286586325
             G0:      -0.167113950293
   RMS gradient:       0.000062517135
MG BCs: +ve charge blocks (gridpoints):     31567 (   17565776).
MG BCs: -ve charge blocks (gridpoints):      8305 (    1106121).
MG BCs:     Elided blocks (gridpoints):    162343 (  172298728).
MG BCs: Computational effort saved:  99.9791%.
MG BCs: Charge after coarse-graining:           -9.0009958.
MG DL_MG: Calling solver with defect correction order = 8
MG DL_MG: Solver finished
MG Hartree energy from (\int phi*rho dr):              1437.595011
MG Hartree energy from (\int eps (grad phi)^2 dr):     1436.943124
MG Discrepancy due to finite box and discretization:     -0.651887 (  -0.04535%)
MG Correction to account for finite box:                  0.472038
MG Remaining discrepancy, due to discretization:         -0.179849 (  -0.01251%)
     Trial step:       0.747782986713
             Q1:  -11586.500262978952
 Quadratic coef:       0.072988576243
 Linear coef   :      -0.124964968871
           Qmin:  -11586.501775242525
Quadratic minimum step length (  0.640145913697) accepted
    Initial Ne1:    7228.00048995
      Final Ne1:    7228.00000000

=================== Penalty functional idempotency correction ==================
 RMS occupancy error at iteration   1:  0.001691 (step -0.4048 Ne1=   7228.0000)
 RMS occupancy error at iteration   2:  0.000074 (step -0.4962 Ne1=   7228.0000)
 RMS occupancy error at iteration   3:  0.000000 (step -0.5000 Ne1=   7228.0000)
            Final RMS occupancy error   :  0.000000 (Ne1=   7228.0000)
               Final occupancy bounds   : [  0.0000,  1.0000]
================================================================================

    9        -1.158644828659E+04     6.2517E-05     5.6558E-05    -8.2609E-02
MG BCs: +ve charge blocks (gridpoints):     31567 (   17565914).
MG BCs: -ve charge blocks (gridpoints):      8305 (    1106039).
MG BCs:     Elided blocks (gridpoints):    162343 (  172298672).
MG BCs: Computational effort saved:  99.9791%.
MG BCs: Charge after coarse-graining:           -9.0009959.
MG DL_MG: Calling solver with defect correction order = 8
MG DL_MG: Solver finished
MG Hartree energy from (\int phi*rho dr):              1437.788185
MG Hartree energy from (\int eps (grad phi)^2 dr):     1437.136279
MG Discrepancy due to finite box and discretization:     -0.651906 (  -0.04534%)
MG Correction to account for finite box:                  0.472049
MG Remaining discrepancy, due to discretization:         -0.179857 (  -0.01251%)
      ideal mu1:      -0.768384008335
   10        -1.158650348397E+04     4.5823E-05     4.1455E-05    -5.5197E-02
Finished density kernel iterations (  10)

Writing density kernel to file "complex_3141.vacuum_dkn" ... done


>>> Density kernel optimised for the current NGWF basis:
     ~~~~~~~~~~~~~~~~~~~~~~~~~~~~~~~~~~~~~~~~~~~~~~~~~~~~~~~~~~~
     Total energy                =  -1.15865034839738E+04  Eh
     Estimated bandgap           =  -4.2957E-01  Eh
     RMS occupancy error         =   2.1056E-11
     [H,K] commutator            =   4.1455E-05
     Occupancy bounds            = [  0.000:  1.000]
     ~~~~~~~~~~~~~~~~~~~~~~~~~~~~~~~~~~~~~~~~~~~~~~~~~~~~~~~~~~~




################################################################################
########################### NGWF CG iteration  001 #############################
################################################################################
****** Reciprocal space K.E. preconditioning with k_zero =  3.5000 a0^-1 *******

>>> Checking for convergence of NGWFs:   NOT CONVERGED
  ========================================================================
         NGWF RMS gradient =  1.5819E-03 >  2.0000E-06  | above tolerance
  ========================================================================

>>> Improving NGWFs using line search:
============ Calculation of NGWF S^-1 using Hotelling algorithm ================ 
         Iteration  |  Frobenius norm and Maximum abs value    (of I-S*S_n^-1)   
               1       0.19542069E+00     0.50234776E-02
               2       0.88361046E-03     0.40022456E-04
               3       0.31012726E-07     0.27235292E-08
               4       0.12520837E-12     0.59952043E-14
================================================================================
MG BCs: +ve charge blocks (gridpoints):     31047 (   17512786).
MG BCs: -ve charge blocks (gridpoints):      8319 (    1105899).
MG BCs:     Elided blocks (gridpoints):    162865 (  172351940).
MG BCs: Computational effort saved:  99.9794%.
MG BCs: Charge after coarse-graining:           -9.0009991.
MG DL_MG: Calling solver with defect correction order = 8
MG DL_MG: Solver finished
MG Hartree energy from (\int phi*rho dr):              1406.120290
MG Hartree energy from (\int eps (grad phi)^2 dr):     1405.469232
MG Discrepancy due to finite box and discretization:     -0.651059 (  -0.04630%)
MG Correction to account for finite box:                  0.472001
MG Remaining discrepancy, due to discretization:         -0.179057 (  -0.01273%)
============ Calculation of NGWF S^-1 using Hotelling algorithm ================ 
         Iteration  |  Frobenius norm and Maximum abs value    (of I-S*S_n^-1)   
               1       0.18466462E+01     0.40667463E-01
               2       0.70570564E-01     0.24335860E-02
               3       0.13915382E-03     0.10203239E-04
               4       0.99837715E-09     0.18822832E-09
               5       0.10938816E-12     0.57731597E-14
================================================================================
------------------------------- NGWF line search -------------------------------
RMS gradient                =       0.00158191898734
Trial step length           =               0.122474
Gradient along search dir.  =       -274.72147775157
Functional at step 0        =  -11586.50348397379275
Functional at step 1        =  -11617.59480469091795
Functional predicted        =  -11697.27213283871424
Selected quadratic step     =               0.806407
--------------------------- NGWF line search finished --------------------------
                                               
Writing NGWFs to file "complex_3141.vacuum_tightbox_ngwfs"....  done

>>> Optimising kernel for current NGWFs:
   Initial electron number for spin 1:    7262.64985707
     Final electron number for spin 1:    7228.00000000

=================== Penalty functional idempotency correction ==================
 RMS occupancy error at iteration   1:  0.004285 (step -0.4858 Ne1=   7228.0000)
 RMS occupancy error at iteration   2:  0.000073 (step -0.5003 Ne1=   7228.0000)
            Final RMS occupancy error   :  0.000000 (Ne1=   7228.0000)
               Final occupancy bounds   : [  0.0000,  1.0000]
================================================================================

................................................................................
<<<<<<<<<<<<<< LNV (Original version) density kernel optimisation >>>>>>>>>>>>>>
~~~~~~~~~~~~~~~~~~~~~~~~~~~~~~~~~~~~~~~~~~~~~~~~~~~~~~~~~~~~~~~~~~~~~~~~~~~~~~~~
   iter  |      energy (Eh)       | rms gradient |  commutator  |   dE (Eh)
MG BCs: +ve charge blocks (gridpoints):     25219 (   17260340).
MG BCs: -ve charge blocks (gridpoints):      8480 (    1089909).
MG BCs:     Elided blocks (gridpoints):    168695 (  172620376).
MG BCs: Computational effort saved:  99.9824%.
MG BCs: Charge after coarse-graining:           -9.0006783.
MG DL_MG: Calling solver with defect correction order = 8
MG DL_MG: Solver finished
MG Hartree energy from (\int phi*rho dr):              1251.468826
MG Hartree energy from (\int eps (grad phi)^2 dr):     1250.817853
MG Discrepancy due to finite box and discretization:     -0.650973 (  -0.05202%)
MG Correction to account for finite box:                  0.471789
MG Remaining discrepancy, due to discretization:         -0.179184 (  -0.01432%)
      ideal mu1:      -0.708849205907
             Q0:  -11696.473643812351
             G0:      -9.829130212349
   RMS gradient:       0.000479453184
MG BCs: +ve charge blocks (gridpoints):     25281 (   17275041).
MG BCs: -ve charge blocks (gridpoints):      8468 (    1086346).
MG BCs:     Elided blocks (gridpoints):    168633 (  172609238).
MG BCs: Computational effort saved:  99.9823%.
MG BCs: Charge after coarse-graining:           -9.0006743.
MG DL_MG: Calling solver with defect correction order = 8
MG DL_MG: Solver finished
MG Hartree energy from (\int phi*rho dr):              1266.567135
MG Hartree energy from (\int eps (grad phi)^2 dr):     1265.911103
MG Discrepancy due to finite box and discretization:     -0.656032 (  -0.05180%)
MG Correction to account for finite box:                  0.471243
MG Remaining discrepancy, due to discretization:         -0.184789 (  -0.01459%)
     Trial step:       0.691874427390
             Q1:  -11696.155213910388
 Quadratic coef:       7.118953739378
 Linear coef   :      -6.800523837415
           Qmin:  -11698.097728128541
Quadratic minimum step length (  0.330463485803) accepted
    Initial Ne1:    7227.99953989
      Final Ne1:    7228.00000000

=================== Penalty functional idempotency correction ==================
 RMS occupancy error at iteration   1:  0.000355 (step -0.4986 Ne1=   7228.0000)
 RMS occupancy error at iteration   2:  0.000000 (step -0.5000 Ne1=   7228.0000)
            Final RMS occupancy error   :  0.000000 (Ne1=   7228.0000)
               Final occupancy bounds   : [  0.0000,  1.0000]
================================================================================

    1        -1.169647364381E+04     4.7945E-04     4.3375E-04
MG BCs: +ve charge blocks (gridpoints):     25256 (   17267451).
MG BCs: -ve charge blocks (gridpoints):      8467 (    1088254).
MG BCs:     Elided blocks (gridpoints):    168658 (  172614920).
MG BCs: Computational effort saved:  99.9823%.
MG BCs: Charge after coarse-graining:           -9.0006763.
MG DL_MG: Calling solver with defect correction order = 8
MG DL_MG: Solver finished
MG Hartree energy from (\int phi*rho dr):              1257.795496
MG Hartree energy from (\int eps (grad phi)^2 dr):     1257.142196
MG Discrepancy due to finite box and discretization:     -0.653300 (  -0.05194%)
MG Correction to account for finite box:                  0.471509
MG Remaining discrepancy, due to discretization:         -0.181791 (  -0.01445%)
      ideal mu1:      -0.715466170969
             Q0:  -11698.074993564049
             G0:      -1.001767965795
   RMS gradient:       0.000153605655
MG BCs: +ve charge blocks (gridpoints):     25259 (   17267275).
MG BCs: -ve charge blocks (gridpoints):      8469 (    1088998).
MG BCs:     Elided blocks (gridpoints):    168655 (  172614352).
MG BCs: Computational effort saved:  99.9823%.
MG BCs: Charge after coarse-graining:           -9.0006762.
MG DL_MG: Calling solver with defect correction order = 8
MG DL_MG: Solver finished
MG Hartree energy from (\int phi*rho dr):              1258.878718
MG Hartree energy from (\int eps (grad phi)^2 dr):     1258.225098
MG Discrepancy due to finite box and discretization:     -0.653620 (  -0.05192%)
MG Correction to account for finite box:                  0.471444
MG Remaining discrepancy, due to discretization:         -0.182176 (  -0.01447%)
     Trial step:       0.478162352150
             Q1:  -11698.286011566175
 Quadratic coef:       0.267989724707
 Linear coef   :      -0.479007726833
           Qmin:  -11698.289039459480
Quadratic minimum step length (  0.427336274946) accepted
    Initial Ne1:    7227.99993892
      Final Ne1:    7228.00000000

=================== Penalty functional idempotency correction ==================
 RMS occupancy error at iteration   1:  0.000146 (step -0.4994 Ne1=   7228.0000)
            Final RMS occupancy error   :  0.000000 (Ne1=   7228.0000)
               Final occupancy bounds   : [ -0.0000,  1.0000]
================================================================================

    2        -1.169807499356E+04     1.5361E-04     1.3896E-04    -1.6013E+00
MG BCs: +ve charge blocks (gridpoints):     25260 (   17267273).
MG BCs: -ve charge blocks (gridpoints):      8469 (    1088895).
MG BCs:     Elided blocks (gridpoints):    168654 (  172614457).
MG BCs: Computational effort saved:  99.9823%.
MG BCs: Charge after coarse-graining:           -9.0006763.
MG DL_MG: Calling solver with defect correction order = 8
MG DL_MG: Solver finished
MG Hartree energy from (\int phi*rho dr):              1258.763535
MG Hartree energy from (\int eps (grad phi)^2 dr):     1258.109951
MG Discrepancy due to finite box and discretization:     -0.653585 (  -0.05192%)
MG Correction to account for finite box:                  0.471451
MG Remaining discrepancy, due to discretization:         -0.182134 (  -0.01447%)
      ideal mu1:      -0.716294117589
             Q0:  -11698.289478572085
             G0:      -0.153973707940
   RMS gradient:       0.000059945227
MG BCs: +ve charge blocks (gridpoints):     25256 (   17266617).
MG BCs: -ve charge blocks (gridpoints):      8475 (    1089270).
MG BCs:     Elided blocks (gridpoints):    168658 (  172614738).
MG BCs: Computational effort saved:  99.9823%.
MG BCs: Charge after coarse-graining:           -9.0006763.
MG DL_MG: Calling solver with defect correction order = 8
MG DL_MG: Solver finished
MG Hartree energy from (\int phi*rho dr):              1258.238772
MG Hartree energy from (\int eps (grad phi)^2 dr):     1257.585270
MG Discrepancy due to finite box and discretization:     -0.653502 (  -0.05194%)
MG Correction to account for finite box:                  0.471385
MG Remaining discrepancy, due to discretization:         -0.182117 (  -0.01447%)
     Trial step:       0.452035527793
             Q1:  -11698.336435532547
 Quadratic coef:       0.022644625873
 Linear coef   :      -0.069601586335
           Qmin:  -11698.342961248809
Quadratic minimum step length (  0.694698821489) accepted
    Initial Ne1:    7228.00080122
      Final Ne1:    7228.00000000

=================== Penalty functional idempotency correction ==================
 RMS occupancy error at iteration   1:  0.000090 (step -0.4981 Ne1=   7228.0000)
 RMS occupancy error at iteration   2:  0.000000 (step -0.5000 Ne1=   7228.0000)
            Final RMS occupancy error   :  0.000000 (Ne1=   7228.0000)
               Final occupancy bounds   : [  0.0000,  1.0000]
================================================================================

    3        -1.169828947857E+04     5.9945E-05     5.4231E-05    -2.1449E-01
MG BCs: +ve charge blocks (gridpoints):     25256 (   17266202).
MG BCs: -ve charge blocks (gridpoints):      8480 (    1089484).
MG BCs:     Elided blocks (gridpoints):    168658 (  172614939).
MG BCs: Computational effort saved:  99.9823%.
MG BCs: Charge after coarse-graining:           -9.0006763.
MG DL_MG: Calling solver with defect correction order = 8
MG DL_MG: Solver finished
MG Hartree energy from (\int phi*rho dr):              1257.957098
MG Hartree energy from (\int eps (grad phi)^2 dr):     1257.303639
MG Discrepancy due to finite box and discretization:     -0.653459 (  -0.05195%)
MG Correction to account for finite box:                  0.471350
MG Remaining discrepancy, due to discretization:         -0.182109 (  -0.01448%)
      ideal mu1:      -0.715467053136
             Q0:  -11698.343051362666
             G0:      -0.050371889301
   RMS gradient:       0.000034277218
MG BCs: +ve charge blocks (gridpoints):     25256 (   17266148).
MG BCs: -ve charge blocks (gridpoints):      8479 (    1089480).
MG BCs:     Elided blocks (gridpoints):    168658 (  172614997).
MG BCs: Computational effort saved:  99.9823%.
MG BCs: Charge after coarse-graining:           -9.0006763.
MG DL_MG: Calling solver with defect correction order = 8
MG DL_MG: Solver finished
MG Hartree energy from (\int phi*rho dr):              1257.977127
MG Hartree energy from (\int eps (grad phi)^2 dr):     1257.323834
MG Discrepancy due to finite box and discretization:     -0.653292 (  -0.05193%)
MG Correction to account for finite box:                  0.471300
MG Remaining discrepancy, due to discretization:         -0.181993 (  -0.01447%)
     Trial step:       0.560382501894
             Q1:  -11698.359410206787
 Quadratic coef:       0.011868681231
 Linear coef   :      -0.028227525352
           Qmin:  -11698.359834886714
Quadratic minimum step length (  0.666384536363) accepted
    Initial Ne1:    7228.00025128
      Final Ne1:    7228.00000000

=================== Penalty functional idempotency correction ==================
 RMS occupancy error at iteration   1:  0.000102 (step -0.4943 Ne1=   7228.0000)
 RMS occupancy error at iteration   2:  0.000000 (step -0.5000 Ne1=   7228.0000)
            Final RMS occupancy error   :  0.000000 (Ne1=   7228.0000)
               Final occupancy bounds   : [  0.0000,  1.0000]
================================================================================

    4        -1.169834305136E+04     3.4277E-05     3.1010E-05    -5.3573E-02
MG BCs: +ve charge blocks (gridpoints):     25256 (   17266141).
MG BCs: -ve charge blocks (gridpoints):      8479 (    1089473).
MG BCs:     Elided blocks (gridpoints):    168658 (  172615011).
MG BCs: Computational effort saved:  99.9823%.
MG BCs: Charge after coarse-graining:           -9.0006763.
MG DL_MG: Calling solver with defect correction order = 8
MG DL_MG: Solver finished
MG Hartree energy from (\int phi*rho dr):              1257.981367
MG Hartree energy from (\int eps (grad phi)^2 dr):     1257.328106
MG Discrepancy due to finite box and discretization:     -0.653261 (  -0.05193%)
MG Correction to account for finite box:                  0.471290
MG Remaining discrepancy, due to discretization:         -0.181971 (  -0.01447%)
      ideal mu1:      -0.715819579117
             Q0:  -11698.359832892544
             G0:      -0.038662708530
   RMS gradient:       0.000030076973
MG BCs: +ve charge blocks (gridpoints):     25254 (   17267126).
MG BCs: -ve charge blocks (gridpoints):      8476 (    1089121).
MG BCs:     Elided blocks (gridpoints):    168660 (  172614378).
MG BCs: Computational effort saved:  99.9823%.
MG BCs: Charge after coarse-graining:           -9.0006762.
MG DL_MG: Calling solver with defect correction order = 8
MG DL_MG: Solver finished
MG Hartree energy from (\int phi*rho dr):              1258.626713
MG Hartree energy from (\int eps (grad phi)^2 dr):     1257.973625
MG Discrepancy due to finite box and discretization:     -0.653088 (  -0.05189%)
MG Correction to account for finite box:                  0.471183
MG Remaining discrepancy, due to discretization:         -0.181905 (  -0.01445%)
     Trial step:       0.611089382750
             Q1:  -11698.375520758214
 Quadratic coef:       0.007938505021
 Linear coef   :      -0.023626370691
           Qmin:  -11698.377411938931
Quadratic minimum step length (  0.909354106578) accepted
    Initial Ne1:    7228.00026399
      Final Ne1:    7228.00000000

=================== Penalty functional idempotency correction ==================
 RMS occupancy error at iteration   1:  0.000417 (step -0.4739 Ne1=   7228.0000)
 RMS occupancy error at iteration   2:  0.000005 (step -0.4998 Ne1=   7228.0000)
            Final RMS occupancy error   :  0.000000 (Ne1=   7228.0000)
               Final occupancy bounds   : [ -0.0000,  1.0000]
================================================================================

    5        -1.169835983289E+04     3.0077E-05     2.7210E-05    -1.6782E-02
MG BCs: +ve charge blocks (gridpoints):     25254 (   17267580).
MG BCs: -ve charge blocks (gridpoints):      8472 (    1088970).
MG BCs:     Elided blocks (gridpoints):    168660 (  172614075).
MG BCs: Computational effort saved:  99.9823%.
MG BCs: Charge after coarse-graining:           -9.0006761.
MG DL_MG: Calling solver with defect correction order = 8
MG DL_MG: Solver finished
MG Hartree energy from (\int phi*rho dr):              1258.942523
MG Hartree energy from (\int eps (grad phi)^2 dr):     1258.289521
MG Discrepancy due to finite box and discretization:     -0.653003 (  -0.05187%)
MG Correction to account for finite box:                  0.471130
MG Remaining discrepancy, due to discretization:         -0.181873 (  -0.01445%)
      ideal mu1:      -0.717214044762
             Q0:  -11698.377227486111
             G0:      -0.042859985049
   RMS gradient:       0.000031785468
MG BCs: +ve charge blocks (gridpoints):     25253 (   17267695).
MG BCs: -ve charge blocks (gridpoints):      8475 (    1088997).
MG BCs:     Elided blocks (gridpoints):    168661 (  172613933).
MG BCs: Computational effort saved:  99.9823%.
MG BCs: Charge after coarse-graining:           -9.0006760.
MG DL_MG: Calling solver with defect correction order = 8
MG DL_MG: Solver finished
MG Hartree energy from (\int phi*rho dr):              1258.829076
MG Hartree energy from (\int eps (grad phi)^2 dr):     1258.176263
MG Discrepancy due to finite box and discretization:     -0.652813 (  -0.05186%)
MG Correction to account for finite box:                  0.470955
MG Remaining discrepancy, due to discretization:         -0.181858 (  -0.01445%)
     Trial step:       0.745450628607
             Q1:  -11698.399091165396
 Quadratic coef:       0.010086323511
 Linear coef   :      -0.031950002797
           Qmin:  -11698.402529140318
Quadratic minimum step length (  1.180665563763) accepted
    Initial Ne1:    7228.00040907
      Final Ne1:    7228.00000000

=================== Penalty functional idempotency correction ==================
 RMS occupancy error at iteration   1:  0.001962 (step -0.3968 Ne1=   7228.0000)
 RMS occupancy error at iteration   2:  0.000085 (step -0.4959 Ne1=   7228.0000)
 RMS occupancy error at iteration   3:  0.000001 (step -0.5000 Ne1=   7228.0000)
            Final RMS occupancy error   :  0.000000 (Ne1=   7228.0000)
               Final occupancy bounds   : [  0.0000,  1.0000]
================================================================================

    6        -1.169837722749E+04     3.1785E-05     2.8756E-05    -1.7395E-02
MG BCs: +ve charge blocks (gridpoints):     25254 (   17267683).
MG BCs: -ve charge blocks (gridpoints):      8475 (    1089061).
MG BCs:     Elided blocks (gridpoints):    168660 (  172613881).
MG BCs: Computational effort saved:  99.9823%.
MG BCs: Charge after coarse-graining:           -9.0006760.
MG DL_MG: Calling solver with defect correction order = 8
MG DL_MG: Solver finished
MG Hartree energy from (\int phi*rho dr):              1258.765853
MG Hartree energy from (\int eps (grad phi)^2 dr):     1258.113134
MG Discrepancy due to finite box and discretization:     -0.652719 (  -0.05185%)
MG Correction to account for finite box:                  0.470869
MG Remaining discrepancy, due to discretization:         -0.181850 (  -0.01445%)
      ideal mu1:      -0.718098539153
             Q0:  -11698.401792542194
             G0:      -0.059662413344
   RMS gradient:       0.000037354168
MG BCs: +ve charge blocks (gridpoints):     25254 (   17266006).
MG BCs: -ve charge blocks (gridpoints):      8476 (    1089510).
MG BCs:     Elided blocks (gridpoints):    168660 (  172615109).
MG BCs: Computational effort saved:  99.9823%.
MG BCs: Charge after coarse-graining:           -9.0006763.
MG DL_MG: Calling solver with defect correction order = 8
MG DL_MG: Solver finished
MG Hartree energy from (\int phi*rho dr):              1257.879922
MG Hartree energy from (\int eps (grad phi)^2 dr):     1257.227102
MG Discrepancy due to finite box and discretization:     -0.652820 (  -0.05190%)
MG Correction to account for finite box:                  0.470892
MG Remaining discrepancy, due to discretization:         -0.181928 (  -0.01446%)
     Trial step:       0.938151313319
             Q1:  -11698.412677298882
 Quadratic coef:       0.045087614746
 Linear coef   :      -0.055972371434
           Qmin:  -11698.419163755894
Quadratic minimum step length (  0.582316829871) accepted
    Initial Ne1:    7227.99999997
      Final Ne1:    7228.00000000

=================== Penalty functional idempotency correction ==================
 RMS occupancy error at iteration   1:  0.000025 (step -0.4982 Ne1=   7228.0000)
            Final RMS occupancy error   :  0.000000 (Ne1=   7228.0000)
               Final occupancy bounds   : [ -0.0000,  1.0000]
================================================================================

    7        -1.169840179254E+04     3.7354E-05     3.3793E-05    -2.4565E-02
MG BCs: +ve charge blocks (gridpoints):     25253 (   17266604).
MG BCs: -ve charge blocks (gridpoints):      8475 (    1089363).
MG BCs:     Elided blocks (gridpoints):    168661 (  172614658).
MG BCs: Computational effort saved:  99.9823%.
MG BCs: Charge after coarse-graining:           -9.0006762.
MG DL_MG: Calling solver with defect correction order = 8
MG DL_MG: Solver finished
MG Hartree energy from (\int phi*rho dr):              1258.213094
MG Hartree energy from (\int eps (grad phi)^2 dr):     1257.560311
MG Discrepancy due to finite box and discretization:     -0.652783 (  -0.05188%)
MG Correction to account for finite box:                  0.470885
MG Remaining discrepancy, due to discretization:         -0.181899 (  -0.01446%)
      ideal mu1:      -0.717481430364
             Q0:  -11698.419165388448
             G0:      -0.043692267200
   RMS gradient:       0.000031959970
MG BCs: +ve charge blocks (gridpoints):     25254 (   17266501).
MG BCs: -ve charge blocks (gridpoints):      8477 (    1089376).
MG BCs:     Elided blocks (gridpoints):    168660 (  172614748).
MG BCs: Computational effort saved:  99.9823%.
MG BCs: Charge after coarse-graining:           -9.0006763.
MG DL_MG: Calling solver with defect correction order = 8
MG DL_MG: Solver finished
MG Hartree energy from (\int phi*rho dr):              1257.961925
MG Hartree energy from (\int eps (grad phi)^2 dr):     1257.309089
MG Discrepancy due to finite box and discretization:     -0.652836 (  -0.05190%)
MG Correction to account for finite box:                  0.470852
MG Remaining discrepancy, due to discretization:         -0.181985 (  -0.01447%)
     Trial step:       0.739121978236
             Q1:  -11698.439092833549
 Quadratic coef:       0.012366469866
 Linear coef   :      -0.032293914967
           Qmin:  -11698.440248546278
[...]
MG Correction to account for finite box:                  0.006434
MG Remaining discrepancy, due to discretization:         -0.180879 (  -0.01487%)
     Trial step:       0.310972034687
             Q1:  -11732.996654280229
 Quadratic coef:       0.000000000748
 Linear coef   :      -0.000000000514
           Qmin:  -11732.996654280551
Quadratic minimum step length (  0.106888005638) accepted
    Initial Ne1:    7228.00000000
      Final Ne1:    7228.00000000

=================== Penalty functional idempotency correction ==================
 RMS occupancy error at iteration   1:  0.000000 (step -0.5000 Ne1=   7228.0000)
            Final RMS occupancy error   :  0.000000 (Ne1=   7228.0000)
               Final occupancy bounds   : [  0.0000,  1.0000]
================================================================================

    7        -1.173299665428E+04     6.2170E-09     5.6244E-09     0.0000E+00

Reusing previously generated solute cavity.
MG BCs: +ve charge blocks (gridpoints):     29570 (   19531372).
MG BCs: -ve charge blocks (gridpoints):      8482 (    1057738).
MG BCs:     Elided blocks (gridpoints):    164344 (  170381515).
MG BCs: Computational effort saved:  99.9801%.
MG BCs: Charge after coarse-graining:           -9.0009604.
MG DL_MG: Calling solver with defect correction order = 8
MG DL_MG: Solver finished
MG Hartree energy from (\int phi*rho dr):              1216.001645
MG Hartree energy from (\int eps (grad phi)^2 dr):     1215.814332
MG Discrepancy due to finite box and discretization:     -0.187313 (  -0.01540%)
MG Correction to account for finite box:                  0.006434
MG Remaining discrepancy, due to discretization:         -0.180879 (  -0.01487%)
      ideal mu1:      -0.480882549217
             Q0:  -11732.996654280345
             G0:      -0.000000002169
   RMS gradient:       0.000000005254

Reusing previously generated solute cavity.
MG BCs: +ve charge blocks (gridpoints):     29570 (   19531372).
MG BCs: -ve charge blocks (gridpoints):      8482 (    1057738).
MG BCs:     Elided blocks (gridpoints):    164344 (  170381515).
MG BCs: Computational effort saved:  99.9801%.
MG BCs: Charge after coarse-graining:           -9.0009604.
MG DL_MG: Calling solver with defect correction order = 8
MG DL_MG: Solver finished
MG Hartree energy from (\int phi*rho dr):              1216.001647
MG Hartree energy from (\int eps (grad phi)^2 dr):     1215.814334
MG Discrepancy due to finite box and discretization:     -0.187313 (  -0.01540%)
MG Correction to account for finite box:                  0.006434
MG Remaining discrepancy, due to discretization:         -0.180879 (  -0.01487%)
     Trial step:       0.182316155611
             Q1:  -11732.996654280112
 Quadratic coef:       0.000000000628
 Linear coef   :      -0.000000000395
           Qmin:  -11732.996654280407
Quadratic minimum step length (  0.057432731227) accepted
    Initial Ne1:    7228.00000000
      Final Ne1:    7228.00000000

=================== Penalty functional idempotency correction ==================
 RMS occupancy error at iteration   1:  0.000000 (step -0.5000 Ne1=   7228.0000)
            Final RMS occupancy error   :  0.000000 (Ne1=   7228.0000)
               Final occupancy bounds   : [ -0.0000,  1.0000]
================================================================================

    8        -1.173299665428E+04     5.2537E-09     4.7529E-09     1.1642E-10

Reusing previously generated solute cavity.
MG BCs: +ve charge blocks (gridpoints):     29570 (   19531372).
MG BCs: -ve charge blocks (gridpoints):      8482 (    1057738).
MG BCs:     Elided blocks (gridpoints):    164344 (  170381515).
MG BCs: Computational effort saved:  99.9801%.
MG BCs: Charge after coarse-graining:           -9.0009604.
MG DL_MG: Calling solver with defect correction order = 8
MG DL_MG: Solver finished
MG Hartree energy from (\int phi*rho dr):              1216.001645
MG Hartree energy from (\int eps (grad phi)^2 dr):     1215.814333
MG Discrepancy due to finite box and discretization:     -0.187313 (  -0.01540%)
MG Correction to account for finite box:                  0.006434
MG Remaining discrepancy, due to discretization:         -0.180879 (  -0.01487%)
      ideal mu1:      -0.480882548668
             Q0:  -11732.996654280345
             G0:      -0.000000002287
   RMS gradient:       0.000000004562

Reusing previously generated solute cavity.
MG BCs: +ve charge blocks (gridpoints):     29570 (   19531372).
MG BCs: -ve charge blocks (gridpoints):      8482 (    1057738).
MG BCs:     Elided blocks (gridpoints):    164344 (  170381515).
MG BCs: Computational effort saved:  99.9801%.
MG BCs: Charge after coarse-graining:           -9.0009604.
MG DL_MG: Calling solver with defect correction order = 8
MG DL_MG: Solver finished
MG Hartree energy from (\int phi*rho dr):              1216.001647
MG Hartree energy from (\int eps (grad phi)^2 dr):     1215.814334
MG Discrepancy due to finite box and discretization:     -0.187313 (  -0.01540%)
MG Correction to account for finite box:                  0.006434
MG Remaining discrepancy, due to discretization:         -0.180879 (  -0.01487%)
     Trial step:       0.102327487820
             Q1:  -11732.996654280112
 Quadratic coef:       0.000000000467
 Linear coef   :      -0.000000000234
           Qmin:  -11732.996654280374
Quadratic minimum step length (  0.025612629532) accepted
    Initial Ne1:    7228.00000000
      Final Ne1:    7228.00000000

=================== Penalty functional idempotency correction ==================
 RMS occupancy error at iteration   1:  0.000000 (step -0.5000 Ne1=   7228.0000)
            Final RMS occupancy error   :  0.000000 (Ne1=   7228.0000)
               Final occupancy bounds   : [  0.0000,  1.0000]
================================================================================

    9        -1.173299665428E+04     4.5619E-09     4.1270E-09     0.0000E+00

Reusing previously generated solute cavity.
MG BCs: +ve charge blocks (gridpoints):     29570 (   19531372).
MG BCs: -ve charge blocks (gridpoints):      8482 (    1057738).
MG BCs:     Elided blocks (gridpoints):    164344 (  170381515).
MG BCs: Computational effort saved:  99.9801%.
MG BCs: Charge after coarse-graining:           -9.0009604.
MG DL_MG: Calling solver with defect correction order = 8
MG DL_MG: Solver finished
MG Hartree energy from (\int phi*rho dr):              1216.001646
MG Hartree energy from (\int eps (grad phi)^2 dr):     1215.814333
MG Discrepancy due to finite box and discretization:     -0.187313 (  -0.01540%)
MG Correction to account for finite box:                  0.006434
MG Remaining discrepancy, due to discretization:         -0.180879 (  -0.01487%)
      ideal mu1:      -0.480882548262
   10        -1.173299665428E+04     4.2297E-09     3.8265E-09     1.1642E-10
Finished density kernel iterations (  10)

Writing density kernel to file "complex_3141.dkn" ... done


>>> Density kernel optimised for the current NGWF basis:
     ~~~~~~~~~~~~~~~~~~~~~~~~~~~~~~~~~~~~~~~~~~~~~~~~~~~~~~~~~~~
     Total energy                =  -1.17329966542802E+04  Eh
     Estimated bandgap           =   9.3975E-02  Eh
     RMS occupancy error         =   2.5955E-16
     [H,K] commutator            =   3.8265E-09
     Occupancy bounds            = [ -0.000:  1.000]
     ~~~~~~~~~~~~~~~~~~~~~~~~~~~~~~~~~~~~~~~~~~~~~~~~~~~~~~~~~~~




################################################################################
########################### NGWF CG iteration  005 #############################
################################################################################
****** Reciprocal space K.E. preconditioning with k_zero =  3.5000 a0^-1 *******

>>> Checking for convergence of NGWFs: 
           ........................................................
           |         *** NGWF optimisation converged ***          |
           | RMS NGWF gradient =    0.00000093125804              |
           | Criteria satisfied:                                  |
           | -> RMS NGWF gradient lower than set threshold.       |
           ========================================================

Reusing previously generated solute cavity.
MG BCs: +ve charge blocks (gridpoints):     29570 (   19531372).
MG BCs: -ve charge blocks (gridpoints):      8482 (    1057738).
MG BCs:     Elided blocks (gridpoints):    164344 (  170381515).
MG BCs: Computational effort saved:  99.9801%.
MG BCs: Charge after coarse-graining:           -9.0009604.
MG DL_MG: Calling solver with defect correction order = 8
MG DL_MG: Solver finished
MG Hartree energy from (\int phi*rho dr):              1216.001646
MG Hartree energy from (\int eps (grad phi)^2 dr):     1215.814333
MG Discrepancy due to finite box and discretization:     -0.187313 (  -0.01540%)
MG Correction to account for finite box:                  0.006434
MG Remaining discrepancy, due to discretization:         -0.180879 (  -0.01487%)

================================================================================
           ---------------- ENERGY COMPONENTS (Eh) ----------------
           | Kinetic                    :     8566.70810043079837 |
           | Pseudo. (local,OBC,corr'd) :    -5071.87282125065121 |
           | Pseudopotential (non-local):     1409.76162983832955 |
           | Hartree (molecular)        :     1216.00164571694086 |
           | Exchange-correlation       :    -3373.05205682779797 |
           | Ion-ion (open BC)          :   829155.26381960930303 |
           | Dispersion Correction      :       -3.24405825263483 |
           | Smeared ion non-self corr. :  -829107.24258576054126 |
           | Smeared ion self corr.     :   -14525.98710726666468 |
           | Solvent cavitation energy  :        2.37224755885162 |
           | Solute-solvent dis-rep en. :       -1.70546807624740 |
           | Total                      :   -11732.99665428033404 |
           --------------------------------------------------------
           ------ LOCAL ENERGY COMPONENTS FROM MATRIX TRACES ------
           | Pseudopotential (local)    :    -5071.87282125065667 |
           | Hartree                    :    -1999.53469074870054 |
           --------------------------------------------------------
           Integrated density           :     7227.99999999893498
           Integrated density tr(KS)    :     7228.00000000000091
================================================================================


                        <<<<< CALCULATION SUMMARY >>>>>                         
|ITER|    RMS GRADIENT   |     TOTAL ENERGY    |   step   |     Epredicted              
   0     0.00003954846126 -11732.93464049848262   0.623534 -11732.98817248616069        
   1     0.00001031418626 -11732.99598151526880   0.095992 -11732.99654204726903        
   2     0.00000460985876 -11732.99662933358923   0.017941 -11732.99665026099683        
   3     0.00000208230162 -11732.99665323854424   0.003717 -11732.99665412312606        
   4     0.00000093125804 -11732.99665428022854  <-- CG                                 

=================== Finished the calculation in solvent ========================
= Adjusting the following parameters: 
= read_denskern: F
= read_tightbox_ngwfs: F
= maxit_pen: 0 (restored to user-specified value)
= restart read filename prefix: ""
= restart write filename prefix: ""
================================================================================

================================================================================
IS: Calculation in solvent completed (NGWFs converged).      

Individual components of total energy in solvent:     hartree           kcal/mol
- Usual non-electrostatic DFT terms:    -12949.66507947977334    -8126037.347022
- Electrostatic fixed charge energy:      1216.00164571694086      763052.536609
- Apolar cavitation energy:                  2.37224755885162        1488.607786
- Apolar dispersion-repulsion energy:       -1.70546807624740       -1070.197352
 -------------------------------------------------------------------------------
- Total energy in solvent:              -11732.99665428022854    -7362566.399980

Components of total energy in solvent:                hartree           kcal/mol
- Usual non-electrostatic DFT terms:    -12949.66507947977334    -8126037.347022
- Electrostatic energy:                   1216.00164571694086      763052.536609
- Apolar energy terms:                       0.66677948260422         418.410433
 -------------------------------------------------------------------------------
- Total energy in solvent:              -11732.99665428022854    -7362566.399980

Calculation of free energy of solvation:              hartree           kcal/mol
- Total energy in solvent:         (+)  -11732.99665428022854    -7362566.399980
- Total energy in vacuum:          (-)  -11729.17122677189764    -7360165.908028
 -------------------------------------------------------------------------------
- Total free energy of solvation:           -3.82542750833090       -2400.491952

Components of polar term in f.e. of solvation:        hartree           kcal/mol
- Electrostatic:                            -4.81123100611990       -3019.092973
- Change in nonelectrostatic DFT terms:      0.31902401518528         200.190588
 -------------------------------------------------------------------------------
- Polar term in f.e. of solvation:          -4.49220699093462       -2818.902385

Components of free energy of solvation:               hartree           kcal/mol
- Polar term in f.e. of solvation: (+)      -4.49220699093462       -2818.902385
- Apolar (cavitation, dis., rep.): (+)       0.66677948260422         418.410433
 -------------------------------------------------------------------------------
- Total free energy of solvation:           -3.82542750833040       -2400.491952
================================================================================


------------------------------ TIMING INFORMATION ------------------------------
AVERAGE TIME:   36520.785s on     60 node(s)                                    
TOTAL TIME:     36520.786s on     60 node(s)                                    
================= AVERAGE TIMINGS FROM ALL NODES (CUMULATIVE) ==================
|| TAG                                    #calls    cpu time   %total  Gflops ||
|| work_imbalance                       :     1        0.00s   0.000%  ------ ||
|| sparse_set_to_garbage                :   200        0.03s   0.000%  ------ ||
|| parallel_prepare_fd_halos_request    :  2187        0.04s   0.000%  ------ ||
|| ngwfs_initialise_from_radial         :     1        0.11s   0.000%  ------ ||
|| basis_extract_function_from_box      :  4032        0.18s   0.001%  ------ ||
|| parallel_prepare_fd_halos_satisfy    :  2187        0.78s   0.002%  ------ ||
|| parallel_prepare_fd_halos_alloc      :  2187        1.97s   0.005%  ------ ||
|| pseudopotentials_nonlocal_mat        :    34        2.68s   0.007%  ------ ||
|| openbc_locps_radial                  :     1        4.65s   0.013%  ------ ||
|| restart_kernel_read                  :     1        6.70s   0.018%  ------ ||
|| restart_ngwfs_tightbox_input         :     1        8.46s   0.023%  ------ ||
|| density_init_guess_real              :     1       10.75s   0.029%  ------ ||
|| parallel_prepare_fd_halos_comms_imbal:  2187       11.50s   0.031%  ------ ||
|| parallel_prepare_fd_halos_clear      :  2187       22.78s   0.062%  ------ ||
|| sparse_init                          :     2       23.37s   0.064%  ------ ||
|| projectors_func_ovlp_box             :    34       31.22s   0.085%  ------ ||
|| parallel_prepare_fd_halos_comms_wait :  2187       31.85s   0.087%  ------ ||
|| palser_mano_kernel_optimise          :     1       33.45s   0.092%  ------ ||
|| function_ops_brappd_ketppd           :    34       35.42s   0.097%  ------ ||
|| projectors_init_fftbox_recip         :   160       38.99s   0.107%  ------ ||
|| basis_copy_function_to_box           : 65607       50.82s   0.139%  ------ ||
|| ngwf_gradient_coeffs                 :    18       53.32s   0.146%  ------ ||
|| fourier_apply_box_pair               :  5792       61.81s   0.169% 577.884 ||
|| pseudo_make_structure_factor         :     2       63.65s   0.174%  ------ ||
|| parallel_prepare_fd_halos            :  2187       68.94s   0.189%  ------ ||
|| sparse_embed_hotelling_invert_embed  :    34       85.85s   0.235%  ------ ||
|| restart_kernel_write                 :    19      112.02s   0.307%  ------ ||
|| finite_difference_derivative         :  2187      171.49s   0.470%  ------ ||
|| integrals_kinetic                    :    34      175.27s   0.480%  ------ ||
|| projectors_gradient_batch            :   126      182.92s   0.501%  ------ ||
|| basis_dot_function_with_box          : 9.859M     198.91s   0.545%  ------ ||
|| fourier_apply_cell_backward          :  1459      204.72s   0.561%  95.706 ||
|| sparse_trace                         :  5916      230.50s   0.631%  ------ ||
|| openbc_locps_on_grid                 :     2      261.74s   0.717%  ------ ||
|| fourier_apply_cell_forward           :  1457      268.27s   0.735%  72.935 ||
|| kernel_purify                        :   557      327.97s   0.898%  ------ ||
|| basis_add_function_to_box            : 20.63M     482.05s   1.320%  ------ ||
|| lnv_gradient_norm                    :   180      483.51s   1.324%  ------ ||
|| hamiltonian_energy_components        :     4      513.98s   1.407%  ------ ||
|| xc_energy_potential                  :   364      545.85s   1.495%  ------ ||
|| kernel_fix                           :   180      567.66s   1.554%  ------ ||
|| integrals_locpot_mat_els_batch       :  1323      886.80s   2.428%  ------ ||
|| ngwf_gradient_build_batch            :   126      929.18s   2.544%  ------ ||
|| density_batch_row_sums               :  2541     1268.65s   3.474%  ------ ||
|| ngwf_gradient_batch                  :   126     1295.45s   3.547%  ------ ||
|| restart_ngwfs_tightbox_output        :    16     1339.15s   3.667%  ------ ||
|| ngwf_gradient_lnv                    :    18     1468.61s   4.021%  ------ ||
|| cell_grid_deposit_box_real           : 41797     1656.03s   4.534%  ------ ||
|| cell_grid_extract_box_real           : 45684     1819.56s   4.982%  ------ ||
|| sparse_product                       :  7437     2028.96s   5.556%  ------ ||
|| density_fftbox_deposit_to_cell       : 39567     2458.82s   6.733%  ------ ||
|| potential_apply_to_ngwf_batch        :  1323     4420.09s  12.103%  ------ ||
|| density_fftbox_interpolate_multiply  : 39567     4427.11s  12.122%  ------ ||
|| multigrid_prepare_bound_cond         :   364     5137.39s  14.067%  ------ ||
|| integrals_locpot_dbl_grid            :   189     5331.85s  14.600%  ------ ||
|| fourier_apply_box                    : 137.1k    5427.68s  14.862% 754.543 ||
|| density_batch_interp_deposit         :  2541     8038.84s  22.012%  ------ ||
|| dl_mg_solver_calls                   :   364     8709.82s  23.849%  ------ ||
|| density_on_dbl_grid                  :   363     9789.01s  26.804%  ------ ||
|| multigrid_calculate_hartree          :   364    14084.13s  38.565%  ------ ||
|| hamiltonian_lhxc_calculate           :   359    24371.15s  66.732%  ------ ||
|| lnv_denskernel_optimise_cg           :    18    30646.21s  83.914%  ------ ||
|| ngwf_cg_optimise                     :     2    35523.32s  97.269%  ------ ||
|| total_time                           :     1    36520.79s 100.000%  ------ ||
================================================================================
Overhead of generating timer report: 
- 0 ms averaging over threads,
- 15 ms ensuring consistency across MPI ranks,
- 1 ms printing in order.

Job completed: 11-06-2020 18:18 (+0100)

Application 40829135 resources: utime ~7598141s, stime ~254898s, Rss ~3785004, inblocks ~351139898, outblocks ~76967705
