 +---------------------------------------------------------------+
 |                                                               |
 |        ####### #     # ####### ####### ####### ######         |
 |        #     # ##    # #          #    #       #     #        |
 |        #     # # #   # #          #    #       #     #        |
 |        #     # #  #  # #####      #    #####   ######         |
 |        #     # #   # # #          #    #       #              |
 |        #     # #    ## #          #    #       #              |
 |        ####### #     # #######    #    ####### #              |
 |                                                               |
 |        Linear-Scaling Ab Initio Total Energy Program          |
 |                                                               |
 |          Release for academic collaborators of ODG            |
 |                                             Version 5.3.2.6.  |
 |                                                               |
 +---------------------------------------------------------------+
 |                                                               |
 |  Authors:                                                     |
 |  Jacek Dziedzic, Peter D. Haynes, Nicholas D. M. Hine,        |
 |  Arash. A. Mostofi, Mike C. Payne and Chris-Kriton Skylaris   |
 |                                                               |
 |  Contributors:                                                |
 |  J. Aarons, L. Andrinopoulos, P. W. Avraam, R. A. Bell,       |
 |  A. Bhandari, G. A. Bramley, R. J. Charlton, S. J. Clark,     |
 |  R. J. Clements, G. C. Constantinescu, F. Corsetti,           |
 |  N. Corsini, O. Dieguez, S. M. M. Dubois, K. K. B. Duff,      |
 |  J. M. Escartin, A. Greco, H. Helal, Q. O. Hill, L. P. Lee,   |
 |  J.-H. Li, E. B. Linscott, G. Moynihan, D. D. O`Regan,        |
 |  O. K. Okan, M. J. S. Phipps, C. J. Pickard,                  |
 |  J. C. A. Prentice, M. I. J. Probert, L. E. Ratcliff,         |
 |  M. Robinson, A. Ruiz Serrano, J. S. Spencer, E. W. Tait,     |
 |  G. Teobaldi, D. Turban, V. Vitale, K. A. Wilkinson,          |
 |  C. Weber, J. C. Womack, N. Yeung and T. J. Zuehlsdorff       |
 |                                                               |
 |                                   Copyright (c) 2004-2019     |
 |                                                               |
 |  Please cite:                                                 |
 |  "Introducing ONETEP: Linear-scaling density functional       |
 |   simulations on parallel computers".                         |
 |   C.-K. Skylaris, P. D. Haynes, A. A. Mostofi, M. C. Payne.   |
 |   J. Chem. Phys. 122 084119 (2005).                           |
 |                                                               |
 |          in all publications arising from your use of ONETEP. |
 |                                                               |
 +---------------------------------------------------------------+
 |                                                               |
 |   ONETEP is based on developments described in the following  |
 |   publications:                                               |
 |                                                               |
 |  "Nonorthogonal generalized Wannier function pseudopotential  |
 |   plane-wave method".                                         |
 |   C.-K. Skylaris, A. A. Mostofi, P. D. Haynes, O. Dieguez,    |
 |   M. C. Payne.                                                |
 |   Phys. Rev. B 66 035119 (2002).                              |
 |                                                               |
 |  "Preconditioned iterative minimization for linear-scaling    |
 |   electronic structure calculations".                         |
 |   A. A. Mostofi, P. D. Haynes, C.-K. Skylaris, M. C. Payne.   |
 |   J. Chem. Phys. 119(17), pp.8842-8848 (2003).                |
 |                                                               |
 |  "Total-energy calculations on a real space grid with         |
 |   localized functions and a plane-wave basis".                |
 |   A. A. Mostofi, C.-K. Skylaris, P. D. Haynes, M. C. Payne.   |
 |   Comput. Phys. Commun. 147, pp.788-802 (2002).               |
 |                                                               |
 |  "Accurate kinetic energy evaluation in electronic structure  |
 |   calculations with localized functions on real space grids"  |
 |   C.-K. Skylaris, A. A. Mostofi, P. D. Haynes, C. J. Pickard, |
 |   M. C. Payne.                                                |
 |   Comput. Phys. Commun. 140, pp.315-322 (2001).               |
 |                                                               |
 |  "Accurate ionic forces and geometry optimization in linear-  |
 |   scaling density-functional theory with local orbitals"      |
 |   N. D. M. Hine, M. Robinson, P. D. Haynes, C.-K. Skylaris,   |
 |   M. C. Payne, and A. A. Mostofi.                             |
 |   Phys. Rev. B 83 195102 (2011).                              |
 |                                                               |
 +---------------------------------------------------------------+

Job started: 29-02-2020 06:16 (-0000)
 
Reading parameters from file "complex_4281.dat" ...... done

If your calculation crashes here, before "Checking processes and threads..."
is displayed, then your stack size is insufficient.
If so, use "ulimit -s unlimited" at runtime.
You can disable this check with "check_stack_size F".

Checking processes and threads...
   Determining the default number of threads...
      No default threads set at compilation time: defaulting to 1.
      OpenMP library call suggests 4 threads.
      Hybrid MPI-OpenMP compilation detected.
      Number of MPI processes > 1.
      OMP_NUM_THREADS environment variable present and
      its value matches the one obtained from the OpenMP library call.
      Using this value as default.
      Default threads: 4
      Default applies to threads_max and threads_num_fftboxes.
      Settings in the input file override this default.
   ... done

   Running with 60 MPI processes.
   There are 6 MPI processes running on the same node as the root process.
   Each MPI process is using: 
               1 threads for simulation cell FFTs.
               1 threads for parallel FFT box operations.
               4 threads for loops over batched FFT box operations.
               4 threads in other parallel regions.
... done

Basic input checks...... done

Reading geometry and species blocks from file "complex_4281.dat" ...
  <species_atomic_set> block not found: NGWF initialisation set to SOLVE
IS: Dielectric excluded regions:
    - NONE.
    
  Number of PPD points along a3 set to 1.  This is 
  the default value, it may have been provided also in the input file.
... done
 Writing xyz coordinates to file "complex_4281.xyz" ... done


--------------------------------------------------------------------------------
---------------------------------- INPUT FILE ----------------------------------
--------------------------------------------------------------------------------

cutoff_energy       : 800 eV                                                    
xc_functional PBE                                                               
task SINGLEPOINT                                                                
write_xyz true                                                                  
output_detail VERBOSE                                                           
ngwf_threshold_orig : 0.000002                                                  
kernel_cutoff       : 1000                                                      
k_zero              : 3.5                                                       
elec_cg_max 0                                                                   
occ_mix 1.0                                                                     
dispersion 1                                                                    
maxit_ngwf_cg 40                                                                
minit_lnv 10                                                                    
maxit_lnv 10                                                                    
write_denskern T                                                                
write_tightbox_ngwfs T                                                          
charge 9                                                                        
is_implicit_solvent T                                                           
is_auto_solvation T                                                             
is_include_apolar T                                                             
is_smeared_ion_rep T                                                            
is_solvent_surf_tension 4.7624E-5 Ha/bohr**2                                    
is_apolar_scaling_factor 0.281075                                               
is_solvation_beta 1.3                                                           
is_density_threshold 0.00035                                                    
is_bulk_permittivity 78.54                                                      
is_dielectric_model fix_initial                                                 
is_smeared_ion_width 0.8                                                        
mg_defco_fd_order 8                                                             
is_bc_coarseness 10                                                             
is_bc_surface_coarseness 1                                                      
fine_grid_scale 2.0                                                             
%block species                                                                  
N   N   7 4 8.0                                                                 
H   H   1 1 8.0                                                                 
C   C   6 4 8.0                                                                 
S   S  16 9 8.0                                                                 
O   O   8 4 8.0                                                                 
%endblock species                                                               
%block species_pot                                                              
N   N_00.recpot                                                                 
H   H_04.recpot                                                                 
C   C_01.recpot                                                                 
S   S_00.recpot                                                                 
O   O_02.recpot                                                                 
%endblock species_pot                                                           
%block lattice_cart                                                             
135.996   0.000   0.000                                                         
0.000 142.663   0.000                                                           
0.000   0.000   160.158                                                         
%endblock lattice_cart                                                          
%block positions_abs                                                            
     Hash =  -000003242772918927843860
%endblock positions_abs                                                         

--------------------------------------------------------------------------------
-------------------------------- END INPUT FILE --------------------------------
--------------------------------------------------------------------------------


 
 ESDF WARNING(1): "kernelcutoff" (esdf_physical) has no units. Assume "bohr".
 ESDF WARNING(2): "kzero" (esdf_physical) has no units. Assume "1/bohr".
 ESDF WARNING(3
 ): "issmearedionwidth" (esdf_physical) has no units. Assume "bohr".
<<<<<<<<<<<<<<<<<<<<<<<<<<<<<<<<< Full system >>>>>>>>>>>>>>>>>>>>>>>>>>>>>>>>>>
<<<<<<<<<<<<<<<<<<<<<<<<< Pseudopotential information >>>>>>>>>>>>>>>>>>>>>>>>>>
File: N_00.recpot [ 2001 points up to Gmax=  52.9 (1/bohr)]
  Atomic number:  7;  ionic charge:  5.000000
    Shell 1: l = 0; rc = 1.48 bohr
File: H_04.recpot [ 2001 points up to Gmax=  52.9 (1/bohr)]
  Atomic number:  1;  ionic charge:  1.000000
    Local potential
File: C_01.recpot [ 2001 points up to Gmax=  52.9 (1/bohr)]
  Atomic number:  6;  ionic charge:  4.000000
    Shell 1: l = 0; rc = 1.48 bohr
File: S_00.recpot [ 2001 points up to Gmax=  52.9 (1/bohr)]
  Atomic number: 16;  ionic charge:  6.000000
    Shell 1: l = 0; rc = 1.90 bohr
    Shell 2: l = 2; rc = 1.84 bohr
File: O_02.recpot [ 2001 points up to Gmax=  52.9 (1/bohr)]
  Atomic number:  8;  ionic charge:  6.000000
    Shell 1: l = 0; rc = 1.31 bohr
<<<<<<<<<<<<<<<<<<<<<<<<<<<<<<<<<<<<<<<<>>>>>>>>>>>>>>>>>>>>>>>>>>>>>>>>>>>>>>>>

-------------------------- Atom counting information ---------------------------
Symbol    Natoms    Nngwfs    Nprojs
  N        236       944       236
  H       1317      1317         0
  C        816      3264       816
  S          6        54        36
  O        240       960       240
.......   ......    ......    ......
Totals:   2615      6539      1328
--------------------------------------------------------------------------------

=============================== PSINC grid sizes ===============================
                      Simulation cell:  270 x 286 x 315
                              FFT-box:   99 x 105 x  99
                                  PPD:    5 x  11 x   1
Grid space d1=  0.503688888889a0 (KE cutoff=  29.94189Eh = 814.76038eV)
Grid space d2=  0.498821678322a0 (KE cutoff=  30.52906Eh = 830.73786eV)
Grid space d3=  0.508438095238a0 (KE cutoff=  29.38514Eh = 799.61048eV)
================================================================================

********************* Fourier parallelisation information **********************
       Coarse grid (whole simulation cell) dimensions:    270   286   315
          Real-space ('12') slabs/node (min max mean):      5     6     5
         Recip-space ('23') slabs/node (min max mean):      2     3     2
********************************************************************************

********************* Fourier parallelisation information **********************
       Double grid (whole simulation cell) dimensions:    540   572   630
          Real-space ('12') slabs/node (min max mean):     10    11    10
         Recip-space ('23') slabs/node (min max mean):      4     5     4
********************************************************************************
ONETEP fine grid is 540 x 572 x 630 gridpoints, 135.9960 x 142.6630 x 160.1580 bohr.
FD multigrid is     537 x 569 x 625 gridpoints, 135.2405 x 141.9148 x 158.8869 bohr.


Calculating local pseudopotential in open BC on a radial grid ...
Discrepancy between calculated realspace psloc and -Z/x on [5a0,253.965a0]:
max |rel. diff| # avg |rel. diff| #  avg rel. diff #  f # pseudopotential file
 0.000259282084    0.000004141996   0.000000074978   54  'N_00.recpot'
 0.000405386992    0.000016970607  -0.000000075982   54  'H_04.recpot'
 0.000371694516    0.000017434762   0.000000149329   54  'C_01.recpot'
 0.000461642895    0.000020341726   0.000000491514   54  'S_00.recpot'
 0.000682525123    0.000027368244   0.000000159803   54  'O_02.recpot'
... done

Atom SCF Calculation for N  : Z (AE atom) =   7 : Z (PS atom) =   5
Config String:
Orbitals (num,occ):  2     2.00 3.00
Orbitals   (num,l):  2        0    1
Real-space Grid (nr,dr,rmax): 1203    0.0066555740    8.0000000000
Spherical Bessel Basis (nsws,lmax,cutoff):   47    1  176.3951722778
Confining potential (l,width,scale):  0    3.0000000000  100.0000000000
Confining potential (l,width,scale):  1    3.0000000000  100.0000000000
  1         -4.7312375307   -3.4155304497    7.0523828109   -1.9351020946
  2         -9.7309464766   -2.0532547791    8.2966052865   -2.2494486027
  3         -9.6627394379   -2.1124926340    8.2327997121   -2.2369778124
  4         -9.6814993499   -2.1215521045    8.2229805960   -2.2365178421
  5         -9.6843326483   -2.1250939529    8.2191374534   -2.2362718126
  6         -9.6859628709   -2.1267894855    8.2172963573   -2.2362066344
  7         -9.6867347035   -2.1276425665    8.2163697352   -2.2361903369
  8         -9.6870802100   -2.1280764625    8.2158983890   -2.2361891460
  9         -9.6872290423   -2.1282977424    8.2156580222   -2.2361920435
 10         -9.6872901988   -2.1284107021    8.2155353368   -2.2361953393
 11         -9.6873135296   -2.1284684031    8.2154726809   -2.2361979819
 12         -9.6873212476   -2.1284978948    8.2154406648   -2.2361998431
 13         -9.6873229586   -2.1285129774    8.2154242957   -2.2362010676
 14         -9.6873226456   -2.1285206957    8.2154159216   -2.2362018403
 15         -9.6873218534   -2.1285246479    8.2154116349   -2.2362023142
 16         -9.6873212599   -2.1285262679    8.2154098784   -2.2362025420
 17         -9.6873207834   -2.1285272564    8.2154088068   -2.2362026955
 18         -9.6873204210   -2.1285278596    8.2154081529   -2.2362027982
 19         -9.6873201550   -2.1285282280    8.2154077538   -2.2362028667
 20         -9.6873199645   -2.1285284529    8.2154075102   -2.2362029121
 21         -9.6873198305   -2.1285285903    8.2154073614   -2.2362029421
 22         -9.6873197377   -2.1285286742    8.2154072705   -2.2362029618
Atom SCF converged after  22 iterations to a total energy of     -9.68731974

Atom SCF Calculation for H  : Z (AE atom) =   1 : Z (PS atom) =   1
Config String:
Orbitals (num,occ):  1     1.00
Orbitals   (num,l):  1        0
Real-space Grid (nr,dr,rmax): 1203    0.0066555740    8.0000000000
Spherical Bessel Basis (nsws,lmax,cutoff):   47    0  176.3951722778
Confining potential (l,width,scale):  0    3.0000000000  100.0000000000
  1         -0.3194257691   -0.2393854593    0.2820953124   -0.2424203209
  2         -0.3951823392   -0.2377116493    0.2886404059   -0.2475147891
  3         -0.4317044583   -0.2352244387    0.2921333887   -0.2514046172
  4         -0.4470703708   -0.2341892222    0.2934391879   -0.2531009782
  5         -0.4532132900   -0.2338556667    0.2938388426   -0.2537313520
  6         -0.4556579251   -0.2337612552    0.2939448584   -0.2539550462
  7         -0.4566418315   -0.2337377355    0.2939680120   -0.2540342273
  8         -0.4570437922   -0.2337331116    0.2939708287   -0.2540627372
  9         -0.4572102946   -0.2337328328    0.2939698291   -0.2540732650
 10         -0.4572800424   -0.2337332404    0.2939687193   -0.2540772588
 11         -0.4573095100   -0.2337335791    0.2939680317   -0.2540788122
 12         -0.4573220379   -0.2337337762    0.2939676699   -0.2540794294
 13         -0.4573273880   -0.2337338775    0.2939674931   -0.2540796787
 14         -0.4573296803   -0.2337339266    0.2939674099   -0.2540797808
 15         -0.4573306647   -0.2337339495    0.2939673718   -0.2540798230
 16         -0.4573310882   -0.2337339601    0.2939673545   -0.2540798406
 17         -0.4573312706   -0.2337339649    0.2939673467   -0.2540798479
 18         -0.4573313493   -0.2337339670    0.2939673433   -0.2540798510
Atom SCF converged after  18 iterations to a total energy of     -0.45733135

Atom SCF Calculation for C  : Z (AE atom) =   6 : Z (PS atom) =   4
Config String:
Orbitals (num,occ):  2     2.00 2.00
Orbitals   (num,l):  2        0    1
Real-space Grid (nr,dr,rmax): 1203    0.0066555740    8.0000000000
Spherical Bessel Basis (nsws,lmax,cutoff):   47    1  176.3951722778
Confining potential (l,width,scale):  0    3.0000000000  100.0000000000
Confining potential (l,width,scale):  1    3.0000000000  100.0000000000
  1         -5.2976922011   -1.3069684169    4.5135249990   -1.4493313817
  2         -5.3721716256   -1.3429755895    4.4750154450   -1.4361613026
  3         -5.3809959565   -1.3617365618    4.4541655428   -1.4305930207
  4         -5.3918938866   -1.3667928461    4.4484735100   -1.4294652294
  5         -5.3956096428   -1.3688539142    4.4461376126   -1.4290734646
  6         -5.3968271862   -1.3696852393    4.4451910874   -1.4289366866
  7         -5.3972028401   -1.3700178062    4.4448112275   -1.4288900460
  8         -5.3973067903   -1.3701500158    4.4446598370   -1.4288749220
  9         -5.3973286940   -1.3702023868    4.4445997329   -1.4288704293
 10         -5.3973289850   -1.3702230869    4.4445759233   -1.4288693188
 11         -5.3973254264   -1.3702312560    4.4445665049   -1.4288691775
 12         -5.3973224003   -1.3702344755    4.4445627836   -1.4288692549
 13         -5.3973208708   -1.3702354890    4.4445616088   -1.4288693270
 14         -5.3973198783   -1.3702360102    4.4445610034   -1.4288693814
 15         -5.3973192535   -1.3702362780    4.4445606917   -1.4288694190
 16         -5.3973188684   -1.3702364155    4.4445605313   -1.4288694437
 17         -5.3973186349   -1.3702364860    4.4445604489   -1.4288694595
 18         -5.3973184951   -1.3702365221    4.4445604065   -1.4288694693
 19         -5.3973184122   -1.3702365405    4.4445603848   -1.4288694753
Atom SCF converged after  19 iterations to a total energy of     -5.39731841

Atom SCF Calculation for S  : Z (AE atom) =  16 : Z (PS atom) =   6
Config String:
Orbitals (num,occ):  3     2.00 4.00 0.00
Orbitals   (num,l):  3        0    1    2
Real-space Grid (nr,dr,rmax): 1203    0.0066555740    8.0000000000
Spherical Bessel Basis (nsws,lmax,cutoff):   47    2  176.3951722778
Confining potential (l,width,scale):  0    3.0000000000  100.0000000000
Confining potential (l,width,scale):  1    3.0000000000  100.0000000000
Confining potential (l,width,scale):  2    3.0000000000  100.0000000000
  1        -12.4735062396   -1.0328741412   10.1554312477   -2.4512393157
  2         -9.9458301913   -2.4607392455    8.3041325857   -2.0306994528
  3        -10.1450417646   -2.2931184565    8.4831893826   -2.0812538287
  4        -10.1528335592   -2.2733105793    8.5050388867   -2.0896035179
  5        -10.1571940363   -2.2633716629    8.5160794258   -2.0939370707
  6        -10.1594380571   -2.2584938667    8.5215163935   -2.0961289008
  7        -10.1605856507   -2.2561081821    8.5241804044   -2.0972291378
  8        -10.1611799191   -2.2549395235    8.5254868240   -2.0977806248
  9        -10.1614918752   -2.2543658586    8.5261285885   -2.0980571586
 10        -10.1616572884   -2.2540839121    8.5264441898   -2.0981959233
 11        -10.1617455602   -2.2539453058    8.5265994231   -2.0982656006
 12        -10.1617928447   -2.2538772062    8.5266757320   -2.0983006047
 13        -10.1618182292   -2.2538437891    8.5267131983   -2.0983181961
 14        -10.1618318741   -2.2538274201    8.5267315620   -2.0983270391
 15        -10.1618392144   -2.2538194197    8.5267405433   -2.0983314852
 16        -10.1618431651   -2.2538155200    8.5267449245   -2.0983337210
 17        -10.1618452923   -2.2538136252    8.5267470551   -2.0983348455
 18        -10.1618464380   -2.2538127080    8.5267480875   -2.0983354110
 19        -10.1618470552   -2.2538122659    8.5267485856   -2.0983356955
 20        -10.1618473878   -2.2538120540    8.5267488248   -2.0983358386
 21        -10.1618475670   -2.2538119530    8.5267489389   -2.0983359106
 22        -10.1618476637   -2.2538119053    8.5267489929   -2.0983359468
Atom SCF converged after  22 iterations to a total energy of    -10.16184766

Atom SCF Calculation for O  : Z (AE atom) =   8 : Z (PS atom) =   6
Config String:
Orbitals (num,occ):  2     2.00 4.00
Orbitals   (num,l):  2        0    1
Real-space Grid (nr,dr,rmax): 1203    0.0066555740    8.0000000000
Spherical Bessel Basis (nsws,lmax,cutoff):   47    1  176.3951722778
Confining potential (l,width,scale):  0    3.0000000000  100.0000000000
Confining potential (l,width,scale):  1    3.0000000000  100.0000000000
  1         -1.8735052164   -7.5539365035   10.1554312477   -2.4512393157
  2        -16.0318313751   -3.1285771268   13.6395848164   -3.2358799643
  3        -15.9524020423   -3.0762819706   13.6967272503   -3.2536856837
  4        -15.8521515939   -3.0781493909   13.6951909330   -3.2561700440
  5        -15.8357139793   -3.0748501933   13.6988803334   -3.2580493133
  6        -15.8246052853   -3.0740779781   13.6997881576   -3.2588327446
  7        -15.8189019501   -3.0737449687   13.7001869911   -3.2592378801
  8        -15.8159785510   -3.0736026016   13.7003615168   -3.2594475790
  9        -15.8144776168   -3.0735437994   13.7004360379   -3.2595560735
 10        -15.8137058024   -3.0735207882   13.7004667348   -3.2596122456
 11        -15.8133083127   -3.0735125946   13.7004786868   -3.2596413656
 12        -15.8131032938   -3.0735102195   13.7004828997   -3.2596564858
 13        -15.8129973902   -3.0735099286   13.7004840891   -3.2596643505
 14        -15.8129426040   -3.0735102506   13.7004842061   -3.2596684489
 15        -15.8129142203   -3.0735106556   13.7004840157   -3.2596705887
 16        -15.8128994940   -3.0735109855   13.7004837906   -3.2596717080
 17        -15.8128918425   -3.0735112169   13.7004836103   -3.2596722946
 18        -15.8128878614   -3.0735113674   13.7004834848   -3.2596726026
 19        -15.8128857871   -3.0735114608   13.7004834035   -3.2596727646
 20        -15.8128847048   -3.0735115170   13.7004833533   -3.2596728500
 21        -15.8128841394   -3.0735115501   13.7004833231   -3.2596728951
 22        -15.8128838436   -3.0735115693   13.7004833054   -3.2596729190
 23        -15.8128836887   -3.0735115802   13.7004832951   -3.2596729316
 24        -15.8128836074   -3.0735115864   13.7004832893   -3.2596729383
Atom SCF converged after  24 iterations to a total energy of    -15.81288361

========================== Calculation in vacuum ==============================
= Adjusting the following parameters: 
= is_implicit_solvent: F
= is_include_apolar: F
= write_denskern: T
= write_tightbox_ngwfs: T
= restart read filename prefix: ""
= restart write filename prefix: "vacuum_"
===============================================================================

Determining parallel strategy ...
... using space-filling curve
... NGWF load balancing: max    109;  min    108;  average    109
... Projector load balancing: max     26;  min     21;  average     22
... done
Calculating direct Ion-Ion energy ...
Ion-Ion Energy        :    830745.40014054230414
======================= Empirical dispersion information =======================
Model : Elstner
Dispersion Correction Energy: -0.32709862E+01 Hartree
================================================================================
Basis initialisation ...... NGWF spheres initialised
... Projector spheres initialised
... NGWF tight boxes initialised
... Tight-boxes gathered
... NGWF basis size (local,global):    1035983  62523697
... Nonlocal pseudopotential projector initialisation
... done

========================== Sparse matrix information ===========================
                        Overlap matrix filling:   6.70%
                        Density kernel filling: 100.00%
              NGWF-Proj overlap matrix filling:   1.77%
                    Hamiltonian matrix filling:   7.55%
                  NGWF diagonal matrix filling:   0.05%
                             KS matrix filling: 100.00% 
                           KSKS matrix filling: 100.00% 
================================================================================

Sparse matrix initialisation ... done

Generating smeared ion density ... done
Smeared ion self correction:     -14525.987107
Smeared ion non-self correction: -830697.031836
NGWF initialisation ...... done
============ Calculation of NGWF S^-1 using Hotelling algorithm ================ 
         Iteration  |  Frobenius norm and Maximum abs value    (of I-S*S_n^-1)   
               1       0.78603972E+02     0.98185503E+00
               2       0.76691173E+02     0.96422437E+00
               3       0.73615230E+02     0.93039486E+00
               4       0.69279196E+02     0.86782372E+00
               5       0.63914705E+02     0.76166430E+00
               6       0.57919293E+02     0.70371089E+00
               7       0.51930237E+02     0.66942605E+00
               8       0.46386166E+02     0.64514025E+00
               9       0.40225981E+02     0.60548456E+00
              10       0.31810147E+02     0.53584585E+00
              11       0.21152217E+02     0.43897857E+00
              12       0.10624951E+02     0.30196232E+00
              13       0.34087698E+01     0.15824844E+00
              14       0.52838090E+00     0.52667843E-01
              15       0.28772096E-01     0.65655179E-02
              16       0.30338143E-03     0.10941085E-03
              17       0.79608376E-07     0.30834678E-07
              18       0.91297682E-13     0.57731597E-14
================================================================================
Calculating local pseudopotential in open BC on the fine real space grid ...
... done

MG BCs: +ve charge blocks (gridpoints):     20659 (   16195020).
MG BCs: -ve charge blocks (gridpoints):      8066 (    1089211).
MG BCs:     Elided blocks (gridpoints):    173255 (  173686394).
MG BCs: Computational effort saved:  99.9850%.
MG BCs: Charge after coarse-graining:           -9.0002322.
MG DL_MG: Calling solver with defect correction order = 8
MG DL_MG: Solver finished
MG Hartree energy from (\int phi*rho dr):              1470.674319
MG Hartree energy from (\int eps (grad phi)^2 dr):     1470.055544
MG Discrepancy due to finite box and discretization:     -0.618774 (  -0.04207%)
MG Correction to account for finite box:                  0.467573
MG Remaining discrepancy, due to discretization:         -0.151201 (  -0.01028%)
Up spin density kernel initialisation ... 
======= Optimisation of K by Palser-Manolopoulos canonical purification ======== 
         Iteration  |  Band structure energy |    c_n   
               1       -2579.05570165773634    0.5280281
               2       -2755.40418936003243    0.5179202
               3       -2937.40777634105871    0.5155373
               4       -3091.05718131131971    0.5279387
               5       -3187.21458509353715    0.5620546
               6       -3228.28592340144723    0.6073622
               7       -3242.24666681730332    0.6229187
               8       -3248.14145897369963    0.6245137
               9       -3250.98107389621146    0.6419858
              10       -3252.16741612163696    0.6656985
              11       -3252.64886308119549    0.6794149
              12       -3252.86900714916737    0.6796964
              13       -3252.98049714768285    0.6421936
              14       -3253.04837101216708    0.5725751
              15       -3253.08985170765527    0.5101299
              16       -3253.10503523428451    0.4666235
              17       -3253.10714640196693    0.4454205
              18       -3253.10788145926927    0.4463182
              19       -3253.10811916975945    0.4760768
              20       -3253.10818233083774    0.4966792
              21       -3253.10819353599618    0.4999383
              22       -3253.10819813361741    0.5000000
              23       -3253.10820469028386    0.5000000
              24       -3253.10821415968712    0.5000000
              25       -3253.10822720888154    0.5000000
              26       -3253.10824341568969    0.5000000
              27       -3253.10825947281637    0.5000000
              28       -3253.10826939062326    0.5000000
              29       -3253.10827182329513    0.5000000
              30       -3253.10827193318755    0.5000000
Termination criterion satisfied: band energy change below threshold.
Final occupancy bounds: [    0.00000000308289:    0.99999999999503]
Closest occupancy to 0.5:     0.99999999980822
================================================================================
... done

Writing density kernel to file "complex_4281.vacuum_dkn" ... done

>>> Optimising kernel for current NGWFs:
   Initial electron number for spin 1:    7228.00000000
     Final electron number for spin 1:    7228.00000000

=================== Penalty functional idempotency correction ==================
 RMS occupancy error at iteration   1:  0.000000 (step -0.5000 Ne1=   7228.0000)
            Final RMS occupancy error   :  0.000000 (Ne1=   7228.0000)
               Final occupancy bounds   : [  0.0000,  1.0000]
================================================================================

................................................................................
<<<<<<<<<<<<<< LNV (Original version) density kernel optimisation >>>>>>>>>>>>>>
~~~~~~~~~~~~~~~~~~~~~~~~~~~~~~~~~~~~~~~~~~~~~~~~~~~~~~~~~~~~~~~~~~~~~~~~~~~~~~~~
   iter  |      energy (Eh)       | rms gradient |  commutator  |   dE (Eh)
MG BCs: +ve charge blocks (gridpoints):     31056 (   17363165).
MG BCs: -ve charge blocks (gridpoints):      8352 (    1121509).
MG BCs:     Elided blocks (gridpoints):    162853 (  172485951).
MG BCs: Computational effort saved:  99.9794%.
MG BCs: Charge after coarse-graining:           -9.0009801.
MG DL_MG: Calling solver with defect correction order = 8
MG DL_MG: Solver finished
MG Hartree energy from (\int phi*rho dr):              1425.753269
MG Hartree energy from (\int eps (grad phi)^2 dr):     1425.085601
MG Discrepancy due to finite box and discretization:     -0.667669 (  -0.04683%)
MG Correction to account for finite box:                  0.474162
MG Remaining discrepancy, due to discretization:         -0.193507 (  -0.01357%)
      ideal mu1:      -0.709551740200
             Q0:  -11560.510324568953
             G0:    -144.697794473777
   RMS gradient:       0.001839583978
MG BCs: +ve charge blocks (gridpoints):     31039 (   17444034).
MG BCs: -ve charge blocks (gridpoints):      8251 (    1101595).
MG BCs:     Elided blocks (gridpoints):    162868 (  172424996).
MG BCs: Computational effort saved:  99.9794%.
MG BCs: Charge after coarse-graining:           -9.0010017.
MG DL_MG: Calling solver with defect correction order = 8
MG DL_MG: Solver finished
MG Hartree energy from (\int phi*rho dr):              1451.251048
MG Hartree energy from (\int eps (grad phi)^2 dr):     1450.601963
MG Discrepancy due to finite box and discretization:     -0.649085 (  -0.04473%)
MG Correction to account for finite box:                  0.471198
MG Remaining discrepancy, due to discretization:         -0.177887 (  -0.01226%)
     Trial step:       0.500000000000
             Q1:  -11571.865791874588
 Quadratic coef:      60.993429931254
 Linear coef   :     -72.348897236889
           Qmin:  -11581.964942456871
Quadratic minimum step length (  0.296543813483) accepted
    Initial Ne1:    7228.00000000
      Final Ne1:    7228.00000000

=================== Penalty functional idempotency correction ==================
 RMS occupancy error at iteration   1:  0.003360 (step -0.4888 Ne1=   7228.0000)
 RMS occupancy error at iteration   2:  0.000025 (step -0.5000 Ne1=   7228.0000)
            Final RMS occupancy error   :  0.000000 (Ne1=   7228.0000)
               Final occupancy bounds   : [  0.0000,  1.0000]
================================================================================

    1        -1.156051032457E+04     1.8396E-03     1.6642E-03
MG BCs: +ve charge blocks (gridpoints):     31035 (   17413325).
MG BCs: -ve charge blocks (gridpoints):      8290 (    1109836).
MG BCs:     Elided blocks (gridpoints):    162871 (  172447464).
MG BCs: Computational effort saved:  99.9794%.
MG BCs: Charge after coarse-graining:           -9.0009924.
MG DL_MG: Calling solver with defect correction order = 8
MG DL_MG: Solver finished
MG Hartree energy from (\int phi*rho dr):              1432.918292
MG Hartree energy from (\int eps (grad phi)^2 dr):     1432.262583
MG Discrepancy due to finite box and discretization:     -0.655709 (  -0.04576%)
MG Correction to account for finite box:                  0.472290
MG Remaining discrepancy, due to discretization:         -0.183419 (  -0.01280%)
      ideal mu1:      -0.750295404283
             Q0:  -11582.359748739749
             G0:     -12.022614399067
   RMS gradient:       0.000526738063
MG BCs: +ve charge blocks (gridpoints):     31035 (   17430086).
MG BCs: -ve charge blocks (gridpoints):      8259 (    1104686).
MG BCs:     Elided blocks (gridpoints):    162871 (  172435853).
MG BCs: Computational effort saved:  99.9794%.
MG BCs: Charge after coarse-graining:           -9.0009963.
MG DL_MG: Calling solver with defect correction order = 8
MG DL_MG: Solver finished
MG Hartree energy from (\int phi*rho dr):              1438.234143
MG Hartree energy from (\int eps (grad phi)^2 dr):     1437.582386
MG Discrepancy due to finite box and discretization:     -0.651757 (  -0.04532%)
MG Correction to account for finite box:                  0.471452
MG Remaining discrepancy, due to discretization:         -0.180305 (  -0.01254%)
     Trial step:       0.385060913027
             Q1:  -11585.174051339854
 Quadratic coef:       1.815136277375
 Linear coef   :      -4.629438877481
           Qmin:  -11585.311552495130
Quadratic minimum step length (  0.491041907758) accepted
    Initial Ne1:    7227.99992554
      Final Ne1:    7228.00000000

=================== Penalty functional idempotency correction ==================
 RMS occupancy error at iteration   1:  0.001773 (step -0.4933 Ne1=   7228.0000)
 RMS occupancy error at iteration   2:  0.000010 (step -0.5001 Ne1=   7228.0000)
            Final RMS occupancy error   :  0.000000 (Ne1=   7228.0000)
               Final occupancy bounds   : [  0.0000,  1.0000]
================================================================================

    2        -1.158235974874E+04     5.2674E-04     4.7653E-04    -2.1849E+01
MG BCs: +ve charge blocks (gridpoints):     31039 (   17434778).
MG BCs: -ve charge blocks (gridpoints):      8255 (    1103215).
MG BCs:     Elided blocks (gridpoints):    162867 (  172432632).
MG BCs: Computational effort saved:  99.9794%.
MG BCs: Charge after coarse-graining:           -9.0009974.
MG DL_MG: Calling solver with defect correction order = 8
MG DL_MG: Solver finished
MG Hartree energy from (\int phi*rho dr):              1439.744643
MG Hartree energy from (\int eps (grad phi)^2 dr):     1439.093902
MG Discrepancy due to finite box and discretization:     -0.650741 (  -0.04520%)
MG Correction to account for finite box:                  0.471233
MG Remaining discrepancy, due to discretization:         -0.179508 (  -0.01247%)
      ideal mu1:      -0.772479011106
             Q0:  -11585.347184496815
             G0:      -1.970839905660
   RMS gradient:       0.000213379663
MG BCs: +ve charge blocks (gridpoints):     31038 (   17434322).
MG BCs: -ve charge blocks (gridpoints):      8256 (    1104196).
MG BCs:     Elided blocks (gridpoints):    162868 (  172432107).
MG BCs: Computational effort saved:  99.9794%.
MG BCs: Charge after coarse-graining:           -9.0009972.
MG DL_MG: Calling solver with defect correction order = 8
MG DL_MG: Solver finished
MG Hartree energy from (\int phi*rho dr):              1437.538199
MG Hartree energy from (\int eps (grad phi)^2 dr):     1436.887861
MG Discrepancy due to finite box and discretization:     -0.650337 (  -0.04524%)
MG Correction to account for finite box:                  0.471053
MG Remaining discrepancy, due to discretization:         -0.179284 (  -0.01247%)
     Trial step:       0.434834503387
             Q1:  -11585.853807283565
 Quadratic coef:       0.350366404884
 Linear coef   :      -0.856989191634
           Qmin:  -11585.871229085807
Quadratic minimum step length (  0.531798232305) accepted
    Initial Ne1:    7227.99995832
      Final Ne1:    7228.00000000

=================== Penalty functional idempotency correction ==================
 RMS occupancy error at iteration   1:  0.000675 (step -0.4958 Ne1=   7228.0000)
 RMS occupancy error at iteration   2:  0.000007 (step -0.5004 Ne1=   7228.0000)
            Final RMS occupancy error   :  0.000000 (Ne1=   7228.0000)
               Final occupancy bounds   : [  0.0000,  1.0000]
================================================================================

    3        -1.158534718450E+04     2.1338E-04     1.9304E-04    -2.9874E+00
MG BCs: +ve charge blocks (gridpoints):     31038 (   17434314).
MG BCs: -ve charge blocks (gridpoints):      8258 (    1104396).
MG BCs:     Elided blocks (gridpoints):    162868 (  172431915).
MG BCs: Computational effort saved:  99.9794%.
MG BCs: Charge after coarse-graining:           -9.0009971.
MG DL_MG: Calling solver with defect correction order = 8
MG DL_MG: Solver finished
MG Hartree energy from (\int phi*rho dr):              1437.056800
MG Hartree energy from (\int eps (grad phi)^2 dr):     1436.406541
MG Discrepancy due to finite box and discretization:     -0.650258 (  -0.04525%)
MG Correction to account for finite box:                  0.471014
MG Remaining discrepancy, due to discretization:         -0.179245 (  -0.01247%)
      ideal mu1:      -0.773126559157
             Q0:  -11585.875997950672
             G0:      -0.554037294925
   RMS gradient:       0.000113288289
MG BCs: +ve charge blocks (gridpoints):     31041 (   17435121).
MG BCs: -ve charge blocks (gridpoints):      8256 (    1104184).
MG BCs:     Elided blocks (gridpoints):    162865 (  172431320).
MG BCs: Computational effort saved:  99.9794%.
MG BCs: Charge after coarse-graining:           -9.0009974.
MG DL_MG: Calling solver with defect correction order = 8
MG DL_MG: Solver finished
MG Hartree energy from (\int phi*rho dr):              1438.280809
MG Hartree energy from (\int eps (grad phi)^2 dr):     1437.630436
MG Discrepancy due to finite box and discretization:     -0.650373 (  -0.04522%)
MG Correction to account for finite box:                  0.471025
MG Remaining discrepancy, due to discretization:         -0.179348 (  -0.01247%)
     Trial step:       0.480878592003
             Q1:  -11586.019928500871
 Quadratic coef:       0.122494124102
 Linear coef   :      -0.266424674301
           Qmin:  -11586.020866342516
Quadratic minimum step length (  0.522955379256) accepted
    Initial Ne1:    7227.99994065
      Final Ne1:    7228.00000000

=================== Penalty functional idempotency correction ==================
 RMS occupancy error at iteration   1:  0.000416 (step -0.4862 Ne1=   7228.0000)
 RMS occupancy error at iteration   2:  0.000010 (step -0.5002 Ne1=   7228.0000)
            Final RMS occupancy error   :  0.000000 (Ne1=   7228.0000)
               Final occupancy bounds   : [  0.0000,  1.0000]
================================================================================

    4        -1.158587599795E+04     1.1329E-04     1.0249E-04    -5.2881E-01
MG BCs: +ve charge blocks (gridpoints):     31041 (   17435211).
MG BCs: -ve charge blocks (gridpoints):      8256 (    1104137).
MG BCs:     Elided blocks (gridpoints):    162865 (  172431277).
MG BCs: Computational effort saved:  99.9794%.
MG BCs: Charge after coarse-graining:           -9.0009974.
MG DL_MG: Calling solver with defect correction order = 8
MG DL_MG: Solver finished
MG Hartree energy from (\int phi*rho dr):              1438.389145
MG Hartree energy from (\int eps (grad phi)^2 dr):     1437.738762
MG Discrepancy due to finite box and discretization:     -0.650384 (  -0.04522%)
MG Correction to account for finite box:                  0.471026
MG Remaining discrepancy, due to discretization:         -0.179358 (  -0.01247%)
      ideal mu1:      -0.773412702040
             Q0:  -11586.021455437061
             G0:      -0.255763747900
   RMS gradient:       0.000077219609
MG BCs: +ve charge blocks (gridpoints):     31040 (   17435256).
MG BCs: -ve charge blocks (gridpoints):      8258 (    1103967).
MG BCs:     Elided blocks (gridpoints):    162866 (  172431402).
MG BCs: Computational effort saved:  99.9794%.
MG BCs: Charge after coarse-graining:           -9.0009974.
MG DL_MG: Calling solver with defect correction order = 8
MG DL_MG: Solver finished
MG Hartree energy from (\int phi*rho dr):              1438.858299
MG Hartree energy from (\int eps (grad phi)^2 dr):     1438.207724
MG Discrepancy due to finite box and discretization:     -0.650576 (  -0.04521%)
MG Correction to account for finite box:                  0.471054
MG Remaining discrepancy, due to discretization:         -0.179522 (  -0.01248%)
     Trial step:       0.501475868270
             Q1:  -11586.107685457217
 Quadratic coef:       0.042029327395
 Linear coef   :      -0.128259347550
           Qmin:  -11586.119306516615
Quadratic minimum step length (  0.765167701502) accepted
    Initial Ne1:    7227.99986694
      Final Ne1:    7228.00000000

=================== Penalty functional idempotency correction ==================
 RMS occupancy error at iteration   1:  0.001089 (step -0.4378 Ne1=   7228.0000)
 RMS occupancy error at iteration   2:  0.000044 (step -0.4995 Ne1=   7228.0000)
            Final RMS occupancy error   :  0.000000 (Ne1=   7228.0000)
               Final occupancy bounds   : [ -0.0000,  1.0000]
================================================================================

    5        -1.158602145544E+04     7.7220E-05     6.9859E-05    -1.4546E-01
MG BCs: +ve charge blocks (gridpoints):     31043 (   17435299).
MG BCs: -ve charge blocks (gridpoints):      8258 (    1103925).
MG BCs:     Elided blocks (gridpoints):    162863 (  172431401).
MG BCs: Computational effort saved:  99.9794%.
MG BCs: Charge after coarse-graining:           -9.0009974.
MG DL_MG: Calling solver with defect correction order = 8
MG DL_MG: Solver finished
MG Hartree energy from (\int phi*rho dr):              1439.107760
MG Hartree energy from (\int eps (grad phi)^2 dr):     1438.457087
MG Discrepancy due to finite box and discretization:     -0.650674 (  -0.04521%)
MG Correction to account for finite box:                  0.471065
MG Remaining discrepancy, due to discretization:         -0.179609 (  -0.01248%)
      ideal mu1:      -0.773287808065
             Q0:  -11586.116690407856
             G0:      -0.263954963651
   RMS gradient:       0.000079744707
MG BCs: +ve charge blocks (gridpoints):     31039 (   17434339).
MG BCs: -ve charge blocks (gridpoints):      8262 (    1104437).
MG BCs:     Elided blocks (gridpoints):    162867 (  172431849).
MG BCs: Computational effort saved:  99.9794%.
MG BCs: Charge after coarse-graining:           -9.0009970.
MG DL_MG: Calling solver with defect correction order = 8
MG DL_MG: Solver finished
MG Hartree energy from (\int phi*rho dr):              1437.440042
MG Hartree energy from (\int eps (grad phi)^2 dr):     1436.789495
MG Discrepancy due to finite box and discretization:     -0.650547 (  -0.04526%)
MG Correction to account for finite box:                  0.470963
MG Remaining discrepancy, due to discretization:         -0.179584 (  -0.01249%)
     Trial step:       0.619445830951
             Q1:  -11586.219387886231
 Quadratic coef:       0.060808323418
 Linear coef   :      -0.163505801793
           Qmin:  -11586.226601953336
Quadratic minimum step length (  0.832805293446) accepted
    Initial Ne1:    7228.00053328
      Final Ne1:    7228.00000000

=================== Penalty functional idempotency correction ==================
 RMS occupancy error at iteration   1:  0.004148 (step -0.3295 Ne1=   7228.0000)
 RMS occupancy error at iteration   2:  0.000289 (step -0.4915 Ne1=   7228.0000)
 RMS occupancy error at iteration   3:  0.000007 (step -0.5004 Ne1=   7228.0000)
            Final RMS occupancy error   :  0.000000 (Ne1=   7228.0000)
               Final occupancy bounds   : [  0.0000,  1.0000]
================================================================================

    6        -1.158611669041E+04     7.9745E-05     7.2143E-05    -9.5235E-02
MG BCs: +ve charge blocks (gridpoints):     31038 (   17434004).
MG BCs: -ve charge blocks (gridpoints):      8262 (    1104585).
MG BCs:     Elided blocks (gridpoints):    162868 (  172432036).
MG BCs: Computational effort saved:  99.9794%.
MG BCs: Charge after coarse-graining:           -9.0009970.
MG DL_MG: Calling solver with defect correction order = 8
MG DL_MG: Solver finished
MG Hartree energy from (\int phi*rho dr):              1436.887781
MG Hartree energy from (\int eps (grad phi)^2 dr):     1436.237262
MG Discrepancy due to finite box and discretization:     -0.650519 (  -0.04527%)
MG Correction to account for finite box:                  0.470941
MG Remaining discrepancy, due to discretization:         -0.179578 (  -0.01250%)
      ideal mu1:      -0.772516222287
             Q0:  -11586.225559666287
             G0:      -0.285858270951
   RMS gradient:       0.000081764360
MG BCs: +ve charge blocks (gridpoints):     31041 (   17435563).
MG BCs: -ve charge blocks (gridpoints):      8256 (    1103868).
MG BCs:     Elided blocks (gridpoints):    162865 (  172431194).
MG BCs: Computational effort saved:  99.9794%.
MG BCs: Charge after coarse-graining:           -9.0009975.
MG DL_MG: Calling solver with defect correction order = 8
MG DL_MG: Solver finished
MG Hartree energy from (\int phi*rho dr):              1438.495405
MG Hartree energy from (\int eps (grad phi)^2 dr):     1437.845255
MG Discrepancy due to finite box and discretization:     -0.650149 (  -0.04520%)
MG Correction to account for finite box:                  0.470805
MG Remaining discrepancy, due to discretization:         -0.179344 (  -0.01247%)
     Trial step:       0.718246313613
             Q1:  -11586.321228997898
 Quadratic coef:       0.109647317715
 Linear coef   :      -0.205316649326
           Qmin:  -11586.321674480971
Quadratic minimum step length (  0.672464815261) accepted
    Initial Ne1:    7227.99996450
      Final Ne1:    7228.00000000

=================== Penalty functional idempotency correction ==================
 RMS occupancy error at iteration   1:  0.000169 (step -0.4907 Ne1=   7228.0000)
 RMS occupancy error at iteration   2:  0.000001 (step -0.5000 Ne1=   7228.0000)
            Final RMS occupancy error   :  0.000000 (Ne1=   7228.0000)
               Final occupancy bounds   : [  0.0000,  1.0000]
================================================================================

    7        -1.158622555967E+04     8.1764E-05     7.3970E-05    -1.0887E-01
MG BCs: +ve charge blocks (gridpoints):     31041 (   17435433).
MG BCs: -ve charge blocks (gridpoints):      8257 (    1103948).
MG BCs:     Elided blocks (gridpoints):    162865 (  172431244).
MG BCs: Computational effort saved:  99.9794%.
MG BCs: Charge after coarse-graining:           -9.0009975.
MG DL_MG: Calling solver with defect correction order = 8
MG DL_MG: Solver finished
MG Hartree energy from (\int phi*rho dr):              1438.392487
MG Hartree energy from (\int eps (grad phi)^2 dr):     1437.742314
MG Discrepancy due to finite box and discretization:     -0.650173 (  -0.04520%)
MG Correction to account for finite box:                  0.470814
MG Remaining discrepancy, due to discretization:         -0.179359 (  -0.01247%)
      ideal mu1:      -0.773527719797
             Q0:  -11586.321717488812
             G0:      -0.215334596040
   RMS gradient:       0.000070963300
MG BCs: +ve charge blocks (gridpoints):     31037 (   17435470).
MG BCs: -ve charge blocks (gridpoints):      8256 (    1103907).
MG BCs:     Elided blocks (gridpoints):    162869 (  172431248).
MG BCs: Computational effort saved:  99.9794%.
MG BCs: Charge after coarse-graining:           -9.0009974.
MG DL_MG: Calling solver with defect correction order = 8
MG DL_MG: Solver finished
MG Hartree energy from (\int phi*rho dr):              1438.357819
MG Hartree energy from (\int eps (grad phi)^2 dr):     1437.707929
MG Discrepancy due to finite box and discretization:     -0.649889 (  -0.04518%)
MG Correction to account for finite box:                  0.470636
MG Remaining discrepancy, due to discretization:         -0.179253 (  -0.01246%)
     Trial step:       0.694978686433
             Q1:  -11586.402913494268
 Quadratic coef:       0.068456949244
 Linear coef   :      -0.149652954700
           Qmin:  -11586.403506142477
Quadratic minimum step length (  0.759642483534) accepted
    Initial Ne1:    7227.99996972
      Final Ne1:    7228.00000000

=================== Penalty functional idempotency correction ==================
 RMS occupancy error at iteration   1:  0.000955 (step -0.4498 Ne1=   7228.0000)
 RMS occupancy error at iteration   2:  0.000014 (step -0.4997 Ne1=   7228.0000)
            Final RMS occupancy error   :  0.000000 (Ne1=   7228.0000)
               Final occupancy bounds   : [ -0.0000,  1.0000]
================================================================================

    8        -1.158632171749E+04     7.0963E-05     6.4199E-05    -9.6158E-02
MG BCs: +ve charge blocks (gridpoints):     31037 (   17435453).
MG BCs: -ve charge blocks (gridpoints):      8256 (    1103895).
MG BCs:     Elided blocks (gridpoints):    162869 (  172431277).
MG BCs: Computational effort saved:  99.9794%.
MG BCs: Charge after coarse-graining:           -9.0009974.
MG DL_MG: Calling solver with defect correction order = 8
MG DL_MG: Solver finished
MG Hartree energy from (\int phi*rho dr):              1438.356474
MG Hartree energy from (\int eps (grad phi)^2 dr):     1437.706608
MG Discrepancy due to finite box and discretization:     -0.649865 (  -0.04518%)
MG Correction to account for finite box:                  0.470622
MG Remaining discrepancy, due to discretization:         -0.179244 (  -0.01246%)
      ideal mu1:      -0.773370466129
             Q0:  -11586.403323699255
             G0:      -0.173924121391
   RMS gradient:       0.000063619341
MG BCs: +ve charge blocks (gridpoints):     31040 (   17434741).
MG BCs: -ve charge blocks (gridpoints):      8260 (    1104291).
MG BCs:     Elided blocks (gridpoints):    162866 (  172431593).
MG BCs: Computational effort saved:  99.9794%.
MG BCs: Charge after coarse-graining:           -9.0009972.
MG DL_MG: Calling solver with defect correction order = 8
MG DL_MG: Solver finished
MG Hartree energy from (\int phi*rho dr):              1437.519092
MG Hartree energy from (\int eps (grad phi)^2 dr):     1436.869455
MG Discrepancy due to finite box and discretization:     -0.649637 (  -0.04519%)
MG Correction to account for finite box:                  0.470435
MG Remaining discrepancy, due to discretization:         -0.179201 (  -0.01247%)
     Trial step:       0.726591587734
             Q1:  -11586.472591910977
 Quadratic coef:       0.057103591784
 Linear coef   :      -0.126371803507
           Qmin:  -11586.473239759798
Quadratic minimum step length (  0.803983484108) accepted
    Initial Ne1:    7228.00006158
      Final Ne1:    7228.00000000

=================== Penalty functional idempotency correction ==================
 RMS occupancy error at iteration   1:  0.002483 (step -0.3879 Ne1=   7228.0000)
 RMS occupancy error at iteration   2:  0.000054 (step -0.4982 Ne1=   7228.0000)
 RMS occupancy error at iteration   3:  0.000000 (step -0.5000 Ne1=   7228.0000)
            Final RMS occupancy error   :  0.000000 (Ne1=   7228.0000)
               Final occupancy bounds   : [  0.0000,  1.0000]
================================================================================

    9        -1.158640332370E+04     6.3619E-05     5.7555E-05    -8.1606E-02
MG BCs: +ve charge blocks (gridpoints):     31039 (   17434633).
MG BCs: -ve charge blocks (gridpoints):      8261 (    1104344).
MG BCs:     Elided blocks (gridpoints):    162867 (  172431648).
MG BCs: Computational effort saved:  99.9794%.
MG BCs: Charge after coarse-graining:           -9.0009972.
MG DL_MG: Calling solver with defect correction order = 8
MG DL_MG: Solver finished
MG Hartree energy from (\int phi*rho dr):              1437.433538
MG Hartree energy from (\int eps (grad phi)^2 dr):     1436.783917
MG Discrepancy due to finite box and discretization:     -0.649621 (  -0.04519%)
MG Correction to account for finite box:                  0.470424
MG Remaining discrepancy, due to discretization:         -0.179197 (  -0.01247%)
      ideal mu1:      -0.772310923457
   10        -1.158647487158E+04     5.8657E-05     5.3066E-05    -7.1548E-02
Finished density kernel iterations (  10)

Writing density kernel to file "complex_4281.vacuum_dkn" ... done


>>> Density kernel optimised for the current NGWF basis:
     ~~~~~~~~~~~~~~~~~~~~~~~~~~~~~~~~~~~~~~~~~~~~~~~~~~~~~~~~~~~
     Total energy                =  -1.15864748715812E+04  Eh
     Estimated bandgap           =  -3.7688E-01  Eh
     RMS occupancy error         =   2.1901E-12
     [H,K] commutator            =   5.3066E-05
     Occupancy bounds            = [  0.000:  1.000]
     ~~~~~~~~~~~~~~~~~~~~~~~~~~~~~~~~~~~~~~~~~~~~~~~~~~~~~~~~~~~




################################################################################
########################### NGWF CG iteration  001 #############################
################################################################################
****** Reciprocal space K.E. preconditioning with k_zero =  3.5000 a0^-1 *******

>>> Checking for convergence of NGWFs:   NOT CONVERGED
  ========================================================================
         NGWF RMS gradient =  1.5827E-03 >  2.0000E-06  | above tolerance
  ========================================================================

>>> Improving NGWFs using line search:
============ Calculation of NGWF S^-1 using Hotelling algorithm ================ 
         Iteration  |  Frobenius norm and Maximum abs value    (of I-S*S_n^-1)   
               1       0.19527660E+00     0.49882024E-02
               2       0.88186788E-03     0.38897927E-04
               3       0.30821401E-07     0.23584482E-08
               4       0.12737474E-12     0.59952043E-14
================================================================================
MG BCs: +ve charge blocks (gridpoints):     30598 (   17381450).
MG BCs: -ve charge blocks (gridpoints):      8283 (    1104171).
MG BCs:     Elided blocks (gridpoints):    163310 (  172485004).
MG BCs: Computational effort saved:  99.9796%.
MG BCs: Charge after coarse-graining:           -9.0009980.
MG DL_MG: Calling solver with defect correction order = 8
MG DL_MG: Solver finished
MG Hartree energy from (\int phi*rho dr):              1405.686002
MG Hartree energy from (\int eps (grad phi)^2 dr):     1405.037126
MG Discrepancy due to finite box and discretization:     -0.648876 (  -0.04616%)
MG Correction to account for finite box:                  0.470339
MG Remaining discrepancy, due to discretization:         -0.178537 (  -0.01270%)
============ Calculation of NGWF S^-1 using Hotelling algorithm ================ 
         Iteration  |  Frobenius norm and Maximum abs value    (of I-S*S_n^-1)   
               1       0.18467953E+01     0.40840784E-01
               2       0.70835262E-01     0.23316360E-02
               3       0.14179191E-03     0.85631474E-05
               4       0.10689856E-08     0.11981727E-09
               5       0.11071933E-12     0.51070259E-14
================================================================================
------------------------------- NGWF line search -------------------------------
RMS gradient                =       0.00158273797527
Trial step length           =               0.122474
Gradient along search dir.  =       -275.00600789250
Functional at step 0        =  -11586.47487158118747
Functional at step 1        =  -11617.59726213046815
Functional predicted        =  -11697.30920876993696
Selected quadratic step     =               0.806050
--------------------------- NGWF line search finished --------------------------
                                               
Writing NGWFs to file "complex_4281.vacuum_tightbox_ngwfs"....  done

>>> Optimising kernel for current NGWFs:
   Initial electron number for spin 1:    7262.32141625
     Final electron number for spin 1:    7228.00000000

=================== Penalty functional idempotency correction ==================
 RMS occupancy error at iteration   1:  0.004245 (step -0.4860 Ne1=   7228.0000)
 RMS occupancy error at iteration   2:  0.000071 (step -0.5003 Ne1=   7228.0000)
            Final RMS occupancy error   :  0.000000 (Ne1=   7228.0000)
               Final occupancy bounds   : [  0.0000,  1.0000]
================================================================================

................................................................................
<<<<<<<<<<<<<< LNV (Original version) density kernel optimisation >>>>>>>>>>>>>>
~~~~~~~~~~~~~~~~~~~~~~~~~~~~~~~~~~~~~~~~~~~~~~~~~~~~~~~~~~~~~~~~~~~~~~~~~~~~~~~~
   iter  |      energy (Eh)       | rms gradient |  commutator  |   dE (Eh)
MG BCs: +ve charge blocks (gridpoints):     24910 (   17098819).
MG BCs: -ve charge blocks (gridpoints):      8430 (    1088351).
MG BCs:     Elided blocks (gridpoints):    169004 (  172783455).
MG BCs: Computational effort saved:  99.9825%.
MG BCs: Charge after coarse-graining:           -9.0006777.
MG DL_MG: Calling solver with defect correction order = 8
MG DL_MG: Solver finished
MG Hartree energy from (\int phi*rho dr):              1250.761466
MG Hartree energy from (\int eps (grad phi)^2 dr):     1250.112200
MG Discrepancy due to finite box and discretization:     -0.649266 (  -0.05191%)
MG Correction to account for finite box:                  0.469883
MG Remaining discrepancy, due to discretization:         -0.179383 (  -0.01434%)
      ideal mu1:      -0.712044265331
             Q0:  -11696.503692509141
             G0:     -10.170380874659
   RMS gradient:       0.000487705071
MG BCs: +ve charge blocks (gridpoints):     24960 (   17115177).
MG BCs: -ve charge blocks (gridpoints):      8424 (    1084819).
MG BCs:     Elided blocks (gridpoints):    168954 (  172770629).
MG BCs: Computational effort saved:  99.9825%.
MG BCs: Charge after coarse-graining:           -9.0006735.
MG DL_MG: Calling solver with defect correction order = 8
MG DL_MG: Solver finished
MG Hartree energy from (\int phi*rho dr):              1267.453533
MG Hartree energy from (\int eps (grad phi)^2 dr):     1266.797492
MG Discrepancy due to finite box and discretization:     -0.656041 (  -0.05176%)
MG Correction to account for finite box:                  0.470318
MG Remaining discrepancy, due to discretization:         -0.185724 (  -0.01465%)
     Trial step:       0.764308600128
             Q1:  -11695.270634329296
 Quadratic coef:       9.006367748927
 Linear coef   :      -7.773309569081
           Qmin:  -11698.180959731100
Quadratic minimum step length (  0.329833708812) accepted
    Initial Ne1:    7227.99958182
      Final Ne1:    7228.00000000

=================== Penalty functional idempotency correction ==================
 RMS occupancy error at iteration   1:  0.000365 (step -0.4985 Ne1=   7228.0000)
 RMS occupancy error at iteration   2:  0.000000 (step -0.5000 Ne1=   7228.0000)
            Final RMS occupancy error   :  0.000000 (Ne1=   7228.0000)
               Final occupancy bounds   : [  0.0000,  1.0000]
================================================================================

    1        -1.169650369251E+04     4.8771E-04     4.4122E-04
MG BCs: +ve charge blocks (gridpoints):     24935 (   17106062).
MG BCs: -ve charge blocks (gridpoints):      8428 (    1086886).
MG BCs:     Elided blocks (gridpoints):    168979 (  172777677).
MG BCs: Computational effort saved:  99.9825%.
MG BCs: Charge after coarse-graining:           -9.0006757.
MG DL_MG: Calling solver with defect correction order = 8
MG DL_MG: Solver finished
MG Hartree energy from (\int phi*rho dr):              1256.889918
MG Hartree energy from (\int eps (grad phi)^2 dr):     1256.237817
MG Discrepancy due to finite box and discretization:     -0.652101 (  -0.05188%)
MG Correction to account for finite box:                  0.470068
MG Remaining discrepancy, due to discretization:         -0.182033 (  -0.01448%)
      ideal mu1:      -0.718955682996
             Q0:  -11698.151477316627
             G0:      -1.014365918662
   RMS gradient:       0.000154841631
MG BCs: +ve charge blocks (gridpoints):     24937 (   17105910).
MG BCs: -ve charge blocks (gridpoints):      8432 (    1087760).
MG BCs:     Elided blocks (gridpoints):    168977 (  172776955).
MG BCs: Computational effort saved:  99.9825%.
MG BCs: Charge after coarse-graining:           -9.0006755.
MG DL_MG: Calling solver with defect correction order = 8
MG DL_MG: Solver finished
MG Hartree energy from (\int phi*rho dr):              1258.011862
MG Hartree energy from (\int eps (grad phi)^2 dr):     1257.359362
MG Discrepancy due to finite box and discretization:     -0.652500 (  -0.05187%)
MG Correction to account for finite box:                  0.470094
MG Remaining discrepancy, due to discretization:         -0.182406 (  -0.01450%)
     Trial step:       0.502090370608
             Q1:  -11698.362117554643
 Quadratic coef:       0.298663122017
 Linear coef   :      -0.509303360033
           Qmin:  -11698.368603146215
Quadratic minimum step length (  0.428101586603) accepted
    Initial Ne1:    7227.99994528
      Final Ne1:    7228.00000000

=================== Penalty functional idempotency correction ==================
 RMS occupancy error at iteration   1:  0.000159 (step -0.4986 Ne1=   7228.0000)
 RMS occupancy error at iteration   2:  0.000001 (step -0.5000 Ne1=   7228.0000)
            Final RMS occupancy error   :  0.000000 (Ne1=   7228.0000)
               Final occupancy bounds   : [  0.0000,  1.0000]
================================================================================

    2        -1.169815147732E+04     1.5484E-04     1.4008E-04    -1.6478E+00
MG BCs: +ve charge blocks (gridpoints):     24937 (   17105887).
MG BCs: -ve charge blocks (gridpoints):      8432 (    1087658).
MG BCs:     Elided blocks (gridpoints):    168977 (  172777080).
MG BCs: Computational effort saved:  99.9825%.
MG BCs: Charge after coarse-graining:           -9.0006756.
MG DL_MG: Calling solver with defect correction order = 8
MG DL_MG: Solver finished
MG Hartree energy from (\int phi*rho dr):              1257.846220
MG Hartree energy from (\int eps (grad phi)^2 dr):     1257.193780
MG Discrepancy due to finite box and discretization:     -0.652440 (  -0.05187%)
MG Correction to account for finite box:                  0.470090
MG Remaining discrepancy, due to discretization:         -0.182349 (  -0.01450%)
      ideal mu1:      -0.719903661022
             Q0:  -11698.369097216986
             G0:      -0.181665819172
   RMS gradient:       0.000065109710
MG BCs: +ve charge blocks (gridpoints):     24939 (   17105452).
MG BCs: -ve charge blocks (gridpoints):      8436 (    1087974).
MG BCs:     Elided blocks (gridpoints):    168975 (  172777199).
MG BCs: Computational effort saved:  99.9825%.
MG BCs: Charge after coarse-graining:           -9.0006755.
MG DL_MG: Calling solver with defect correction order = 8
MG DL_MG: Solver finished
MG Hartree energy from (\int phi*rho dr):              1257.423450
MG Hartree energy from (\int eps (grad phi)^2 dr):     1256.771029
MG Discrepancy due to finite box and discretization:     -0.652421 (  -0.05189%)
MG Correction to account for finite box:                  0.470087
MG Remaining discrepancy, due to discretization:         -0.182333 (  -0.01450%)
     Trial step:       0.463622350923
             Q1:  -11698.428669017041
 Quadratic coef:       0.024652534112
 Linear coef   :      -0.084224334167
           Qmin:  -11698.441034430760
Quadratic minimum step length (  0.791973020590) accepted
    Initial Ne1:    7227.99998207
      Final Ne1:    7228.00000000

=================== Penalty functional idempotency correction ==================
 RMS occupancy error at iteration   1:  0.000280 (step -0.4810 Ne1=   7228.0000)
 RMS occupancy error at iteration   2:  0.000004 (step -0.5000 Ne1=   7228.0000)
            Final RMS occupancy error   :  0.000000 (Ne1=   7228.0000)
               Final occupancy bounds   : [  0.0000,  1.0000]
================================================================================

    3        -1.169836909722E+04     6.5110E-05     5.8903E-05    -2.1762E-01
MG BCs: +ve charge blocks (gridpoints):     24937 (   17105115).
MG BCs: -ve charge blocks (gridpoints):      8438 (    1088224).
MG BCs:     Elided blocks (gridpoints):    168977 (  172777286).
MG BCs: Computational effort saved:  99.9825%.
MG BCs: Charge after coarse-graining:           -9.0006755.
MG DL_MG: Calling solver with defect correction order = 8
MG DL_MG: Solver finished
MG Hartree energy from (\int phi*rho dr):              1257.124436
MG Hartree energy from (\int eps (grad phi)^2 dr):     1256.472027
MG Discrepancy due to finite box and discretization:     -0.652409 (  -0.05190%)
MG Correction to account for finite box:                  0.470086
MG Remaining discrepancy, due to discretization:         -0.182323 (  -0.01450%)
      ideal mu1:      -0.719080000733
             Q0:  -11698.440805873252
             G0:      -0.093320755630
   RMS gradient:       0.000046790402
MG BCs: +ve charge blocks (gridpoints):     24937 (   17104947).
MG BCs: -ve charge blocks (gridpoints):      8440 (    1088274).
MG BCs:     Elided blocks (gridpoints):    168977 (  172777404).
MG BCs: Computational effort saved:  99.9825%.
MG BCs: Charge after coarse-graining:           -9.0006755.
MG DL_MG: Calling solver with defect correction order = 8
MG DL_MG: Solver finished
MG Hartree energy from (\int phi*rho dr):              1257.071338
MG Hartree energy from (\int eps (grad phi)^2 dr):     1256.419134
MG Discrepancy due to finite box and discretization:     -0.652205 (  -0.05188%)
MG Correction to account for finite box:                  0.470029
MG Remaining discrepancy, due to discretization:         -0.182175 (  -0.01449%)
     Trial step:       0.605950817867
             Q1:  -11698.476140251849
 Quadratic coef:       0.021213409600
 Linear coef   :      -0.056547788198
           Qmin:  -11698.478490201353
Quadratic minimum step length (  0.807630153596) accepted
    Initial Ne1:    7227.99998835
      Final Ne1:    7228.00000000

=================== Penalty functional idempotency correction ==================
 RMS occupancy error at iteration   1:  0.000666 (step -0.4515 Ne1=   7228.0000)
 RMS occupancy error at iteration   2:  0.000011 (step -0.4996 Ne1=   7228.0000)
            Final RMS occupancy error   :  0.000000 (Ne1=   7228.0000)
               Final occupancy bounds   : [ -0.0000,  1.0000]
================================================================================

    4        -1.169844080587E+04     4.6790E-05     4.2330E-05    -7.1709E-02
MG BCs: +ve charge blocks (gridpoints):     24937 (   17104895).
MG BCs: -ve charge blocks (gridpoints):      8440 (    1088285).
MG BCs:     Elided blocks (gridpoints):    168977 (  172777445).
MG BCs: Computational effort saved:  99.9825%.
MG BCs: Charge after coarse-graining:           -9.0006755.
MG DL_MG: Calling solver with defect correction order = 8
MG DL_MG: Solver finished
MG Hartree energy from (\int phi*rho dr):              1257.056558
MG Hartree energy from (\int eps (grad phi)^2 dr):     1256.404418
MG Discrepancy due to finite box and discretization:     -0.652140 (  -0.05188%)
MG Correction to account for finite box:                  0.470013
MG Remaining discrepancy, due to discretization:         -0.182126 (  -0.01449%)
      ideal mu1:      -0.719098276388
             Q0:  -11698.478019111208
             G0:      -0.099312032701
   RMS gradient:       0.000048389341
MG BCs: +ve charge blocks (gridpoints):     24936 (   17106429).
MG BCs: -ve charge blocks (gridpoints):      8436 (    1087727).
MG BCs:     Elided blocks (gridpoints):    168978 (  172776469).
MG BCs: Computational effort saved:  99.9825%.
MG BCs: Charge after coarse-graining:           -9.0006752.
MG DL_MG: Calling solver with defect correction order = 8
MG DL_MG: Solver finished
MG Hartree energy from (\int phi*rho dr):              1258.065083
MG Hartree energy from (\int eps (grad phi)^2 dr):     1257.413068
MG Discrepancy due to finite box and discretization:     -0.652015 (  -0.05183%)
MG Correction to account for finite box:                  0.469979
MG Remaining discrepancy, due to discretization:         -0.182036 (  -0.01447%)
     Trial step:       0.699559970343
             Q1:  -11698.511906219064
 Quadratic coef:       0.035587614793
 Linear coef   :      -0.069474722651
           Qmin:  -11698.511926533181
Quadratic minimum step length (  0.682846198030) accepted
    Initial Ne1:    7228.00011427
      Final Ne1:    7228.00000000

=================== Penalty functional idempotency correction ==================
 RMS occupancy error at iteration   1:  0.001629 (step -0.3960 Ne1=   7228.0000)
 RMS occupancy error at iteration   2:  0.000047 (step -0.4969 Ne1=   7228.0000)
            Final RMS occupancy error   :  0.000000 (Ne1=   7228.0000)
               Final occupancy bounds   : [ -0.0000,  1.0000]
================================================================================

    5        -1.169847801911E+04     4.8389E-05     4.3777E-05    -3.7213E-02
MG BCs: +ve charge blocks (gridpoints):     24936 (   17106394).
MG BCs: -ve charge blocks (gridpoints):      8436 (    1087748).
MG BCs:     Elided blocks (gridpoints):    168978 (  172776483).
MG BCs: Computational effort saved:  99.9825%.
MG BCs: Charge after coarse-graining:           -9.0006752.
MG DL_MG: Calling solver with defect correction order = 8
MG DL_MG: Solver finished
MG Hartree energy from (\int phi*rho dr):              1258.040436
MG Hartree energy from (\int eps (grad phi)^2 dr):     1257.388427
MG Discrepancy due to finite box and discretization:     -0.652008 (  -0.05183%)
MG Correction to account for finite box:                  0.469971
MG Remaining discrepancy, due to discretization:         -0.182037 (  -0.01447%)
      ideal mu1:      -0.720016127928
             Q0:  -11698.513026674278
             G0:      -0.062907248145
   RMS gradient:       0.000036945873
MG BCs: +ve charge blocks (gridpoints):     24937 (   17106615).
MG BCs: -ve charge blocks (gridpoints):      8438 (    1087749).
MG BCs:     Elided blocks (gridpoints):    168977 (  172776261).
MG BCs: Computational effort saved:  99.9825%.
MG BCs: Charge after coarse-graining:           -9.0006752.
MG DL_MG: Calling solver with defect correction order = 8
MG DL_MG: Solver finished
MG Hartree energy from (\int phi*rho dr):              1257.968556
MG Hartree energy from (\int eps (grad phi)^2 dr):     1257.316512
MG Discrepancy due to finite box and discretization:     -0.652044 (  -0.05183%)
MG Correction to account for finite box:                  0.469947
MG Remaining discrepancy, due to discretization:         -0.182098 (  -0.01448%)
     Trial step:       0.691152563507
             Q1:  -11698.536276588799
 Quadratic coef:       0.020228591298
 Linear coef   :      -0.043478505819
           Qmin:  -11698.536389404291
Quadratic minimum step length (  0.742767509389) accepted
    Initial Ne1:    7228.00275013
      Final Ne1:    7228.00000000

=================== Penalty functional idempotency correction ==================
 RMS occupancy error at iteration   1:  0.001751 (step -0.3908 Ne1=   7228.0000)
 RMS occupancy error at iteration   2:  0.000058 (step -0.4959 Ne1=   7228.0000)
 RMS occupancy error at iteration   3:  0.000000 (step -0.5000 Ne1=   7228.0000)
            Final RMS occupancy error   :  0.000000 (Ne1=   7228.0000)
               Final occupancy bounds   : [  0.0000,  1.0000]
================================================================================

    6        -1.169851302667E+04     3.6946E-05     3.3424E-05    -3.5008E-02
MG BCs: +ve charge blocks (gridpoints):     24937 (   17106631).
MG BCs: -ve charge blocks (gridpoints):      8438 (    1087764).
MG BCs:     Elided blocks (gridpoints):    168977 (  172776230).
MG BCs: Computational effort saved:  99.9825%.
MG BCs: Charge after coarse-graining:           -9.0006752.
MG DL_MG: Calling solver with defect correction order = 8
MG DL_MG: Solver finished
MG Hartree energy from (\int phi*rho dr):              1257.962692
MG Hartree energy from (\int eps (grad phi)^2 dr):     1257.310653
MG Discrepancy due to finite box and discretization:     -0.652039 (  -0.05183%)
MG Correction to account for finite box:                  0.469937
MG Remaining discrepancy, due to discretization:         -0.182102 (  -0.01448%)
      ideal mu1:      -0.720031496689
             Q0:  -11698.538024872891
             G0:      -0.036462452362
   RMS gradient:       0.000029201933
MG BCs: +ve charge blocks (gridpoints):     24937 (   17105062).
MG BCs: -ve charge blocks (gridpoints):      8441 (    1088236).
MG BCs:     Elided blocks (gridpoints):    168977 (  172777327).
MG BCs: Computational effort saved:  99.9825%.
MG BCs: Charge after coarse-graining:           -9.0006755.
MG DL_MG: Calling solver with defect correction order = 8
MG DL_MG: Solver finished
MG Hartree energy from (\int phi*rho dr):              1257.110118
MG Hartree energy from (\int eps (grad phi)^2 dr):     1256.458087
MG Discrepancy due to finite box and discretization:     -0.652031 (  -0.05187%)
MG Correction to account for finite box:                  0.469913
MG Remaining discrepancy, due to discretization:         -0.182118 (  -0.01449%)
     Trial step:       0.716495406967
             Q1:  -11698.546536716400
 Quadratic coef:       0.017613336135
 Linear coef   :      -0.026125179644
           Qmin:  -11698.547712489793
Quadratic minimum step length (  0.531374950158) accepted
    Initial Ne1:    7228.00000000
      Final Ne1:    7228.00000000

=================== Penalty functional idempotency correction ==================
 RMS occupancy error at iteration   1:  0.000009 (step -0.4996 Ne1=   7228.0000)
            Final RMS occupancy error   :  0.000000 (Ne1=   7228.0000)
               Final occupancy bounds   : [ -0.0000,  1.0000]
================================================================================

    7        -1.169853802487E+04     2.9202E-05     2.6418E-05    -2.4998E-02
MG BCs: +ve charge blocks (gridpoints):     24937 (   17105504).
MG BCs: -ve charge blocks (gridpoints):      8441 (    1088091).
MG BCs:     Elided blocks (gridpoints):    168977 (  172777030).
MG BCs: Computational effort saved:  99.9825%.
MG BCs: Charge after coarse-graining:           -9.0006754.
MG DL_MG: Calling solver with defect correction order = 8
MG DL_MG: Solver finished
MG Hartree energy from (\int phi*rho dr):              1257.329335
MG Hartree energy from (\int eps (grad phi)^2 dr):     1256.677302
MG Discrepancy due to finite box and discretization:     -0.652033 (  -0.05186%)
MG Correction to account for finite box:                  0.469919
MG Remaining discrepancy, due to discretization:         -0.182113 (  -0.01448%)
      ideal mu1:      -0.719442625058
             Q0:  -11698.547712703003
             G0:      -0.022086005997
   RMS gradient:       0.000022725865
MG BCs: +ve charge blocks (gridpoints):     24937 (   17105390).
MG BCs: -ve charge blocks (gridpoints):      8440 (    1088083).
MG BCs:     Elided blocks (gridpoints):    168977 (  172777152).
MG BCs: Computational effort saved:  99.9825%.
MG BCs: Charge after coarse-graining:           -9.0006754.
MG DL_MG: Calling solver with defect correction order = 8
MG DL_MG: Solver finished
MG Hartree energy from (\int phi*rho dr):              1257.241239
MG Hartree energy from (\int eps (grad phi)^2 dr):     1256.589165
[...]
MG Correction to account for finite box:                  0.006456
MG Remaining discrepancy, due to discretization:         -0.180818 (  -0.01488%)
     Trial step:       0.632455480280
             Q1:  -11732.988880534889
 Quadratic coef:       0.000000000515
 Linear coef   :      -0.000000003659
           Qmin:  -11732.988880538247
Quadratic minimum step length (  2.247545037508) accepted
    Initial Ne1:    7228.00000000
      Final Ne1:    7228.00000000

=================== Penalty functional idempotency correction ==================
 RMS occupancy error at iteration   1:  0.000000 (step -0.5000 Ne1=   7228.0000)
            Final RMS occupancy error   :  0.000000 (Ne1=   7228.0000)
               Final occupancy bounds   : [ -0.0000,  1.0000]
================================================================================

    7        -1.173298888053E+04     1.1632E-08     1.0523E-08    -4.3074E-09

Reusing previously generated solute cavity.
MG BCs: +ve charge blocks (gridpoints):     29108 (   19358358).
MG BCs: -ve charge blocks (gridpoints):      8409 (    1056366).
MG BCs:     Elided blocks (gridpoints):    164806 (  170555901).
MG BCs: Computational effort saved:  99.9804%.
MG BCs: Charge after coarse-graining:           -9.0009614.
MG DL_MG: Calling solver with defect correction order = 8
MG DL_MG: Solver finished
MG Hartree energy from (\int phi*rho dr):              1215.254863
MG Hartree energy from (\int eps (grad phi)^2 dr):     1215.067589
MG Discrepancy due to finite box and discretization:     -0.187274 (  -0.01541%)
MG Correction to account for finite box:                  0.006456
MG Remaining discrepancy, due to discretization:         -0.180818 (  -0.01488%)
      ideal mu1:      -0.482030891717
             Q0:  -11732.988880526507
WARNING in lnv_denskernel_optimise_cg: 
  conjugate gradient coefficient ( 0.145E+02) too large - resetting
             G0:      -0.000000084099
   RMS gradient:       0.000000044349

Reusing previously generated solute cavity.
MG BCs: +ve charge blocks (gridpoints):     29108 (   19358356).
MG BCs: -ve charge blocks (gridpoints):      8409 (    1056364).
MG BCs:     Elided blocks (gridpoints):    164806 (  170555905).
MG BCs: Computational effort saved:  99.9804%.
MG BCs: Charge after coarse-graining:           -9.0009614.
MG DL_MG: Calling solver with defect correction order = 8
MG DL_MG: Solver finished
MG Hartree energy from (\int phi*rho dr):              1215.254294
MG Hartree energy from (\int eps (grad phi)^2 dr):     1215.067020
MG Discrepancy due to finite box and discretization:     -0.187274 (  -0.01541%)
MG Correction to account for finite box:                  0.006456
MG Remaining discrepancy, due to discretization:         -0.180818 (  -0.01488%)
     Trial step:       1.192255080152
             Q1:  -11732.988880435121
 Quadratic coef:       0.000000191654
 Linear coef   :      -0.000000100267
           Qmin:  -11732.988880539622
Quadratic minimum step length (  0.311875333875) accepted
    Initial Ne1:    7228.00000000
      Final Ne1:    7228.00000000

=================== Penalty functional idempotency correction ==================
 RMS occupancy error at iteration   1:  0.000000 (step -0.5000 Ne1=   7228.0000)
            Final RMS occupancy error   :  0.000000 (Ne1=   7228.0000)
               Final occupancy bounds   : [ -0.0000,  1.0000]
================================================================================

    8        -1.173298888053E+04     4.4349E-08     4.0122E-08     5.2387E-09

Reusing previously generated solute cavity.
MG BCs: +ve charge blocks (gridpoints):     29108 (   19358359).
MG BCs: -ve charge blocks (gridpoints):      8409 (    1056366).
MG BCs:     Elided blocks (gridpoints):    164806 (  170555900).
MG BCs: Computational effort saved:  99.9804%.
MG BCs: Charge after coarse-graining:           -9.0009614.
MG DL_MG: Calling solver with defect correction order = 8
MG DL_MG: Solver finished
MG Hartree energy from (\int phi*rho dr):              1215.254714
MG Hartree energy from (\int eps (grad phi)^2 dr):     1215.067440
MG Discrepancy due to finite box and discretization:     -0.187274 (  -0.01541%)
MG Correction to account for finite box:                  0.006456
MG Remaining discrepancy, due to discretization:         -0.180818 (  -0.01488%)
      ideal mu1:      -0.482030707090
             Q0:  -11732.988880537101
             G0:      -0.000000003306
   RMS gradient:       0.000000008495

Reusing previously generated solute cavity.
MG BCs: +ve charge blocks (gridpoints):     29108 (   19358358).
MG BCs: -ve charge blocks (gridpoints):      8409 (    1056366).
MG BCs:     Elided blocks (gridpoints):    164806 (  170555901).
MG BCs: Computational effort saved:  99.9804%.
MG BCs: Charge after coarse-graining:           -9.0009614.
MG DL_MG: Calling solver with defect correction order = 8
MG DL_MG: Solver finished
MG Hartree energy from (\int phi*rho dr):              1215.254662
MG Hartree energy from (\int eps (grad phi)^2 dr):     1215.067388
MG Discrepancy due to finite box and discretization:     -0.187274 (  -0.01541%)
MG Correction to account for finite box:                  0.006456
MG Remaining discrepancy, due to discretization:         -0.180818 (  -0.01488%)
     Trial step:       0.609782708173
             Q1:  -11732.988880538382
 Quadratic coef:       0.000000000735
 Linear coef   :      -0.000000002016
           Qmin:  -11732.988880538483
Quadratic minimum step length (  0.836487311670) accepted
    Initial Ne1:    7228.00000000
      Final Ne1:    7228.00000000

=================== Penalty functional idempotency correction ==================
 RMS occupancy error at iteration   1:  0.000000 (step -0.5000 Ne1=   7228.0000)
            Final RMS occupancy error   :  0.000000 (Ne1=   7228.0000)
               Final occupancy bounds   : [ -0.0000,  1.0000]
================================================================================

    9        -1.173298888054E+04     8.4947E-09     7.6849E-09    -1.0594E-08

Reusing previously generated solute cavity.
MG BCs: +ve charge blocks (gridpoints):     29108 (   19358358).
MG BCs: -ve charge blocks (gridpoints):      8409 (    1056366).
MG BCs:     Elided blocks (gridpoints):    164806 (  170555901).
MG BCs: Computational effort saved:  99.9804%.
MG BCs: Charge after coarse-graining:           -9.0009614.
MG DL_MG: Calling solver with defect correction order = 8
MG DL_MG: Solver finished
MG Hartree energy from (\int phi*rho dr):              1215.254642
MG Hartree energy from (\int eps (grad phi)^2 dr):     1215.067368
MG Discrepancy due to finite box and discretization:     -0.187274 (  -0.01541%)
MG Correction to account for finite box:                  0.006456
MG Remaining discrepancy, due to discretization:         -0.180818 (  -0.01488%)
      ideal mu1:      -0.482030695244
   10        -1.173298888054E+04     8.3288E-09     7.5349E-09    -1.1642E-09
Finished density kernel iterations (  10)

Writing density kernel to file "complex_4281.dkn" ... done


>>> Density kernel optimised for the current NGWF basis:
     ~~~~~~~~~~~~~~~~~~~~~~~~~~~~~~~~~~~~~~~~~~~~~~~~~~~~~~~~~~~
     Total energy                =  -1.17329888805383E+04  Eh
     Estimated bandgap           =   8.1593E-02  Eh
     RMS occupancy error         =   4.8126E-16
     [H,K] commutator            =   7.5349E-09
     Occupancy bounds            = [  0.000:  1.000]
     ~~~~~~~~~~~~~~~~~~~~~~~~~~~~~~~~~~~~~~~~~~~~~~~~~~~~~~~~~~~




################################################################################
########################### NGWF CG iteration  004 #############################
################################################################################
****** Reciprocal space K.E. preconditioning with k_zero =  3.5000 a0^-1 *******

>>> Checking for convergence of NGWFs: 
           ........................................................
           |         *** NGWF optimisation converged ***          |
           | RMS NGWF gradient =    0.00000195480024              |
           | Criteria satisfied:                                  |
           | -> RMS NGWF gradient lower than set threshold.       |
           ========================================================

Reusing previously generated solute cavity.
MG BCs: +ve charge blocks (gridpoints):     29108 (   19358358).
MG BCs: -ve charge blocks (gridpoints):      8409 (    1056366).
MG BCs:     Elided blocks (gridpoints):    164806 (  170555901).
MG BCs: Computational effort saved:  99.9804%.
MG BCs: Charge after coarse-graining:           -9.0009614.
MG DL_MG: Calling solver with defect correction order = 8
MG DL_MG: Solver finished
MG Hartree energy from (\int phi*rho dr):              1215.254642
MG Hartree energy from (\int eps (grad phi)^2 dr):     1215.067368
MG Discrepancy due to finite box and discretization:     -0.187274 (  -0.01541%)
MG Correction to account for finite box:                  0.006456
MG Remaining discrepancy, due to discretization:         -0.180818 (  -0.01488%)

================================================================================
           ---------------- ENERGY COMPONENTS (Eh) ----------------
           | Kinetic                    :     8570.41678986995248 |
           | Pseudo. (local,OBC,corr'd) :    -5074.19838632007577 |
           | Pseudopotential (non-local):     1409.76586544569454 |
           | Hartree (molecular)        :     1215.25464231309184 |
           | Exchange-correlation       :    -3373.99365156905151 |
           | Ion-ion (open BC)          :   830745.40014054230414 |
           | Dispersion Correction      :       -3.27098618624364 |
           | Smeared ion non-self corr. :  -830697.03183620865457 |
           | Smeared ion self corr.     :   -14525.98710726666468 |
           | Solvent cavitation energy  :        2.33264730566425 |
           | Solute-solvent dis-rep en. :       -1.67699846422467 |
           | Total                      :   -11732.98888053813607 |
           --------------------------------------------------------
           ------ LOCAL ENERGY COMPONENTS FROM MATRIX TRACES ------
           | Pseudopotential (local)    :    -5074.19838632009487 |
           | Hartree                    :    -2003.74849526509638 |
           --------------------------------------------------------
           Integrated density           :     7227.99999999894226
           Integrated density tr(KS)    :     7227.99999999999909
================================================================================


                        <<<<< CALCULATION SUMMARY >>>>>                         
|ITER|    RMS GRADIENT   |     TOTAL ENERGY    |   step   |     Epredicted              
   0     0.00004038995264 -11732.92355381918605   0.630352 -11732.97999863901350        
   1     0.00000975952939 -11732.98834167036694   0.085532 -11732.98878884895021        
   2     0.00000433977019 -11732.98886174196377   0.015900 -11732.98887817955983        
   3     0.00000195480024 -11732.98888053826522  <-- CG                                 

=================== Finished the calculation in solvent ========================
= Adjusting the following parameters: 
= read_denskern: F
= read_tightbox_ngwfs: F
= maxit_pen: 0 (restored to user-specified value)
= restart read filename prefix: ""
= restart write filename prefix: ""
================================================================================

================================================================================
IS: Calculation in solvent completed (NGWFs converged).      

Individual components of total energy in solvent:     hartree           kcal/mol
- Usual non-electrostatic DFT terms:    -12948.89917169279579    -8125556.732640
- Electrostatic fixed charge energy:      1215.25464231309184      762583.784906
- Apolar cavitation energy:                  2.33264730566425        1463.758252
- Apolar dispersion-repulsion energy:       -1.67699846422467       -1052.332401
 -------------------------------------------------------------------------------
- Total energy in solvent:              -11732.98888053826522    -7362561.521883

Components of total energy in solvent:                hartree           kcal/mol
- Usual non-electrostatic DFT terms:    -12948.89917169279579    -8125556.732640
- Electrostatic energy:                   1215.25464231309184      762583.784906
- Apolar energy terms:                       0.65564884143958         411.425851
 -------------------------------------------------------------------------------
- Total energy in solvent:              -11732.98888053826522    -7362561.521883

Calculation of free energy of solvation:              hartree           kcal/mol
- Total energy in solvent:         (+)  -11732.98888053826522    -7362561.521883
- Total energy in vacuum:          (-)  -11729.13402379292529    -7360142.562807
 -------------------------------------------------------------------------------
- Total free energy of solvation:           -3.85485674533993       -2418.959076

Components of polar term in f.e. of solvation:        hartree           kcal/mol
- Electrostatic:                            -4.72119499253904       -2962.594522
- Change in nonelectrostatic DFT terms:      0.21068940575969         132.209595
 -------------------------------------------------------------------------------
- Polar term in f.e. of solvation:          -4.51050558677935       -2830.384927

Components of free energy of solvation:               hartree           kcal/mol
- Polar term in f.e. of solvation: (+)      -4.51050558677935       -2830.384927
- Apolar (cavitation, dis., rep.): (+)       0.65564884143958         411.425851
 -------------------------------------------------------------------------------
- Total free energy of solvation:           -3.85485674533977       -2418.959076
================================================================================


------------------------------ TIMING INFORMATION ------------------------------
AVERAGE TIME:   29764.826s on     60 node(s)                                    
TOTAL TIME:     29764.827s on     60 node(s)                                    
================= AVERAGE TIMINGS FROM ALL NODES (CUMULATIVE) ==================
|| TAG                                    #calls    cpu time   %total  Gflops ||
|| work_imbalance                       :     1        0.00s   0.000%  ------ ||
|| sparse_set_to_garbage                :   164        0.03s   0.000%  ------ ||
|| parallel_prepare_fd_halos_request    :  1821        0.03s   0.000%  ------ ||
|| ngwfs_initialise_from_radial         :     1        0.11s   0.000%  ------ ||
|| basis_extract_function_from_box      :  3378        0.15s   0.001%  ------ ||
|| parallel_prepare_fd_halos_satisfy    :  1821        0.65s   0.002%  ------ ||
|| parallel_prepare_fd_halos_alloc      :  1821        1.79s   0.006%  ------ ||
|| pseudopotentials_nonlocal_mat        :    28        2.48s   0.008%  ------ ||
|| openbc_locps_radial                  :     1        3.09s   0.010%  ------ ||
|| density_init_guess_real              :     1        5.07s   0.017%  ------ ||
|| restart_kernel_read                  :     1        5.75s   0.019%  ------ ||
|| restart_ngwfs_tightbox_input         :     1        7.75s   0.026%  ------ ||
|| parallel_prepare_fd_halos_comms_imbal:  1821        7.81s   0.026%  ------ ||
|| parallel_prepare_fd_halos_clear      :  1821       18.78s   0.063%  ------ ||
|| sparse_init                          :     2       22.07s   0.074%  ------ ||
|| projectors_func_ovlp_box             :    28       24.55s   0.082%  ------ ||
|| parallel_prepare_fd_halos_comms_wait :  1821       25.53s   0.086%  ------ ||
|| function_ops_brappd_ketppd           :    28       28.16s   0.095%  ------ ||
|| projectors_init_fftbox_recip         :   133       32.43s   0.109%  ------ ||
|| palser_mano_kernel_optimise          :     1       40.07s   0.135%  ------ ||
|| basis_copy_function_to_box           : 54709       42.09s   0.141%  ------ ||
|| ngwf_gradient_coeffs                 :    15       49.29s   0.166%  ------ ||
|| fourier_apply_box_pair               :  4809       50.81s   0.171% 583.653 ||
|| pseudo_make_structure_factor         :     2       51.67s   0.174%  ------ ||
|| parallel_prepare_fd_halos            :  1821       54.61s   0.183%  ------ ||
|| sparse_embed_hotelling_invert_embed  :    28       78.11s   0.262%  ------ ||
|| restart_kernel_write                 :    16       99.51s   0.334%  ------ ||
|| finite_difference_derivative         :  1821      120.68s   0.405%  ------ ||
|| integrals_kinetic                    :    28      135.98s   0.457%  ------ ||
|| basis_dot_function_with_box          : 8.327M     167.70s   0.563%  ------ ||
|| projectors_gradient_batch            :   105      168.40s   0.566%  ------ ||
|| fourier_apply_cell_backward          :  1215      178.29s   0.599%  91.515 ||
|| sparse_trace                         :  5363      206.22s   0.693%  ------ ||
|| fourier_apply_cell_forward           :  1213      227.87s   0.766%  71.487 ||
|| openbc_locps_on_grid                 :     2      262.12s   0.881%  ------ ||
|| kernel_purify                        :   463      292.88s   0.984%  ------ ||
|| basis_add_function_to_box            : 17.27M     393.89s   1.323%  ------ ||
|| lnv_gradient_norm                    :   150      445.12s   1.495%  ------ ||
|| xc_energy_potential                  :   303      469.41s   1.577%  ------ ||
|| hamiltonian_energy_components        :     4      496.28s   1.667%  ------ ||
|| kernel_fix                           :   150      587.18s   1.973%  ------ ||
|| integrals_locpot_mat_els_batch       :  1113      675.75s   2.270%  ------ ||
|| ngwf_gradient_build_batch            :   105      745.85s   2.506%  ------ ||
|| restart_ngwfs_tightbox_output        :    13      989.63s   3.325%  ------ ||
|| density_batch_row_sums               :  2114     1004.20s   3.374%  ------ ||
|| ngwf_gradient_batch                  :   105     1018.34s   3.421%  ------ ||
|| ngwf_gradient_lnv                    :    15     1142.63s   3.839%  ------ ||
|| cell_grid_deposit_box_real           : 34782     1337.45s   4.493%  ------ ||
|| cell_grid_extract_box_real           : 38214     1574.18s   5.289%  ------ ||
|| sparse_product                       :  6464     1902.00s   6.390%  ------ ||
|| density_fftbox_deposit_to_cell       : 32918     2012.74s   6.762%  ------ ||
|| potential_apply_to_ngwf_batch        :  1113     3615.98s  12.149%  ------ ||
|| density_fftbox_interpolate_multiply  : 32918     3652.45s  12.271%  ------ ||
|| multigrid_prepare_bound_cond         :   303     4301.25s  14.451%  ------ ||
|| integrals_locpot_dbl_grid            :   159     4313.29s  14.491%  ------ ||
|| fourier_apply_box                    : 114.4k    4499.90s  15.118% 759.937 ||
|| density_batch_interp_deposit         :  2114     6561.42s  22.044%  ------ ||
|| dl_mg_solver_calls                   :   303     6849.94s  23.014%  ------ ||
|| density_on_dbl_grid                  :   302     7869.89s  26.440%  ------ ||
|| multigrid_calculate_hartree          :   303    11321.63s  38.037%  ------ ||
|| hamiltonian_lhxc_calculate           :   298    19586.92s  65.806%  ------ ||
|| lnv_denskernel_optimise_cg           :    15    24928.52s  83.752%  ------ ||
|| ngwf_cg_optimise                     :     2    28796.14s  96.746%  ------ ||
|| total_time                           :     1    29764.83s 100.000%  ------ ||
================================================================================
Overhead of generating timer report: 
- 0 ms averaging over threads,
- 15 ms ensuring consistency across MPI ranks,
- 0 ms printing in order.

Job completed: 29-02-2020 14:32 (-0000)

Application 39259218 resources: utime ~6246475s, stime ~213284s, Rss ~3835964, inblocks ~309113709, outblocks ~63498120
