 +---------------------------------------------------------------+
 |                                                               |
 |        ####### #     # ####### ####### ####### ######         |
 |        #     # ##    # #          #    #       #     #        |
 |        #     # # #   # #          #    #       #     #        |
 |        #     # #  #  # #####      #    #####   ######         |
 |        #     # #   # # #          #    #       #              |
 |        #     # #    ## #          #    #       #              |
 |        ####### #     # #######    #    ####### #              |
 |                                                               |
 |        Linear-Scaling Ab Initio Total Energy Program          |
 |                                                               |
 |          Release for academic collaborators of ODG            |
 |                                             Version 5.3.2.6.  |
 |                                                               |
 +---------------------------------------------------------------+
 |                                                               |
 |  Authors:                                                     |
 |  Jacek Dziedzic, Peter D. Haynes, Nicholas D. M. Hine,        |
 |  Arash. A. Mostofi, Mike C. Payne and Chris-Kriton Skylaris   |
 |                                                               |
 |  Contributors:                                                |
 |  J. Aarons, L. Andrinopoulos, P. W. Avraam, R. A. Bell,       |
 |  A. Bhandari, G. A. Bramley, R. J. Charlton, S. J. Clark,     |
 |  R. J. Clements, G. C. Constantinescu, F. Corsetti,           |
 |  N. Corsini, O. Dieguez, S. M. M. Dubois, K. K. B. Duff,      |
 |  J. M. Escartin, A. Greco, H. Helal, Q. O. Hill, L. P. Lee,   |
 |  J.-H. Li, E. B. Linscott, G. Moynihan, D. D. O`Regan,        |
 |  O. K. Okan, M. J. S. Phipps, C. J. Pickard,                  |
 |  J. C. A. Prentice, M. I. J. Probert, L. E. Ratcliff,         |
 |  M. Robinson, A. Ruiz Serrano, J. S. Spencer, E. W. Tait,     |
 |  G. Teobaldi, D. Turban, V. Vitale, K. A. Wilkinson,          |
 |  C. Weber, J. C. Womack, N. Yeung and T. J. Zuehlsdorff       |
 |                                                               |
 |                                   Copyright (c) 2004-2019     |
 |                                                               |
 |  Please cite:                                                 |
 |  "Introducing ONETEP: Linear-scaling density functional       |
 |   simulations on parallel computers".                         |
 |   C.-K. Skylaris, P. D. Haynes, A. A. Mostofi, M. C. Payne.   |
 |   J. Chem. Phys. 122 084119 (2005).                           |
 |                                                               |
 |          in all publications arising from your use of ONETEP. |
 |                                                               |
 +---------------------------------------------------------------+
 |                                                               |
 |   ONETEP is based on developments described in the following  |
 |   publications:                                               |
 |                                                               |
 |  "Nonorthogonal generalized Wannier function pseudopotential  |
 |   plane-wave method".                                         |
 |   C.-K. Skylaris, A. A. Mostofi, P. D. Haynes, O. Dieguez,    |
 |   M. C. Payne.                                                |
 |   Phys. Rev. B 66 035119 (2002).                              |
 |                                                               |
 |  "Preconditioned iterative minimization for linear-scaling    |
 |   electronic structure calculations".                         |
 |   A. A. Mostofi, P. D. Haynes, C.-K. Skylaris, M. C. Payne.   |
 |   J. Chem. Phys. 119(17), pp.8842-8848 (2003).                |
 |                                                               |
 |  "Total-energy calculations on a real space grid with         |
 |   localized functions and a plane-wave basis".                |
 |   A. A. Mostofi, C.-K. Skylaris, P. D. Haynes, M. C. Payne.   |
 |   Comput. Phys. Commun. 147, pp.788-802 (2002).               |
 |                                                               |
 |  "Accurate kinetic energy evaluation in electronic structure  |
 |   calculations with localized functions on real space grids"  |
 |   C.-K. Skylaris, A. A. Mostofi, P. D. Haynes, C. J. Pickard, |
 |   M. C. Payne.                                                |
 |   Comput. Phys. Commun. 140, pp.315-322 (2001).               |
 |                                                               |
 |  "Accurate ionic forces and geometry optimization in linear-  |
 |   scaling density-functional theory with local orbitals"      |
 |   N. D. M. Hine, M. Robinson, P. D. Haynes, C.-K. Skylaris,   |
 |   M. C. Payne, and A. A. Mostofi.                             |
 |   Phys. Rev. B 83 195102 (2011).                              |
 |                                                               |
 +---------------------------------------------------------------+

Job started: 26-04-2020 06:53 (+0100)
 
Reading parameters from file "host_34301.dat" ...... done

If your calculation crashes here, before "Checking processes and threads..."
is displayed, then your stack size is insufficient.
If so, use "ulimit -s unlimited" at runtime.
You can disable this check with "check_stack_size F".

Checking processes and threads...
   Determining the default number of threads...
      No default threads set at compilation time: defaulting to 1.
      OpenMP library call suggests 4 threads.
      Hybrid MPI-OpenMP compilation detected.
      Number of MPI processes > 1.
      OMP_NUM_THREADS environment variable present and
      its value matches the one obtained from the OpenMP library call.
      Using this value as default.
      Default threads: 4
      Default applies to threads_max and threads_num_fftboxes.
      Settings in the input file override this default.
   ... done

   Running with 60 MPI processes.
   There are 6 MPI processes running on the same node as the root process.
   Each MPI process is using: 
               1 threads for simulation cell FFTs.
               1 threads for parallel FFT box operations.
               4 threads for loops over batched FFT box operations.
               4 threads in other parallel regions.
... done

Basic input checks...... done

Reading geometry and species blocks from file "host_34301.dat" ...
  <species_atomic_set> block not found: NGWF initialisation set to SOLVE
IS: Dielectric excluded regions:
    - NONE.
    
  Number of PPD points along a3 set to 1.  This is 
  the default value, it may have been provided also in the input file.
... done
 Writing xyz coordinates to file "host_34301.xyz" ... done


--------------------------------------------------------------------------------
---------------------------------- INPUT FILE ----------------------------------
--------------------------------------------------------------------------------

cutoff_energy       : 800 eV                                                    
xc_functional PBE                                                               
task SINGLEPOINT                                                                
write_xyz true                                                                  
output_detail VERBOSE                                                           
ngwf_threshold_orig : 0.000002                                                  
kernel_cutoff       : 1000                                                      
k_zero              : 3.5                                                       
elec_cg_max 0                                                                   
occ_mix 1.0                                                                     
dispersion 1                                                                    
maxit_ngwf_cg 40                                                                
minit_lnv 10                                                                    
maxit_lnv 10                                                                    
write_denskern T                                                                
write_tightbox_ngwfs T                                                          
charge 9                                                                        
is_implicit_solvent T                                                           
is_auto_solvation T                                                             
is_include_apolar T                                                             
is_smeared_ion_rep T                                                            
is_solvent_surf_tension 4.7624E-5 Ha/bohr**2                                    
is_apolar_scaling_factor 0.281075                                               
is_solvation_beta 1.3                                                           
is_density_threshold 0.00035                                                    
is_bulk_permittivity 78.54                                                      
is_dielectric_model fix_initial                                                 
is_smeared_ion_width 0.8                                                        
mg_defco_fd_order 8                                                             
is_bc_coarseness 10                                                             
is_bc_surface_coarseness 1                                                      
fine_grid_scale 2.0                                                             
%block species                                                                  
N   N   7 4 8.0                                                                 
H   H   1 1 8.0                                                                 
C   C   6 4 8.0                                                                 
S   S  16 9 8.0                                                                 
O   O   8 4 8.0                                                                 
%endblock species                                                               
%block species_pot                                                              
N   N_00.recpot                                                                 
H   H_04.recpot                                                                 
C   C_01.recpot                                                                 
S   S_00.recpot                                                                 
O   O_02.recpot                                                                 
%endblock species_pot                                                           
%block lattice_cart                                                             
135.996   0.000   0.000                                                         
0.000 142.663   0.000                                                           
0.000   0.000   160.158                                                         
%endblock lattice_cart                                                          
%block positions_abs                                                            
     Hash =   000005018517729327032466
%endblock positions_abs                                                         

--------------------------------------------------------------------------------
-------------------------------- END INPUT FILE --------------------------------
--------------------------------------------------------------------------------


 
 ESDF WARNING(1): "kernelcutoff" (esdf_physical) has no units. Assume "bohr".
 ESDF WARNING(2): "kzero" (esdf_physical) has no units. Assume "1/bohr".
 ESDF WARNING(3
 ): "issmearedionwidth" (esdf_physical) has no units. Assume "bohr".
<<<<<<<<<<<<<<<<<<<<<<<<<<<<<<<<< Full system >>>>>>>>>>>>>>>>>>>>>>>>>>>>>>>>>>
<<<<<<<<<<<<<<<<<<<<<<<<< Pseudopotential information >>>>>>>>>>>>>>>>>>>>>>>>>>
File: N_00.recpot [ 2001 points up to Gmax=  52.9 (1/bohr)]
  Atomic number:  7;  ionic charge:  5.000000
    Shell 1: l = 0; rc = 1.48 bohr
File: H_04.recpot [ 2001 points up to Gmax=  52.9 (1/bohr)]
  Atomic number:  1;  ionic charge:  1.000000
    Local potential
File: C_01.recpot [ 2001 points up to Gmax=  52.9 (1/bohr)]
  Atomic number:  6;  ionic charge:  4.000000
    Shell 1: l = 0; rc = 1.48 bohr
File: S_00.recpot [ 2001 points up to Gmax=  52.9 (1/bohr)]
  Atomic number: 16;  ionic charge:  6.000000
    Shell 1: l = 0; rc = 1.90 bohr
    Shell 2: l = 2; rc = 1.84 bohr
File: O_02.recpot [ 2001 points up to Gmax=  52.9 (1/bohr)]
  Atomic number:  8;  ionic charge:  6.000000
    Shell 1: l = 0; rc = 1.31 bohr
<<<<<<<<<<<<<<<<<<<<<<<<<<<<<<<<<<<<<<<<>>>>>>>>>>>>>>>>>>>>>>>>>>>>>>>>>>>>>>>>

-------------------------- Atom counting information ---------------------------
Symbol    Natoms    Nngwfs    Nprojs
  N        236       944       236
  H       1311      1311         0
  C        810      3240       810
  S          6        54        36
  O        239       956       239
.......   ......    ......    ......
Totals:   2602      6505      1321
--------------------------------------------------------------------------------

=============================== PSINC grid sizes ===============================
                      Simulation cell:  270 x 286 x 315
                              FFT-box:   99 x 105 x  99
                                  PPD:    5 x  11 x   1
Grid space d1=  0.503688888889a0 (KE cutoff=  29.94189Eh = 814.76038eV)
Grid space d2=  0.498821678322a0 (KE cutoff=  30.52906Eh = 830.73786eV)
Grid space d3=  0.508438095238a0 (KE cutoff=  29.38514Eh = 799.61048eV)
================================================================================

********************* Fourier parallelisation information **********************
       Coarse grid (whole simulation cell) dimensions:    270   286   315
          Real-space ('12') slabs/node (min max mean):      5     6     5
         Recip-space ('23') slabs/node (min max mean):      2     3     2
********************************************************************************

********************* Fourier parallelisation information **********************
       Double grid (whole simulation cell) dimensions:    540   572   630
          Real-space ('12') slabs/node (min max mean):     10    11    10
         Recip-space ('23') slabs/node (min max mean):      4     5     4
********************************************************************************
ONETEP fine grid is 540 x 572 x 630 gridpoints, 135.9960 x 142.6630 x 160.1580 bohr.
FD multigrid is     537 x 569 x 625 gridpoints, 135.2405 x 141.9148 x 158.8869 bohr.


Calculating local pseudopotential in open BC on a radial grid ...
Discrepancy between calculated realspace psloc and -Z/x on [5a0,253.965a0]:
max |rel. diff| # avg |rel. diff| #  avg rel. diff #  f # pseudopotential file
 0.000259282084    0.000004141996   0.000000074978   54  'N_00.recpot'
 0.000405386992    0.000016970607  -0.000000075982   54  'H_04.recpot'
 0.000371694516    0.000017434762   0.000000149329   54  'C_01.recpot'
 0.000461642895    0.000020341726   0.000000491514   54  'S_00.recpot'
 0.000682525123    0.000027368244   0.000000159803   54  'O_02.recpot'
... done

Atom SCF Calculation for N  : Z (AE atom) =   7 : Z (PS atom) =   5
Config String:
Orbitals (num,occ):  2     2.00 3.00
Orbitals   (num,l):  2        0    1
Real-space Grid (nr,dr,rmax): 1203    0.0066555740    8.0000000000
Spherical Bessel Basis (nsws,lmax,cutoff):   47    1  176.3951722778
Confining potential (l,width,scale):  0    3.0000000000  100.0000000000
Confining potential (l,width,scale):  1    3.0000000000  100.0000000000
  1         -4.7312375307   -3.4155304497    7.0523828109   -1.9351020946
  2         -9.7309464766   -2.0532547791    8.2966052865   -2.2494486027
  3         -9.6627394379   -2.1124926340    8.2327997121   -2.2369778124
  4         -9.6814993499   -2.1215521045    8.2229805960   -2.2365178421
  5         -9.6843326483   -2.1250939529    8.2191374534   -2.2362718126
  6         -9.6859628709   -2.1267894855    8.2172963573   -2.2362066344
  7         -9.6867347035   -2.1276425665    8.2163697352   -2.2361903369
  8         -9.6870802100   -2.1280764625    8.2158983890   -2.2361891460
  9         -9.6872290423   -2.1282977424    8.2156580222   -2.2361920435
 10         -9.6872901988   -2.1284107021    8.2155353368   -2.2361953393
 11         -9.6873135296   -2.1284684031    8.2154726809   -2.2361979819
 12         -9.6873212476   -2.1284978948    8.2154406648   -2.2361998431
 13         -9.6873229586   -2.1285129774    8.2154242957   -2.2362010676
 14         -9.6873226456   -2.1285206957    8.2154159216   -2.2362018403
 15         -9.6873218534   -2.1285246479    8.2154116349   -2.2362023142
 16         -9.6873212599   -2.1285262679    8.2154098784   -2.2362025420
 17         -9.6873207834   -2.1285272564    8.2154088068   -2.2362026955
 18         -9.6873204210   -2.1285278596    8.2154081529   -2.2362027982
 19         -9.6873201550   -2.1285282280    8.2154077538   -2.2362028667
 20         -9.6873199645   -2.1285284529    8.2154075102   -2.2362029121
 21         -9.6873198305   -2.1285285903    8.2154073614   -2.2362029421
 22         -9.6873197377   -2.1285286742    8.2154072705   -2.2362029618
Atom SCF converged after  22 iterations to a total energy of     -9.68731974

Atom SCF Calculation for H  : Z (AE atom) =   1 : Z (PS atom) =   1
Config String:
Orbitals (num,occ):  1     1.00
Orbitals   (num,l):  1        0
Real-space Grid (nr,dr,rmax): 1203    0.0066555740    8.0000000000
Spherical Bessel Basis (nsws,lmax,cutoff):   47    0  176.3951722778
Confining potential (l,width,scale):  0    3.0000000000  100.0000000000
  1         -0.3194257691   -0.2393854593    0.2820953124   -0.2424203209
  2         -0.3951823392   -0.2377116493    0.2886404059   -0.2475147891
  3         -0.4317044583   -0.2352244387    0.2921333887   -0.2514046172
  4         -0.4470703708   -0.2341892222    0.2934391879   -0.2531009782
  5         -0.4532132900   -0.2338556667    0.2938388426   -0.2537313520
  6         -0.4556579251   -0.2337612552    0.2939448584   -0.2539550462
  7         -0.4566418315   -0.2337377355    0.2939680120   -0.2540342273
  8         -0.4570437922   -0.2337331116    0.2939708287   -0.2540627372
  9         -0.4572102946   -0.2337328328    0.2939698291   -0.2540732650
 10         -0.4572800424   -0.2337332404    0.2939687193   -0.2540772588
 11         -0.4573095100   -0.2337335791    0.2939680317   -0.2540788122
 12         -0.4573220379   -0.2337337762    0.2939676699   -0.2540794294
 13         -0.4573273880   -0.2337338775    0.2939674931   -0.2540796787
 14         -0.4573296803   -0.2337339266    0.2939674099   -0.2540797808
 15         -0.4573306647   -0.2337339495    0.2939673718   -0.2540798230
 16         -0.4573310882   -0.2337339601    0.2939673545   -0.2540798406
 17         -0.4573312706   -0.2337339649    0.2939673467   -0.2540798479
 18         -0.4573313493   -0.2337339670    0.2939673433   -0.2540798510
Atom SCF converged after  18 iterations to a total energy of     -0.45733135

Atom SCF Calculation for C  : Z (AE atom) =   6 : Z (PS atom) =   4
Config String:
Orbitals (num,occ):  2     2.00 2.00
Orbitals   (num,l):  2        0    1
Real-space Grid (nr,dr,rmax): 1203    0.0066555740    8.0000000000
Spherical Bessel Basis (nsws,lmax,cutoff):   47    1  176.3951722778
Confining potential (l,width,scale):  0    3.0000000000  100.0000000000
Confining potential (l,width,scale):  1    3.0000000000  100.0000000000
  1         -5.2976922011   -1.3069684169    4.5135249990   -1.4493313817
  2         -5.3721716256   -1.3429755895    4.4750154450   -1.4361613026
  3         -5.3809959565   -1.3617365618    4.4541655428   -1.4305930207
  4         -5.3918938866   -1.3667928461    4.4484735100   -1.4294652294
  5         -5.3956096428   -1.3688539142    4.4461376126   -1.4290734646
  6         -5.3968271862   -1.3696852393    4.4451910874   -1.4289366866
  7         -5.3972028401   -1.3700178062    4.4448112275   -1.4288900460
  8         -5.3973067903   -1.3701500158    4.4446598370   -1.4288749220
  9         -5.3973286940   -1.3702023868    4.4445997329   -1.4288704293
 10         -5.3973289850   -1.3702230869    4.4445759233   -1.4288693188
 11         -5.3973254264   -1.3702312560    4.4445665049   -1.4288691775
 12         -5.3973224003   -1.3702344755    4.4445627836   -1.4288692549
 13         -5.3973208708   -1.3702354890    4.4445616088   -1.4288693270
 14         -5.3973198783   -1.3702360102    4.4445610034   -1.4288693814
 15         -5.3973192535   -1.3702362780    4.4445606917   -1.4288694190
 16         -5.3973188684   -1.3702364155    4.4445605313   -1.4288694437
 17         -5.3973186349   -1.3702364860    4.4445604489   -1.4288694595
 18         -5.3973184951   -1.3702365221    4.4445604065   -1.4288694693
 19         -5.3973184122   -1.3702365405    4.4445603848   -1.4288694753
Atom SCF converged after  19 iterations to a total energy of     -5.39731841

Atom SCF Calculation for S  : Z (AE atom) =  16 : Z (PS atom) =   6
Config String:
Orbitals (num,occ):  3     2.00 4.00 0.00
Orbitals   (num,l):  3        0    1    2
Real-space Grid (nr,dr,rmax): 1203    0.0066555740    8.0000000000
Spherical Bessel Basis (nsws,lmax,cutoff):   47    2  176.3951722778
Confining potential (l,width,scale):  0    3.0000000000  100.0000000000
Confining potential (l,width,scale):  1    3.0000000000  100.0000000000
Confining potential (l,width,scale):  2    3.0000000000  100.0000000000
  1        -12.4735062396   -1.0328741412   10.1554312477   -2.4512393157
  2         -9.9458301913   -2.4607392455    8.3041325857   -2.0306994528
  3        -10.1450417646   -2.2931184565    8.4831893826   -2.0812538287
  4        -10.1528335592   -2.2733105793    8.5050388867   -2.0896035179
  5        -10.1571940363   -2.2633716629    8.5160794258   -2.0939370707
  6        -10.1594380571   -2.2584938667    8.5215163935   -2.0961289008
  7        -10.1605856507   -2.2561081821    8.5241804044   -2.0972291378
  8        -10.1611799191   -2.2549395235    8.5254868240   -2.0977806248
  9        -10.1614918752   -2.2543658586    8.5261285885   -2.0980571586
 10        -10.1616572884   -2.2540839121    8.5264441898   -2.0981959233
 11        -10.1617455602   -2.2539453058    8.5265994231   -2.0982656006
 12        -10.1617928447   -2.2538772062    8.5266757320   -2.0983006047
 13        -10.1618182292   -2.2538437891    8.5267131983   -2.0983181961
 14        -10.1618318741   -2.2538274201    8.5267315620   -2.0983270391
 15        -10.1618392144   -2.2538194197    8.5267405433   -2.0983314852
 16        -10.1618431651   -2.2538155200    8.5267449245   -2.0983337210
 17        -10.1618452923   -2.2538136252    8.5267470551   -2.0983348455
 18        -10.1618464380   -2.2538127080    8.5267480875   -2.0983354110
 19        -10.1618470552   -2.2538122659    8.5267485856   -2.0983356955
 20        -10.1618473878   -2.2538120540    8.5267488248   -2.0983358386
 21        -10.1618475670   -2.2538119530    8.5267489389   -2.0983359106
 22        -10.1618476637   -2.2538119053    8.5267489929   -2.0983359468
Atom SCF converged after  22 iterations to a total energy of    -10.16184766

Atom SCF Calculation for O  : Z (AE atom) =   8 : Z (PS atom) =   6
Config String:
Orbitals (num,occ):  2     2.00 4.00
Orbitals   (num,l):  2        0    1
Real-space Grid (nr,dr,rmax): 1203    0.0066555740    8.0000000000
Spherical Bessel Basis (nsws,lmax,cutoff):   47    1  176.3951722778
Confining potential (l,width,scale):  0    3.0000000000  100.0000000000
Confining potential (l,width,scale):  1    3.0000000000  100.0000000000
  1         -1.8735052164   -7.5539365035   10.1554312477   -2.4512393157
  2        -16.0318313751   -3.1285771268   13.6395848164   -3.2358799643
  3        -15.9524020423   -3.0762819706   13.6967272503   -3.2536856837
  4        -15.8521515939   -3.0781493909   13.6951909330   -3.2561700440
  5        -15.8357139793   -3.0748501933   13.6988803334   -3.2580493133
  6        -15.8246052853   -3.0740779781   13.6997881576   -3.2588327446
  7        -15.8189019501   -3.0737449687   13.7001869911   -3.2592378801
  8        -15.8159785510   -3.0736026016   13.7003615168   -3.2594475790
  9        -15.8144776168   -3.0735437994   13.7004360379   -3.2595560735
 10        -15.8137058024   -3.0735207882   13.7004667348   -3.2596122456
 11        -15.8133083127   -3.0735125946   13.7004786868   -3.2596413656
 12        -15.8131032938   -3.0735102195   13.7004828997   -3.2596564858
 13        -15.8129973902   -3.0735099286   13.7004840891   -3.2596643505
 14        -15.8129426040   -3.0735102506   13.7004842061   -3.2596684489
 15        -15.8129142203   -3.0735106556   13.7004840157   -3.2596705887
 16        -15.8128994940   -3.0735109855   13.7004837906   -3.2596717080
 17        -15.8128918425   -3.0735112169   13.7004836103   -3.2596722946
 18        -15.8128878614   -3.0735113674   13.7004834848   -3.2596726026
 19        -15.8128857871   -3.0735114608   13.7004834035   -3.2596727646
 20        -15.8128847048   -3.0735115170   13.7004833533   -3.2596728500
 21        -15.8128841394   -3.0735115501   13.7004833231   -3.2596728951
 22        -15.8128838436   -3.0735115693   13.7004833054   -3.2596729190
 23        -15.8128836887   -3.0735115802   13.7004832951   -3.2596729316
 24        -15.8128836074   -3.0735115864   13.7004832893   -3.2596729383
Atom SCF converged after  24 iterations to a total energy of    -15.81288361

========================== Calculation in vacuum ==============================
= Adjusting the following parameters: 
= is_implicit_solvent: F
= is_include_apolar: F
= write_denskern: T
= write_tightbox_ngwfs: T
= restart read filename prefix: ""
= restart write filename prefix: "vacuum_"
===============================================================================

Determining parallel strategy ...
... using space-filling curve
... NGWF load balancing: max    109;  min    108;  average    108
... Projector load balancing: max     25;  min     21;  average     22
... done
Calculating direct Ion-Ion energy ...
Ion-Ion Energy        :    824902.63080372626428
======================= Empirical dispersion information =======================
Model : Elstner
Dispersion Correction Energy: -0.32539910E+01 Hartree
================================================================================
Basis initialisation ...... NGWF spheres initialised
... Projector spheres initialised
... NGWF tight boxes initialised
... Tight-boxes gathered
... NGWF basis size (local,global):    1029092  62177859
... Nonlocal pseudopotential projector initialisation
... done

========================== Sparse matrix information ===========================
                        Overlap matrix filling:   6.73%
                        Density kernel filling: 100.00%
              NGWF-Proj overlap matrix filling:   1.78%
                    Hamiltonian matrix filling:   7.59%
                  NGWF diagonal matrix filling:   0.05%
                             KS matrix filling: 100.00% 
                           KSKS matrix filling: 100.00% 
================================================================================

Sparse matrix initialisation ... done

Generating smeared ion density ... done
Smeared ion self correction:     -14457.169564
Smeared ion non-self correction: -824854.667580
NGWF initialisation ...... done
============ Calculation of NGWF S^-1 using Hotelling algorithm ================ 
         Iteration  |  Frobenius norm and Maximum abs value    (of I-S*S_n^-1)   
               1       0.78556689E+02     0.98327675E+00
               2       0.76760312E+02     0.96698036E+00
               3       0.73831905E+02     0.93558478E+00
               4       0.69634959E+02     0.87709731E+00
               5       0.64371782E+02     0.77504183E+00
               6       0.58425834E+02     0.70949050E+00
               7       0.52406840E+02     0.67304108E+00
               8       0.46840340E+02     0.64607191E+00
               9       0.40846245E+02     0.60609135E+00
              10       0.32717372E+02     0.53571746E+00
              11       0.22224645E+02     0.43192095E+00
              12       0.11536036E+02     0.29474607E+00
              13       0.38937738E+01     0.14021714E+00
              14       0.63875303E+00     0.40770976E-01
              15       0.32465939E-01     0.41665763E-02
              16       0.22428955E-03     0.48637401E-04
              17       0.24874205E-07     0.69947595E-08
              18       0.99291864E-13     0.48849813E-14
================================================================================
Calculating local pseudopotential in open BC on the fine real space grid ...
... done

MG BCs: +ve charge blocks (gridpoints):     20407 (   16067875).
MG BCs: -ve charge blocks (gridpoints):      8044 (    1083936).
MG BCs:     Elided blocks (gridpoints):    173507 (  173818814).
MG BCs: Computational effort saved:  99.9851%.
MG BCs: Charge after coarse-graining:           -9.0002258.
MG DL_MG: Calling solver with defect correction order = 8
MG DL_MG: Solver finished
MG Hartree energy from (\int phi*rho dr):              1462.474352
MG Hartree energy from (\int eps (grad phi)^2 dr):     1461.856719
MG Discrepancy due to finite box and discretization:     -0.617633 (  -0.04223%)
MG Correction to account for finite box:                  0.466950
MG Remaining discrepancy, due to discretization:         -0.150683 (  -0.01030%)
Up spin density kernel initialisation ... 
======= Optimisation of K by Palser-Manolopoulos canonical purification ======== 
         Iteration  |  Band structure energy |    c_n   
               1       -2571.39766037639038    0.5277295
               2       -2746.72217399972487    0.5175496
               3       -2927.53407104657981    0.5151955
               4       -3079.95610228221085    0.5278117
               5       -3174.91495598668507    0.5626662
               6       -3215.09925532302259    0.6080064
               7       -3228.68606065477525    0.6206828
               8       -3234.50033640166112    0.6176011
               9       -3237.33452531764397    0.6291764
              10       -3238.52036738131574    0.6597120
              11       -3238.96572491640154    0.6983829
              12       -3239.13914716914587    0.7080723
              13       -3239.22683754243144    0.6679825
              14       -3239.28793673733162    0.6023726
              15       -3239.32944928431289    0.5192766
              16       -3239.35012712472599    0.4150525
              17       -3239.35249635793480    0.3855111
              18       -3239.35278801164259    0.4123995
              19       -3239.35297861583285    0.4530191
              20       -3239.35312827134612    0.4863881
              21       -3239.35323819387304    0.4988774
              22       -3239.35334028503166    0.4999925
              23       -3239.35343549754998    0.5000000
              24       -3239.35348997519122    0.5000000
              25       -3239.35350155319520    0.5000000
              26       -3239.35350195607452    0.5000086
              27       -3239.35350195653427    0.5000086
Termination criterion satisfied: band energy change below threshold.
Final occupancy bounds: [    0.00000000000000:    1.00000000000000]
Closest occupancy to 0.5:     1.00000000000000
================================================================================
... done

Writing density kernel to file "host_34301.vacuum_dkn" ... done

>>> Optimising kernel for current NGWFs:
   Initial electron number for spin 1:    7192.00000000
     Final electron number for spin 1:    7192.00000000

=================== Penalty functional idempotency correction ==================
 RMS occupancy error at iteration   1:  0.000000 (step -0.5000 Ne1=   7192.0000)
            Final RMS occupancy error   :  0.000000 (Ne1=   7192.0000)
               Final occupancy bounds   : [ -0.0000,  1.0000]
================================================================================

................................................................................
<<<<<<<<<<<<<< LNV (Original version) density kernel optimisation >>>>>>>>>>>>>>
~~~~~~~~~~~~~~~~~~~~~~~~~~~~~~~~~~~~~~~~~~~~~~~~~~~~~~~~~~~~~~~~~~~~~~~~~~~~~~~~
   iter  |      energy (Eh)       | rms gradient |  commutator  |   dE (Eh)
MG BCs: +ve charge blocks (gridpoints):     31093 (   17219510).
MG BCs: -ve charge blocks (gridpoints):      8362 (    1117249).
MG BCs:     Elided blocks (gridpoints):    162811 (  172633866).
MG BCs: Computational effort saved:  99.9793%.
MG BCs: Charge after coarse-graining:           -9.0009592.
MG DL_MG: Calling solver with defect correction order = 8
MG DL_MG: Solver finished
MG Hartree energy from (\int phi*rho dr):              1416.087419
MG Hartree energy from (\int eps (grad phi)^2 dr):     1415.420068
MG Discrepancy due to finite box and discretization:     -0.667351 (  -0.04713%)
MG Correction to account for finite box:                  0.474065
MG Remaining discrepancy, due to discretization:         -0.193286 (  -0.01365%)
      ideal mu1:      -0.730676811354
             Q0:  -11509.075973568135
             G0:    -142.399425567250
   RMS gradient:       0.001834453965
MG BCs: +ve charge blocks (gridpoints):     31080 (   17301054).
MG BCs: -ve charge blocks (gridpoints):      8251 (    1096600).
MG BCs:     Elided blocks (gridpoints):    162822 (  172572971).
MG BCs: Computational effort saved:  99.9794%.
MG BCs: Charge after coarse-graining:           -9.0009799.
MG DL_MG: Calling solver with defect correction order = 8
MG DL_MG: Solver finished
MG Hartree energy from (\int phi*rho dr):              1442.215116
MG Hartree energy from (\int eps (grad phi)^2 dr):     1441.564767
MG Discrepancy due to finite box and discretization:     -0.650348 (  -0.04509%)
MG Correction to account for finite box:                  0.472880
MG Remaining discrepancy, due to discretization:         -0.177469 (  -0.01231%)
     Trial step:       0.500000000000
             Q1:  -11520.025067690178
 Quadratic coef:      60.250618661583
 Linear coef   :     -71.199712783625
           Qmin:  -11530.110608618708
Quadratic minimum step length (  0.295431459316) accepted
    Initial Ne1:    7192.00000000
      Final Ne1:    7192.00000000

=================== Penalty functional idempotency correction ==================
 RMS occupancy error at iteration   1:  0.003322 (step -0.4887 Ne1=   7192.0000)
 RMS occupancy error at iteration   2:  0.000025 (step -0.5001 Ne1=   7192.0000)
            Final RMS occupancy error   :  0.000000 (Ne1=   7192.0000)
               Final occupancy bounds   : [  0.0000,  1.0000]
================================================================================

    1        -1.150907597357E+04     1.8345E-03     1.6592E-03
MG BCs: +ve charge blocks (gridpoints):     31095 (   17269563).
MG BCs: -ve charge blocks (gridpoints):      8298 (    1105331).
MG BCs:     Elided blocks (gridpoints):    162808 (  172595731).
MG BCs: Computational effort saved:  99.9794%.
MG BCs: Charge after coarse-graining:           -9.0009712.
MG DL_MG: Calling solver with defect correction order = 8
MG DL_MG: Solver finished
MG Hartree energy from (\int phi*rho dr):              1423.622581
MG Hartree energy from (\int eps (grad phi)^2 dr):     1422.966242
MG Discrepancy due to finite box and discretization:     -0.656338 (  -0.04610%)
MG Correction to account for finite box:                  0.473225
MG Remaining discrepancy, due to discretization:         -0.183114 (  -0.01286%)
      ideal mu1:      -0.770712233834
             Q0:  -11530.498348483234
             G0:     -11.559222781466
   RMS gradient:       0.000519204057
MG BCs: +ve charge blocks (gridpoints):     31095 (   17286414).
MG BCs: -ve charge blocks (gridpoints):      8265 (    1099995).
MG BCs:     Elided blocks (gridpoints):    162809 (  172584216).
MG BCs: Computational effort saved:  99.9794%.
MG BCs: Charge after coarse-graining:           -9.0009748.
MG DL_MG: Calling solver with defect correction order = 8
MG DL_MG: Solver finished
MG Hartree energy from (\int phi*rho dr):              1429.120606
MG Hartree energy from (\int eps (grad phi)^2 dr):     1428.468077
MG Discrepancy due to finite box and discretization:     -0.652529 (  -0.04566%)
MG Correction to account for finite box:                  0.472604
MG Remaining discrepancy, due to discretization:         -0.179924 (  -0.01259%)
     Trial step:       0.384338040868
             Q1:  -11533.209813587251
 Quadratic coef:       1.731183933767
 Linear coef   :      -4.442649037784
           Qmin:  -11533.348584395193
Quadratic minimum step length (  0.493153556402) accepted
    Initial Ne1:    7191.99990688
      Final Ne1:    7192.00000000

=================== Penalty functional idempotency correction ==================
 RMS occupancy error at iteration   1:  0.001734 (step -0.4934 Ne1=   7192.0000)
 RMS occupancy error at iteration   2:  0.000009 (step -0.5001 Ne1=   7192.0000)
            Final RMS occupancy error   :  0.000000 (Ne1=   7192.0000)
               Final occupancy bounds   : [  0.0000,  1.0000]
================================================================================

    2        -1.153049834848E+04     5.1920E-04     4.6961E-04    -2.1422E+01
MG BCs: +ve charge blocks (gridpoints):     31092 (   17291170).
MG BCs: -ve charge blocks (gridpoints):      8262 (    1098545).
MG BCs:     Elided blocks (gridpoints):    162811 (  172580910).
MG BCs: Computational effort saved:  99.9794%.
MG BCs: Charge after coarse-graining:           -9.0009759.
MG DL_MG: Calling solver with defect correction order = 8
MG DL_MG: Solver finished
MG Hartree energy from (\int phi*rho dr):              1430.717879
MG Hartree energy from (\int eps (grad phi)^2 dr):     1430.066352
MG Discrepancy due to finite box and discretization:     -0.651527 (  -0.04554%)
MG Correction to account for finite box:                  0.472442
MG Remaining discrepancy, due to discretization:         -0.179085 (  -0.01252%)
      ideal mu1:      -0.791564412987
             Q0:  -11533.382380909869
             G0:      -1.797022791006
   RMS gradient:       0.000204839361
MG BCs: +ve charge blocks (gridpoints):     31095 (   17290198).
MG BCs: -ve charge blocks (gridpoints):      8271 (    1099554).
MG BCs:     Elided blocks (gridpoints):    162808 (  172580873).
MG BCs: Computational effort saved:  99.9794%.
MG BCs: Charge after coarse-graining:           -9.0009756.
MG DL_MG: Calling solver with defect correction order = 8
MG DL_MG: Solver finished
MG Hartree energy from (\int phi*rho dr):              1428.505027
MG Hartree energy from (\int eps (grad phi)^2 dr):     1427.853937
MG Discrepancy due to finite box and discretization:     -0.651090 (  -0.04558%)
MG Correction to account for finite box:                  0.472189
MG Remaining discrepancy, due to discretization:         -0.178901 (  -0.01252%)
     Trial step:       0.435359244434
             Q1:  -11533.833004565095
 Quadratic coef:       0.331726829298
 Linear coef   :      -0.782350484524
           Qmin:  -11533.843658252081
Quadratic minimum step length (  0.513379512514) accepted
    Initial Ne1:    7191.99995902
      Final Ne1:    7192.00000000

=================== Penalty functional idempotency correction ==================
 RMS occupancy error at iteration   1:  0.000569 (step -0.4977 Ne1=   7192.0000)
 RMS occupancy error at iteration   2:  0.000001 (step -0.5000 Ne1=   7192.0000)
            Final RMS occupancy error   :  0.000000 (Ne1=   7192.0000)
               Final occupancy bounds   : [  0.0000,  1.0000]
================================================================================

    3        -1.153338238091E+04     2.0484E-04     1.8527E-04    -2.8840E+00
MG BCs: +ve charge blocks (gridpoints):     31093 (   17290084).
MG BCs: -ve charge blocks (gridpoints):      8274 (    1099732).
MG BCs:     Elided blocks (gridpoints):    162810 (  172580809).
MG BCs: Computational effort saved:  99.9794%.
MG BCs: Charge after coarse-graining:           -9.0009755.
MG DL_MG: Calling solver with defect correction order = 8
MG DL_MG: Solver finished
MG Hartree energy from (\int phi*rho dr):              1428.116526
MG Hartree energy from (\int eps (grad phi)^2 dr):     1427.465506
MG Discrepancy due to finite box and discretization:     -0.651020 (  -0.04559%)
MG Correction to account for finite box:                  0.472144
MG Remaining discrepancy, due to discretization:         -0.178876 (  -0.01253%)
      ideal mu1:      -0.791730683135
             Q0:  -11533.847717677243
             G0:      -0.421801739440
   RMS gradient:       0.000099356926
MG BCs: +ve charge blocks (gridpoints):     31092 (   17290807).
MG BCs: -ve charge blocks (gridpoints):      8271 (    1099460).
MG BCs:     Elided blocks (gridpoints):    162811 (  172580358).
MG BCs: Computational effort saved:  99.9794%.
MG BCs: Charge after coarse-graining:           -9.0009757.
MG DL_MG: Calling solver with defect correction order = 8
MG DL_MG: Solver finished
MG Hartree energy from (\int phi*rho dr):              1429.324333
MG Hartree energy from (\int eps (grad phi)^2 dr):     1428.673297
MG Discrepancy due to finite box and discretization:     -0.651036 (  -0.04555%)
MG Correction to account for finite box:                  0.472052
MG Remaining discrepancy, due to discretization:         -0.178984 (  -0.01252%)
     Trial step:       0.472762643063
             Q1:  -11533.944125930779
 Quadratic coef:       0.103003851651
 Linear coef   :      -0.199412105186
           Qmin:  -11533.944231514000
Quadratic minimum step length (  0.457626546948) accepted
    Initial Ne1:    7191.99999126
      Final Ne1:    7192.00000000

=================== Penalty functional idempotency correction ==================
 RMS occupancy error at iteration   1:  0.000183 (step -0.4992 Ne1=   7192.0000)
            Final RMS occupancy error   :  0.000000 (Ne1=   7192.0000)
               Final occupancy bounds   : [ -0.0000,  1.0000]
================================================================================

    4        -1.153384771768E+04     9.9357E-05     8.9866E-05    -4.6534E-01
MG BCs: +ve charge blocks (gridpoints):     31091 (   17290774).
MG BCs: -ve charge blocks (gridpoints):      8271 (    1099479).
MG BCs:     Elided blocks (gridpoints):    162812 (  172580372).
MG BCs: Computational effort saved:  99.9794%.
MG BCs: Charge after coarse-graining:           -9.0009757.
MG DL_MG: Calling solver with defect correction order = 8
MG DL_MG: Solver finished
MG Hartree energy from (\int phi*rho dr):              1429.285656
MG Hartree energy from (\int eps (grad phi)^2 dr):     1428.634621
MG Discrepancy due to finite box and discretization:     -0.651035 (  -0.04555%)
MG Correction to account for finite box:                  0.472055
MG Remaining discrepancy, due to discretization:         -0.178980 (  -0.01252%)
      ideal mu1:      -0.792051992300
             Q0:  -11533.944636235363
             G0:      -0.102588350949
   RMS gradient:       0.000049137271
MG BCs: +ve charge blocks (gridpoints):     31092 (   17290950).
MG BCs: -ve charge blocks (gridpoints):      8271 (    1099340).
MG BCs:     Elided blocks (gridpoints):    162811 (  172580335).
MG BCs: Computational effort saved:  99.9794%.
MG BCs: Charge after coarse-graining:           -9.0009756.
MG DL_MG: Calling solver with defect correction order = 8
MG DL_MG: Solver finished
MG Hartree energy from (\int phi*rho dr):              1429.667856
MG Hartree energy from (\int eps (grad phi)^2 dr):     1429.016688
MG Discrepancy due to finite box and discretization:     -0.651168 (  -0.04555%)
MG Correction to account for finite box:                  0.472050
MG Remaining discrepancy, due to discretization:         -0.179118 (  -0.01253%)
     Trial step:       0.465133030294
             Q1:  -11533.969590208144
 Quadratic coef:       0.022763257768
 Linear coef   :      -0.047717230550
           Qmin:  -11533.969642916245
Quadratic minimum step length (  0.487515018040) accepted
    Initial Ne1:    7192.00167682
      Final Ne1:    7192.00000000

=================== Penalty functional idempotency correction ==================
 RMS occupancy error at iteration   1:  0.000064 (step -0.4997 Ne1=   7192.0000)
            Final RMS occupancy error   :  0.000000 (Ne1=   7192.0000)
               Final occupancy bounds   : [ -0.0000,  1.0000]
================================================================================

    5        -1.153394463624E+04     4.9137E-05     4.4444E-05    -9.6919E-02
MG BCs: +ve charge blocks (gridpoints):     31092 (   17290982).
MG BCs: -ve charge blocks (gridpoints):      8271 (    1099334).
MG BCs:     Elided blocks (gridpoints):    162811 (  172580309).
MG BCs: Computational effort saved:  99.9794%.
MG BCs: Charge after coarse-graining:           -9.0009756.
MG DL_MG: Calling solver with defect correction order = 8
MG DL_MG: Solver finished
MG Hartree energy from (\int phi*rho dr):              1429.686290
MG Hartree energy from (\int eps (grad phi)^2 dr):     1429.035115
MG Discrepancy due to finite box and discretization:     -0.651174 (  -0.04555%)
MG Correction to account for finite box:                  0.472050
MG Remaining discrepancy, due to discretization:         -0.179125 (  -0.01253%)
      ideal mu1:      -0.791919934038
             Q0:  -11533.969689304242
             G0:      -0.030388442008
   RMS gradient:       0.000026766116
MG BCs: +ve charge blocks (gridpoints):     31095 (   17290526).
MG BCs: -ve charge blocks (gridpoints):      8271 (    1099571).
MG BCs:     Elided blocks (gridpoints):    162808 (  172580528).
MG BCs: Computational effort saved:  99.9794%.
MG BCs: Charge after coarse-graining:           -9.0009756.
MG DL_MG: Calling solver with defect correction order = 8
MG DL_MG: Solver finished
MG Hartree energy from (\int phi*rho dr):              1429.067787
MG Hartree energy from (\int eps (grad phi)^2 dr):     1428.416631
MG Discrepancy due to finite box and discretization:     -0.651157 (  -0.04557%)
MG Correction to account for finite box:                  0.472039
MG Remaining discrepancy, due to discretization:         -0.179117 (  -0.01253%)
     Trial step:       0.476192542629
             Q1:  -11533.979257231113
 Quadratic coef:       0.004902822595
 Linear coef   :      -0.014470749466
           Qmin:  -11533.980366959106
Quadratic minimum step length (  0.702744475122) accepted
    Initial Ne1:    7192.00104093
      Final Ne1:    7192.00000000

=================== Penalty functional idempotency correction ==================
 RMS occupancy error at iteration   1:  0.000039 (step -0.4998 Ne1=   7192.0000)
            Final RMS occupancy error   :  0.000000 (Ne1=   7192.0000)
               Final occupancy bounds   : [ -0.0000,  1.0000]
================================================================================

    6        -1.153396968930E+04     2.6766E-05     2.4209E-05    -2.5053E-02
MG BCs: +ve charge blocks (gridpoints):     31096 (   17290390).
MG BCs: -ve charge blocks (gridpoints):      8272 (    1099666).
MG BCs:     Elided blocks (gridpoints):    162807 (  172580569).
MG BCs: Computational effort saved:  99.9794%.
MG BCs: Charge after coarse-graining:           -9.0009755.
MG DL_MG: Calling solver with defect correction order = 8
MG DL_MG: Solver finished
MG Hartree energy from (\int phi*rho dr):              1428.772750
MG Hartree energy from (\int eps (grad phi)^2 dr):     1428.121602
MG Discrepancy due to finite box and discretization:     -0.651148 (  -0.04557%)
MG Correction to account for finite box:                  0.472034
MG Remaining discrepancy, due to discretization:         -0.179114 (  -0.01254%)
      ideal mu1:      -0.791641653155
             Q0:  -11533.980375170009
             G0:      -0.016609339637
   RMS gradient:       0.000019812026
MG BCs: +ve charge blocks (gridpoints):     31095 (   17290812).
MG BCs: -ve charge blocks (gridpoints):      8271 (    1099422).
MG BCs:     Elided blocks (gridpoints):    162808 (  172580391).
MG BCs: Computational effort saved:  99.9794%.
MG BCs: Charge after coarse-graining:           -9.0009757.
MG DL_MG: Calling solver with defect correction order = 8
MG DL_MG: Solver finished
MG Hartree energy from (\int phi*rho dr):              1429.397623
MG Hartree energy from (\int eps (grad phi)^2 dr):     1428.746513
MG Discrepancy due to finite box and discretization:     -0.651110 (  -0.04555%)
MG Correction to account for finite box:                  0.472017
MG Remaining discrepancy, due to discretization:         -0.179093 (  -0.01253%)
     Trial step:       0.578482219629
             Q1:  -11533.984700919245
 Quadratic coef:       0.005282458424
 Linear coef   :      -0.009608207660
           Qmin:  -11533.984744236788
Quadratic minimum step length (  0.526097590172) accepted
    Initial Ne1:    7192.00017335
      Final Ne1:    7192.00000000

=================== Penalty functional idempotency correction ==================
 RMS occupancy error at iteration   1:  0.000003 (step -0.5000 Ne1=   7192.0000)
            Final RMS occupancy error   :  0.000000 (Ne1=   7192.0000)
               Final occupancy bounds   : [  0.0000,  1.0000]
================================================================================

    7        -1.153398037517E+04     1.9812E-05     1.7920E-05    -1.0686E-02
MG BCs: +ve charge blocks (gridpoints):     31095 (   17290790).
MG BCs: -ve charge blocks (gridpoints):      8271 (    1099434).
MG BCs:     Elided blocks (gridpoints):    162808 (  172580401).
MG BCs: Computational effort saved:  99.9794%.
MG BCs: Charge after coarse-graining:           -9.0009757.
MG DL_MG: Calling solver with defect correction order = 8
MG DL_MG: Solver finished
MG Hartree energy from (\int phi*rho dr):              1429.340959
MG Hartree energy from (\int eps (grad phi)^2 dr):     1428.689846
MG Discrepancy due to finite box and discretization:     -0.651113 (  -0.04555%)
MG Correction to account for finite box:                  0.472019
MG Remaining discrepancy, due to discretization:         -0.179094 (  -0.01253%)
      ideal mu1:      -0.791934751260
             Q0:  -11533.984744414221
             G0:      -0.010506255191
   RMS gradient:       0.000015758016
MG BCs: +ve charge blocks (gridpoints):     31096 (   17290862).
MG BCs: -ve charge blocks (gridpoints):      8271 (    1099409).
MG BCs:     Elided blocks (gridpoints):    162807 (  172580354).
MG BCs: Computational effort saved:  99.9794%.
MG BCs: Charge after coarse-graining:           -9.0009757.
MG DL_MG: Calling solver with defect correction order = 8
MG DL_MG: Solver finished
MG Hartree energy from (\int phi*rho dr):              1429.408182
MG Hartree energy from (\int eps (grad phi)^2 dr):     1428.757118
MG Discrepancy due to finite box and discretization:     -0.651064 (  -0.04555%)
MG Correction to account for finite box:                  0.471999
MG Remaining discrepancy, due to discretization:         -0.179065 (  -0.01253%)
     Trial step:       0.551668470827
             Q1:  -11533.989141252125
 Quadratic coef:       0.001399131832
 Linear coef   :      -0.005795969736
           Qmin:  -11533.990746933858
Quadratic minimum step length (  1.142656355881) accepted
    Initial Ne1:    7192.00023614
      Final Ne1:    7192.00000000

=================== Penalty functional idempotency correction ==================
 RMS occupancy error at iteration   1:  0.000040 (step -0.4988 Ne1=   7192.0000)
            Final RMS occupancy error   :  0.000000 (Ne1=   7192.0000)
               Final occupancy bounds   : [ -0.0000,  1.0000]
================================================================================

    8        -1.153398474441E+04     1.5758E-05     1.4253E-05    -4.3692E-03
MG BCs: +ve charge blocks (gridpoints):     31093 (   17290953).
MG BCs: -ve charge blocks (gridpoints):      8270 (    1099356).
MG BCs:     Elided blocks (gridpoints):    162810 (  172580316).
MG BCs: Computational effort saved:  99.9794%.
MG BCs: Charge after coarse-graining:           -9.0009757.
MG DL_MG: Calling solver with defect correction order = 8
MG DL_MG: Solver finished
MG Hartree energy from (\int phi*rho dr):              1429.477407
MG Hartree energy from (\int eps (grad phi)^2 dr):     1428.826397
MG Discrepancy due to finite box and discretization:     -0.651010 (  -0.04554%)
MG Correction to account for finite box:                  0.471977
MG Remaining discrepancy, due to discretization:         -0.179033 (  -0.01252%)
      ideal mu1:      -0.791967003057
             Q0:  -11533.990718065761
             G0:      -0.019496426623
   RMS gradient:       0.000021561227
MG BCs: +ve charge blocks (gridpoints):     31094 (   17290816).
MG BCs: -ve charge blocks (gridpoints):      8269 (    1099522).
MG BCs:     Elided blocks (gridpoints):    162809 (  172580287).
MG BCs: Computational effort saved:  99.9794%.
MG BCs: Charge after coarse-graining:           -9.0009757.
MG DL_MG: Calling solver with defect correction order = 8
MG DL_MG: Solver finished
MG Hartree energy from (\int phi*rho dr):              1429.085844
MG Hartree energy from (\int eps (grad phi)^2 dr):     1428.434968
MG Discrepancy due to finite box and discretization:     -0.650876 (  -0.04554%)
MG Correction to account for finite box:                  0.471913
MG Remaining discrepancy, due to discretization:         -0.178962 (  -0.01252%)
     Trial step:       0.793956853065
             Q1:  -11534.001006754814
 Quadratic coef:       0.005190632475
 Linear coef   :      -0.015479321528
           Qmin:  -11534.002258537761
Quadratic minimum step length (  1.183855095373) accepted
    Initial Ne1:    7192.00106820
      Final Ne1:    7192.00000000

=================== Penalty functional idempotency correction ==================
 RMS occupancy error at iteration   1:  0.000365 (step -0.4883 Ne1=   7192.0000)
 RMS occupancy error at iteration   2:  0.000003 (step -0.5000 Ne1=   7192.0000)
            Final RMS occupancy error   :  0.000000 (Ne1=   7192.0000)
               Final occupancy bounds   : [  0.0000,  1.0000]
================================================================================

    9        -1.153399071807E+04     2.1561E-05     1.9502E-05    -5.9737E-03
MG BCs: +ve charge blocks (gridpoints):     31094 (   17290796).
MG BCs: -ve charge blocks (gridpoints):      8267 (    1099549).
MG BCs:     Elided blocks (gridpoints):    162809 (  172580280).
MG BCs: Computational effort saved:  99.9794%.
MG BCs: Charge after coarse-graining:           -9.0009757.
MG DL_MG: Calling solver with defect correction order = 8
MG DL_MG: Solver finished
MG Hartree energy from (\int phi*rho dr):              1428.883734
MG Hartree energy from (\int eps (grad phi)^2 dr):     1428.232933
MG Discrepancy due to finite box and discretization:     -0.650801 (  -0.04555%)
MG Correction to account for finite box:                  0.471876
MG Remaining discrepancy, due to discretization:         -0.178925 (  -0.01252%)
      ideal mu1:      -0.790901596792
   10        -1.153400175325E+04     2.9330E-05     2.6529E-05    -1.1035E-02
Finished density kernel iterations (  10)

Writing density kernel to file "host_34301.vacuum_dkn" ... done


>>> Density kernel optimised for the current NGWF basis:
     ~~~~~~~~~~~~~~~~~~~~~~~~~~~~~~~~~~~~~~~~~~~~~~~~~~~~~~~~~~~
     Total energy                =  -1.15340017532452E+04  Eh
     Estimated bandgap           =  -2.7932E-01  Eh
     RMS occupancy error         =   3.7485E-10
     [H,K] commutator            =   2.6529E-05
     Occupancy bounds            = [  0.000:  1.000]
     ~~~~~~~~~~~~~~~~~~~~~~~~~~~~~~~~~~~~~~~~~~~~~~~~~~~~~~~~~~~




################################################################################
########################### NGWF CG iteration  001 #############################
################################################################################
****** Reciprocal space K.E. preconditioning with k_zero =  3.5000 a0^-1 *******

>>> Checking for convergence of NGWFs:   NOT CONVERGED
  ========================================================================
         NGWF RMS gradient =  1.5819E-03 >  2.0000E-06  | above tolerance
  ========================================================================

>>> Improving NGWFs using line search:
============ Calculation of NGWF S^-1 using Hotelling algorithm ================ 
         Iteration  |  Frobenius norm and Maximum abs value    (of I-S*S_n^-1)   
               1       0.19538123E+00     0.52039290E-02
               2       0.88633595E-03     0.39336552E-04
               3       0.31225629E-07     0.25433156E-08
               4       0.12556223E-12     0.57731597E-14
================================================================================
MG BCs: +ve charge blocks (gridpoints):     30667 (   17235337).
MG BCs: -ve charge blocks (gridpoints):      8276 (    1099563).
MG BCs:     Elided blocks (gridpoints):    163242 (  172635725).
MG BCs: Computational effort saved:  99.9796%.
MG BCs: Charge after coarse-graining:           -9.0009780.
MG DL_MG: Calling solver with defect correction order = 8
MG DL_MG: Solver finished
MG Hartree energy from (\int phi*rho dr):              1397.404427
MG Hartree energy from (\int eps (grad phi)^2 dr):     1396.754430
MG Discrepancy due to finite box and discretization:     -0.649997 (  -0.04651%)
MG Correction to account for finite box:                  0.471823
MG Remaining discrepancy, due to discretization:         -0.178173 (  -0.01275%)
============ Calculation of NGWF S^-1 using Hotelling algorithm ================ 
         Iteration  |  Frobenius norm and Maximum abs value    (of I-S*S_n^-1)   
               1       0.18421516E+01     0.41004550E-01
               2       0.70591864E-01     0.24407513E-02
               3       0.14104391E-03     0.99690661E-05
               4       0.10776756E-08     0.17271340E-09
               5       0.10830009E-12     0.74384943E-14
================================================================================
------------------------------- NGWF line search -------------------------------
RMS gradient                =       0.00158188003776
Trial step length           =               0.122474
Gradient along search dir.  =       -273.27958394496
Functional at step 0        =  -11534.00175324524753
Functional at step 1        =  -11564.92743446433451
Functional predicted        =  -11644.08271228204103
Selected quadratic step     =               0.805629
--------------------------- NGWF line search finished --------------------------
                                               
Writing NGWFs to file "host_34301.vacuum_tightbox_ngwfs"....  done

>>> Optimising kernel for current NGWFs:
   Initial electron number for spin 1:    7226.30187825
     Final electron number for spin 1:    7192.00000000

=================== Penalty functional idempotency correction ==================
 RMS occupancy error at iteration   1:  0.004269 (step -0.4859 Ne1=   7192.0000)
 RMS occupancy error at iteration   2:  0.000072 (step -0.5003 Ne1=   7192.0000)
            Final RMS occupancy error   :  0.000000 (Ne1=   7192.0000)
               Final occupancy bounds   : [  0.0000,  1.0000]
================================================================================

................................................................................
<<<<<<<<<<<<<< LNV (Original version) density kernel optimisation >>>>>>>>>>>>>>
~~~~~~~~~~~~~~~~~~~~~~~~~~~~~~~~~~~~~~~~~~~~~~~~~~~~~~~~~~~~~~~~~~~~~~~~~~~~~~~~
   iter  |      energy (Eh)       | rms gradient |  commutator  |   dE (Eh)
MG BCs: +ve charge blocks (gridpoints):     24837 (   16942131).
MG BCs: -ve charge blocks (gridpoints):      8411 (    1083419).
MG BCs:     Elided blocks (gridpoints):    169077 (  172945075).
MG BCs: Computational effort saved:  99.9826%.
MG BCs: Charge after coarse-graining:           -9.0006587.
MG DL_MG: Calling solver with defect correction order = 8
MG DL_MG: Solver finished
MG Hartree energy from (\int phi*rho dr):              1243.868658
MG Hartree energy from (\int eps (grad phi)^2 dr):     1243.218624
MG Discrepancy due to finite box and discretization:     -0.650034 (  -0.05226%)
MG Correction to account for finite box:                  0.471576
MG Remaining discrepancy, due to discretization:         -0.178457 (  -0.01435%)
      ideal mu1:      -0.729900064939
             Q0:  -11643.284604632296
             G0:      -9.721684191424
   RMS gradient:       0.000479317686
MG BCs: +ve charge blocks (gridpoints):     24938 (   16962470).
MG BCs: -ve charge blocks (gridpoints):      8404 (    1078834).
MG BCs:     Elided blocks (gridpoints):    168976 (  172929321).
MG BCs: Computational effort saved:  99.9825%.
MG BCs: Charge after coarse-graining:           -9.0006530.
MG DL_MG: Calling solver with defect correction order = 8
MG DL_MG: Solver finished
MG Hartree energy from (\int phi*rho dr):              1266.371302
MG Hartree energy from (\int eps (grad phi)^2 dr):     1265.713596
MG Discrepancy due to finite box and discretization:     -0.657706 (  -0.05194%)
MG Correction to account for finite box:                  0.471335
MG Remaining discrepancy, due to discretization:         -0.186371 (  -0.01472%)
     Trial step:       0.969499801963
             Q1:  -11638.959929222940
 Quadratic coef:      13.749846307694
 Linear coef   :      -9.425170898337
           Qmin:  -11644.899783530935
Quadratic minimum step length (  0.332283762121) accepted
    Initial Ne1:    7191.99956446
      Final Ne1:    7192.00000000

=================== Penalty functional idempotency correction ==================
 RMS occupancy error at iteration   1:  0.000357 (step -0.4986 Ne1=   7192.0000)
 RMS occupancy error at iteration   2:  0.000000 (step -0.5000 Ne1=   7192.0000)
            Final RMS occupancy error   :  0.000000 (Ne1=   7192.0000)
               Final occupancy bounds   : [  0.0000,  1.0000]
================================================================================

    1        -1.164328460463E+04     4.7932E-04     4.3353E-04
MG BCs: +ve charge blocks (gridpoints):     24876 (   16949114).
MG BCs: -ve charge blocks (gridpoints):      8409 (    1082047).
MG BCs:     Elided blocks (gridpoints):    169038 (  172939464).
MG BCs: Computational effort saved:  99.9826%.
MG BCs: Charge after coarse-graining:           -9.0006566.
MG DL_MG: Calling solver with defect correction order = 8
MG DL_MG: Solver finished
MG Hartree energy from (\int phi*rho dr):              1250.076741
MG Hartree energy from (\int eps (grad phi)^2 dr):     1249.424231
MG Discrepancy due to finite box and discretization:     -0.652511 (  -0.05220%)
MG Correction to account for finite box:                  0.471458
MG Remaining discrepancy, due to discretization:         -0.181052 (  -0.01448%)
      ideal mu1:      -0.736488702517
             Q0:  -11644.855631103390
             G0:      -0.986434158039
   RMS gradient:       0.000154270673
MG BCs: +ve charge blocks (gridpoints):     24881 (   16948704).
MG BCs: -ve charge blocks (gridpoints):      8413 (    1083109).
MG BCs:     Elided blocks (gridpoints):    169033 (  172938812).
MG BCs: Computational effort saved:  99.9826%.
MG BCs: Charge after coarse-graining:           -9.0006565.
MG DL_MG: Calling solver with defect correction order = 8
MG DL_MG: Solver finished
MG Hartree energy from (\int phi*rho dr):              1251.295874
MG Hartree energy from (\int eps (grad phi)^2 dr):     1250.642962
MG Discrepancy due to finite box and discretization:     -0.652912 (  -0.05218%)
MG Correction to account for finite box:                  0.471457
MG Remaining discrepancy, due to discretization:         -0.181455 (  -0.01450%)
     Trial step:       0.567581748801
             Q1:  -11645.037235905766
 Quadratic coef:       0.378277222120
 Linear coef   :      -0.559882024497
           Qmin:  -11645.062799195350
Quadratic minimum step length (  0.420034302892) accepted
    Initial Ne1:    7191.99994296
      Final Ne1:    7192.00000000

=================== Penalty functional idempotency correction ==================
 RMS occupancy error at iteration   1:  0.000141 (step -0.4994 Ne1=   7192.0000)
            Final RMS occupancy error   :  0.000000 (Ne1=   7192.0000)
               Final occupancy bounds   : [ -0.0000,  1.0000]
================================================================================

    2        -1.164485563110E+04     1.5427E-04     1.3953E-04    -1.5710E+00
MG BCs: +ve charge blocks (gridpoints):     24880 (   16948849).
MG BCs: -ve charge blocks (gridpoints):      8410 (    1082858).
MG BCs:     Elided blocks (gridpoints):    169034 (  172938918).
MG BCs: Computational effort saved:  99.9826%.
MG BCs: Charge after coarse-graining:           -9.0006564.
MG DL_MG: Calling solver with defect correction order = 8
MG DL_MG: Solver finished
MG Hartree energy from (\int phi*rho dr):              1250.977728
MG Hartree energy from (\int eps (grad phi)^2 dr):     1250.324924
MG Discrepancy due to finite box and discretization:     -0.652804 (  -0.05218%)
MG Correction to account for finite box:                  0.471457
MG Remaining discrepancy, due to discretization:         -0.181347 (  -0.01450%)
      ideal mu1:      -0.737358932390
             Q0:  -11645.063310541329
             G0:      -0.144356545366
   RMS gradient:       0.000058338567
MG BCs: +ve charge blocks (gridpoints):     24881 (   16948136).
MG BCs: -ve charge blocks (gridpoints):      8413 (    1083278).
MG BCs:     Elided blocks (gridpoints):    169033 (  172939211).
MG BCs: Computational effort saved:  99.9826%.
MG BCs: Charge after coarse-graining:           -9.0006565.
MG DL_MG: Calling solver with defect correction order = 8
MG DL_MG: Solver finished
MG Hartree energy from (\int phi*rho dr):              1250.479378
MG Hartree energy from (\int eps (grad phi)^2 dr):     1249.826601
MG Discrepancy due to finite box and discretization:     -0.652777 (  -0.05220%)
MG Correction to account for finite box:                  0.471457
MG Remaining discrepancy, due to discretization:         -0.181321 (  -0.01450%)
     Trial step:       0.488266120258
             Q1:  -11645.107968161930
 Quadratic coef:       0.025826789739
 Linear coef   :      -0.070484410340
           Qmin:  -11645.111400646130
Quadratic minimum step length (  0.666268435280) accepted
    Initial Ne1:    7192.00060441
      Final Ne1:    7192.00000000

=================== Penalty functional idempotency correction ==================
 RMS occupancy error at iteration   1:  0.000061 (step -0.4998 Ne1=   7192.0000)
            Final RMS occupancy error   :  0.000000 (Ne1=   7192.0000)
               Final occupancy bounds   : [ -0.0000,  1.0000]
================================================================================

    3        -1.164506331054E+04     5.8339E-05     5.2766E-05    -2.0768E-01
MG BCs: +ve charge blocks (gridpoints):     24878 (   16947868).
MG BCs: -ve charge blocks (gridpoints):      8413 (    1083448).
MG BCs:     Elided blocks (gridpoints):    169036 (  172939309).
MG BCs: Computational effort saved:  99.9826%.
MG BCs: Charge after coarse-graining:           -9.0006565.
MG DL_MG: Calling solver with defect correction order = 8
MG DL_MG: Solver finished
MG Hartree energy from (\int phi*rho dr):              1250.297696
MG Hartree energy from (\int eps (grad phi)^2 dr):     1249.644928
MG Discrepancy due to finite box and discretization:     -0.652768 (  -0.05221%)
MG Correction to account for finite box:                  0.471456
MG Remaining discrepancy, due to discretization:         -0.181311 (  -0.01450%)
      ideal mu1:      -0.736366396471
             Q0:  -11645.111486005131
             G0:      -0.036585152735
   RMS gradient:       0.000029362130
MG BCs: +ve charge blocks (gridpoints):     24877 (   16947730).
MG BCs: -ve charge blocks (gridpoints):      8414 (    1083484).
MG BCs:     Elided blocks (gridpoints):    169037 (  172939411).
MG BCs: Computational effort saved:  99.9826%.
MG BCs: Charge after coarse-graining:           -9.0006565.
MG DL_MG: Calling solver with defect correction order = 8
MG DL_MG: Solver finished
MG Hartree energy from (\int phi*rho dr):              1250.333007
MG Hartree energy from (\int eps (grad phi)^2 dr):     1249.680345
MG Discrepancy due to finite box and discretization:     -0.652662 (  -0.05220%)
MG Correction to account for finite box:                  0.471453
MG Remaining discrepancy, due to discretization:         -0.181209 (  -0.01449%)
     Trial step:       0.570365061995
             Q1:  -11645.120941560832
 Quadratic coef:       0.011411337207
 Linear coef   :      -0.020866892908
           Qmin:  -11645.121025360855
Quadratic minimum step length (  0.521487817372) accepted
    Initial Ne1:    7192.00023578
      Final Ne1:    7192.00000000

=================== Penalty functional idempotency correction ==================
 RMS occupancy error at iteration   1:  0.000020 (step -0.4999 Ne1=   7192.0000)
            Final RMS occupancy error   :  0.000000 (Ne1=   7192.0000)
               Final occupancy bounds   : [ -0.0000,  1.0000]
================================================================================

    4        -1.164511148601E+04     2.9362E-05     2.6557E-05    -4.8175E-02
MG BCs: +ve charge blocks (gridpoints):     24877 (   16947742).
MG BCs: -ve charge blocks (gridpoints):      8414 (    1083477).
MG BCs:     Elided blocks (gridpoints):    169037 (  172939406).
MG BCs: Computational effort saved:  99.9826%.
MG BCs: Charge after coarse-graining:           -9.0006565.
MG DL_MG: Calling solver with defect correction order = 8
MG DL_MG: Solver finished
MG Hartree energy from (\int phi*rho dr):              1250.329842
MG Hartree energy from (\int eps (grad phi)^2 dr):     1249.677171
MG Discrepancy due to finite box and discretization:     -0.652671 (  -0.05220%)
MG Correction to account for finite box:                  0.471453
MG Remaining discrepancy, due to discretization:         -0.181218 (  -0.01449%)
      ideal mu1:      -0.736389006476
             Q0:  -11645.121030965354
             G0:      -0.013508119493
   RMS gradient:       0.000017863194
MG BCs: +ve charge blocks (gridpoints):     24877 (   16948361).
MG BCs: -ve charge blocks (gridpoints):      8414 (    1083245).
MG BCs:     Elided blocks (gridpoints):    169037 (  172939019).
MG BCs: Computational effort saved:  99.9826%.
MG BCs: Charge after coarse-graining:           -9.0006564.
MG DL_MG: Calling solver with defect correction order = 8
MG DL_MG: Solver finished
MG Hartree energy from (\int phi*rho dr):              1250.762156
MG Hartree energy from (\int eps (grad phi)^2 dr):     1250.109530
MG Discrepancy due to finite box and discretization:     -0.652627 (  -0.05218%)
MG Correction to account for finite box:                  0.471444
MG Remaining discrepancy, due to discretization:         -0.181182 (  -0.01449%)
     Trial step:       0.545379162863
             Q1:  -11645.124982408481
 Quadratic coef:       0.003415603775
 Linear coef   :      -0.007367046901
           Qmin:  -11645.125003424078
Quadratic minimum step length (  0.588158659045) accepted
    Initial Ne1:    7192.00011789
      Final Ne1:    7192.00000000

=================== Penalty functional idempotency correction ==================
 RMS occupancy error at iteration   1:  0.000013 (step -0.4999 Ne1=   7192.0000)
            Final RMS occupancy error   :  0.000000 (Ne1=   7192.0000)
               Final occupancy bounds   : [ -0.0000,  1.0000]
================================================================================

    5        -1.164512103097E+04     1.7863E-05     1.6157E-05    -9.5450E-03
MG BCs: +ve charge blocks (gridpoints):     24877 (   16948404).
MG BCs: -ve charge blocks (gridpoints):      8414 (    1083230).
MG BCs:     Elided blocks (gridpoints):    169037 (  172938991).
MG BCs: Computational effort saved:  99.9826%.
MG BCs: Charge after coarse-graining:           -9.0006564.
MG DL_MG: Calling solver with defect correction order = 8
MG DL_MG: Solver finished
MG Hartree energy from (\int phi*rho dr):              1250.796095
MG Hartree energy from (\int eps (grad phi)^2 dr):     1250.143471
MG Discrepancy due to finite box and discretization:     -0.652623 (  -0.05218%)
MG Correction to account for finite box:                  0.471444
MG Remaining discrepancy, due to discretization:         -0.181180 (  -0.01449%)
      ideal mu1:      -0.736769732901
             Q0:  -11645.125004880712
             G0:      -0.005183585120
   RMS gradient:       0.000011066602
MG BCs: +ve charge blocks (gridpoints):     24878 (   16948396).
MG BCs: -ve charge blocks (gridpoints):      8414 (    1083261).
MG BCs:     Elided blocks (gridpoints):    169036 (  172938968).
MG BCs: Computational effort saved:  99.9826%.
MG BCs: Charge after coarse-graining:           -9.0006564.
MG DL_MG: Calling solver with defect correction order = 8
MG DL_MG: Solver finished
MG Hartree energy from (\int phi*rho dr):              1250.747596
MG Hartree energy from (\int eps (grad phi)^2 dr):     1250.094987
MG Discrepancy due to finite box and discretization:     -0.652609 (  -0.05218%)
MG Correction to account for finite box:                  0.471434
MG Remaining discrepancy, due to discretization:         -0.181175 (  -0.01449%)
     Trial step:       0.566365144673
             Q1:  -11645.126941058552
 Quadratic coef:       0.000999624097
 Linear coef   :      -0.002935801937
           Qmin:  -11645.127160424241
Quadratic minimum step length (  0.831680575556) accepted
    Initial Ne1:    7192.00009886
      Final Ne1:    7192.00000000

=================== Penalty functional idempotency correction ==================
 RMS occupancy error at iteration   1:  0.000015 (step -0.4997 Ne1=   7192.0000)
            Final RMS occupancy error   :  0.000000 (Ne1=   7192.0000)
               Final occupancy bounds   : [ -0.0000,  1.0000]
================================================================================

    6        -1.164512500488E+04     1.1067E-05     1.0009E-05    -3.9739E-03
MG BCs: +ve charge blocks (gridpoints):     24878 (   16948375).
MG BCs: -ve charge blocks (gridpoints):      8414 (    1083288).
MG BCs:     Elided blocks (gridpoints):    169036 (  172938962).
MG BCs: Computational effort saved:  99.9826%.
MG BCs: Charge after coarse-graining:           -9.0006564.
MG DL_MG: Calling solver with defect correction order = 8
MG DL_MG: Solver finished
MG Hartree energy from (\int phi*rho dr):              1250.724693
MG Hartree energy from (\int eps (grad phi)^2 dr):     1250.072091
MG Discrepancy due to finite box and discretization:     -0.652602 (  -0.05218%)
MG Correction to account for finite box:                  0.471429
MG Remaining discrepancy, due to discretization:         -0.181173 (  -0.01449%)
      ideal mu1:      -0.736619306763
             Q0:  -11645.127159364871
             G0:      -0.004026800880
   RMS gradient:       0.000009755124
MG BCs: +ve charge blocks (gridpoints):     24877 (   16948038).
MG BCs: -ve charge blocks (gridpoints):      8415 (    1083356).
MG BCs:     Elided blocks (gridpoints):    169037 (  172939231).
MG BCs: Computational effort saved:  99.9826%.
MG BCs: Charge after coarse-graining:           -9.0006565.
MG DL_MG: Calling solver with defect correction order = 8
MG DL_MG: Solver finished
MG Hartree energy from (\int phi*rho dr):              1250.581283
MG Hartree energy from (\int eps (grad phi)^2 dr):     1249.928666
MG Discrepancy due to finite box and discretization:     -0.652617 (  -0.05219%)
MG Correction to account for finite box:                  0.471432
MG Remaining discrepancy, due to discretization:         -0.181185 (  -0.01449%)
     Trial step:       0.686319815754
             Q1:  -11645.127956954530
 Quadratic coef:       0.001966083579
 Linear coef   :      -0.002763673238
           Qmin:  -11645.128130571009
Quadratic minimum step length (  0.482371077219) accepted
    Initial Ne1:    7192.00007272
      Final Ne1:    7192.00000000

=================== Penalty functional idempotency correction ==================
 RMS occupancy error at iteration   1:  0.000001 (step -0.5000 Ne1=   7192.0000)
            Final RMS occupancy error   :  0.000000 (Ne1=   7192.0000)
               Final occupancy bounds   : [  0.0000,  1.0000]
================================================================================

    7        -1.164512715936E+04     9.7551E-06     8.8233E-06    -2.1545E-03
MG BCs: +ve charge blocks (gridpoints):     24878 (   16948148).
MG BCs: -ve charge blocks (gridpoints):      8415 (    1083326).
MG BCs:     Elided blocks (gridpoints):    169036 (  172939151).
MG BCs: Computational effort saved:  99.9826%.
MG BCs: Charge after coarse-graining:           -9.0006564.
MG DL_MG: Calling solver with defect correction order = 8
MG DL_MG: Solver finished
MG Hartree energy from (\int phi*rho dr):              1250.623781
MG Hartree energy from (\int eps (grad phi)^2 dr):     1249.971169
MG Discrepancy due to finite box and discretization:     -0.652613 (  -0.05218%)
MG Correction to account for finite box:                  0.471431
MG Remaining discrepancy, due to discretization:         -0.181181 (  -0.01449%)
      ideal mu1:      -0.736490139518
             Q0:  -11645.128130560275
             G0:      -0.002494495309
   RMS gradient:       0.000007677903
MG BCs: +ve charge blocks (gridpoints):     24877 (   16948076).
MG BCs: -ve charge blocks (gridpoints):      8415 (    1083359).
MG BCs:     Elided blocks (gridpoints):    169037 (  172939190).
MG BCs: Computational effort saved:  99.9826%.
MG BCs: Charge after coarse-graining:           -9.0006565.
MG DL_MG: Calling solver with defect correction order = 8
MG DL_MG: Solver finished
MG Hartree energy from (\int phi*rho dr):              1250.565335
MG Hartree energy from (\int eps (grad phi)^2 dr):     1249.912717
MG Discrepancy due to finite box and discretization:     -0.652619 (  -0.05219%)
MG Correction to account for finite box:                  0.471427
MG Remaining discrepancy, due to discretization:         -0.181192 (  -0.01449%)
     Trial step:       0.575378856791
             Q1:  -11645.129240887240
 Quadratic coef:       0.000324952895
 Linear coef   :      -0.001435279859
           Qmin:  -11645.129715427120
Quadratic minimum step length (  1.270691381165) accepted
    Initial Ne1:    7192.00011847
      Final Ne1:    7192.00000000

=================== Penalty functional idempotency correction ==================
 RMS occupancy error at iteration   1:  0.000017 (step -0.4994 Ne1=   7192.0000)
            Final RMS occupancy error   :  0.000000 (Ne1=   7192.0000)
               Final occupancy bounds   : [ -0.0000,  1.0000]
================================================================================

    8        -1.164512813056E+04     7.6779E-06     6.9445E-06    -9.7120E-04
MG BCs: +ve charge blocks (gridpoints):     24877 (   16947998).
MG BCs: -ve charge blocks (gridpoints):      8414 (    1083398).
MG BCs:     Elided blocks (gridpoints):    169037 (  172939229).
MG BCs: Computational effort saved:  99.9826%.
[...]
MG Hartree energy from (\int phi*rho dr):              1208.866408
MG Hartree energy from (\int eps (grad phi)^2 dr):     1208.679948
MG Discrepancy due to finite box and discretization:     -0.186460 (  -0.01542%)
MG Correction to account for finite box:                  0.006479
MG Remaining discrepancy, due to discretization:         -0.179982 (  -0.01489%)
             Q2:  -11679.105127614108
  Cubic LS coeff:       0.976615287066
Predicted energy:  -11679.105127614301
Cubic minimum step length accepted
    Initial Ne1:    7192.00000000
      Final Ne1:    7192.00000000

=================== Penalty functional idempotency correction ==================
 RMS occupancy error at iteration   1:  0.000000 (step -0.5000 Ne1=   7192.0000)
            Final RMS occupancy error   :  0.000000 (Ne1=   7192.0000)
               Final occupancy bounds   : [  0.0000,  1.0000]
================================================================================

    7        -1.167910512761E+04     1.0652E-08     9.6346E-09    -3.7253E-09

Reusing previously generated solute cavity.
MG BCs: +ve charge blocks (gridpoints):     29036 (   19133151).
MG BCs: -ve charge blocks (gridpoints):      8408 (    1052188).
MG BCs:     Elided blocks (gridpoints):    164878 (  170785286).
MG BCs: Computational effort saved:  99.9804%.
MG BCs: Charge after coarse-graining:           -9.0009496.
MG DL_MG: Calling solver with defect correction order = 8
MG DL_MG: Solver finished
MG Hartree energy from (\int phi*rho dr):              1208.866403
MG Hartree energy from (\int eps (grad phi)^2 dr):     1208.679942
MG Discrepancy due to finite box and discretization:     -0.186460 (  -0.01542%)
MG Correction to account for finite box:                  0.006479
MG Remaining discrepancy, due to discretization:         -0.179982 (  -0.01489%)
      ideal mu1:      -0.481323752518
             Q0:  -11679.105127614108
             G0:      -0.000000005330
   RMS gradient:       0.000000013751

Reusing previously generated solute cavity.
MG BCs: +ve charge blocks (gridpoints):     29036 (   19133150).
MG BCs: -ve charge blocks (gridpoints):      8408 (    1052188).
MG BCs:     Elided blocks (gridpoints):    164878 (  170785287).
MG BCs: Computational effort saved:  99.9804%.
MG BCs: Charge after coarse-graining:           -9.0009496.
MG DL_MG: Calling solver with defect correction order = 8
MG DL_MG: Solver finished
MG Hartree energy from (\int phi*rho dr):              1208.866379
MG Hartree energy from (\int eps (grad phi)^2 dr):     1208.679919
MG Discrepancy due to finite box and discretization:     -0.186460 (  -0.01542%)
MG Correction to account for finite box:                  0.006479
MG Remaining discrepancy, due to discretization:         -0.179982 (  -0.01489%)
     Trial step:       0.740835940520
             Q1:  -11679.105127616203
 Quadratic coef:       0.000000001854
 Linear coef   :      -0.000000003949
           Qmin:  -11679.105127616211
Quadratic minimum step length (  0.789145316673) accepted
    Initial Ne1:    7192.00000000
      Final Ne1:    7192.00000000

=================== Penalty functional idempotency correction ==================
 RMS occupancy error at iteration   1:  0.000000 (step -0.5000 Ne1=   7192.0000)
            Final RMS occupancy error   :  0.000000 (Ne1=   7192.0000)
               Final occupancy bounds   : [  0.0000,  1.0000]
================================================================================

    8        -1.167910512761E+04     1.3751E-08     1.2438E-08    -3.9581E-09

Reusing previously generated solute cavity.
MG BCs: +ve charge blocks (gridpoints):     29036 (   19133150).
MG BCs: -ve charge blocks (gridpoints):      8408 (    1052188).
MG BCs:     Elided blocks (gridpoints):    164878 (  170785287).
MG BCs: Computational effort saved:  99.9804%.
MG BCs: Charge after coarse-graining:           -9.0009496.
MG DL_MG: Calling solver with defect correction order = 8
MG DL_MG: Solver finished
MG Hartree energy from (\int phi*rho dr):              1208.866377
MG Hartree energy from (\int eps (grad phi)^2 dr):     1208.679917
MG Discrepancy due to finite box and discretization:     -0.186460 (  -0.01542%)
MG Correction to account for finite box:                  0.006479
MG Remaining discrepancy, due to discretization:         -0.179982 (  -0.01489%)
      ideal mu1:      -0.481323711684
             Q0:  -11679.105127616203
             G0:      -0.000000006081
   RMS gradient:       0.000000011550

Reusing previously generated solute cavity.
MG BCs: +ve charge blocks (gridpoints):     29036 (   19133150).
MG BCs: -ve charge blocks (gridpoints):      8408 (    1052188).
MG BCs:     Elided blocks (gridpoints):    164878 (  170785287).
MG BCs: Computational effort saved:  99.9804%.
MG BCs: Charge after coarse-graining:           -9.0009496.
MG DL_MG: Calling solver with defect correction order = 8
MG DL_MG: Solver finished
MG Hartree energy from (\int phi*rho dr):              1208.866318
MG Hartree energy from (\int eps (grad phi)^2 dr):     1208.679858
MG Discrepancy due to finite box and discretization:     -0.186460 (  -0.01542%)
MG Correction to account for finite box:                  0.006479
MG Remaining discrepancy, due to discretization:         -0.179982 (  -0.01489%)
     Trial step:       0.764609189641
             Q1:  -11679.105127615505
 Quadratic coef:       0.000000005348
 Linear coef   :      -0.000000004650
           Qmin:  -11679.105127617215
Quadratic minimum step length (  0.332407249815) accepted
    Initial Ne1:    7192.00000000
      Final Ne1:    7192.00000000

=================== Penalty functional idempotency correction ==================
 RMS occupancy error at iteration   1:  0.000000 (step -0.5000 Ne1=   7192.0000)
            Final RMS occupancy error   :  0.000000 (Ne1=   7192.0000)
               Final occupancy bounds   : [  0.0000,  1.0000]
================================================================================

    9        -1.167910512762E+04     1.1550E-08     1.0447E-08    -2.0955E-09

Reusing previously generated solute cavity.
MG BCs: +ve charge blocks (gridpoints):     29036 (   19133150).
MG BCs: -ve charge blocks (gridpoints):      8408 (    1052188).
MG BCs:     Elided blocks (gridpoints):    164878 (  170785287).
MG BCs: Computational effort saved:  99.9804%.
MG BCs: Charge after coarse-graining:           -9.0009496.
MG DL_MG: Calling solver with defect correction order = 8
MG DL_MG: Solver finished
MG Hartree energy from (\int phi*rho dr):              1208.866352
MG Hartree energy from (\int eps (grad phi)^2 dr):     1208.679891
MG Discrepancy due to finite box and discretization:     -0.186460 (  -0.01542%)
MG Correction to account for finite box:                  0.006479
MG Remaining discrepancy, due to discretization:         -0.179982 (  -0.01489%)
      ideal mu1:      -0.481323687132
   10        -1.167910512762E+04     6.7884E-09     6.1399E-09    -6.9849E-10
Finished density kernel iterations (  10)

Writing density kernel to file "host_34301.dkn" ... done


>>> Density kernel optimised for the current NGWF basis:
     ~~~~~~~~~~~~~~~~~~~~~~~~~~~~~~~~~~~~~~~~~~~~~~~~~~~~~~~~~~~
     Total energy                =  -1.16791051276169E+04  Eh
     Estimated bandgap           =   9.1553E-02  Eh
     RMS occupancy error         =   3.8633E-16
     [H,K] commutator            =   6.1399E-09
     Occupancy bounds            = [  0.000:  1.000]
     ~~~~~~~~~~~~~~~~~~~~~~~~~~~~~~~~~~~~~~~~~~~~~~~~~~~~~~~~~~~




################################################################################
########################### NGWF CG iteration  004 #############################
################################################################################
****** Reciprocal space K.E. preconditioning with k_zero =  3.5000 a0^-1 *******

>>> Checking for convergence of NGWFs: 
           ........................................................
           |         *** NGWF optimisation converged ***          |
           | RMS NGWF gradient =    0.00000198457842              |
           | Criteria satisfied:                                  |
           | -> RMS NGWF gradient lower than set threshold.       |
           ========================================================

Reusing previously generated solute cavity.
MG BCs: +ve charge blocks (gridpoints):     29036 (   19133150).
MG BCs: -ve charge blocks (gridpoints):      8408 (    1052188).
MG BCs:     Elided blocks (gridpoints):    164878 (  170785287).
MG BCs: Computational effort saved:  99.9804%.
MG BCs: Charge after coarse-graining:           -9.0009496.
MG DL_MG: Calling solver with defect correction order = 8
MG DL_MG: Solver finished
MG Hartree energy from (\int phi*rho dr):              1208.866352
MG Hartree energy from (\int eps (grad phi)^2 dr):     1208.679891
MG Discrepancy due to finite box and discretization:     -0.186460 (  -0.01542%)
MG Correction to account for finite box:                  0.006479
MG Remaining discrepancy, due to discretization:         -0.179982 (  -0.01489%)

================================================================================
           ---------------- ENERGY COMPONENTS (Eh) ----------------
           | Kinetic                    :     8528.75613243312000 |
           | Pseudo. (local,OBC,corr'd) :    -5050.76688542204465 |
           | Pseudopotential (non-local):     1403.21536340162243 |
           | Hartree (molecular)        :     1208.86635173418767 |
           | Exchange-correlation       :    -3357.36836498658158 |
           | Ion-ion (open BC)          :   824902.63080372626428 |
           | Dispersion Correction      :       -3.25399095775389 |
           | Smeared ion non-self corr. :  -824854.66758004040457 |
           | Smeared ion self corr.     :   -14457.16956389741972 |
           | Solvent cavitation energy  :        2.32182297305841 |
           | Solute-solvent dis-rep en. :       -1.66921658090602 |
           | Total                      :   -11679.10512761691825 |
           --------------------------------------------------------
           ------ LOCAL ENERGY COMPONENTS FROM MATRIX TRACES ------
           | Pseudopotential (local)    :    -5050.76688542204556 |
           | Hartree                    :    -1990.94612268981655 |
           --------------------------------------------------------
           Integrated density           :     7191.99999999900501
           Integrated density tr(KS)    :     7192.00000000000000
================================================================================


                        <<<<< CALCULATION SUMMARY >>>>>                         
|ITER|    RMS GRADIENT   |     TOTAL ENERGY    |   step   |     Epredicted              
   0     0.00004119270252 -11679.03739892051090   0.633008 -11679.09605053327505        
   1     0.00000958217488 -11679.10463110613637   0.082040 -11679.10504242917523        
   2     0.00000433642581 -11679.10510907822754   0.015807 -11679.10512530914093        
   3     0.00000198457842 -11679.10512761690188  <-- CG                                 

=================== Finished the calculation in solvent ========================
= Adjusting the following parameters: 
= read_denskern: F
= read_tightbox_ngwfs: F
= maxit_pen: 0 (restored to user-specified value)
= restart read filename prefix: ""
= restart write filename prefix: ""
================================================================================

================================================================================
IS: Calculation in solvent completed (NGWFs converged).      

Individual components of total energy in solvent:     hartree           kcal/mol
- Usual non-electrostatic DFT terms:    -12888.62408574324400    -8087733.545978
- Electrostatic fixed charge energy:      1208.86635173418767      758575.072132
- Apolar cavitation energy:                  2.32182297305841        1456.965881
- Apolar dispersion-repulsion energy:       -1.66921658090602       -1047.449196
 -------------------------------------------------------------------------------
- Total energy in solvent:              -11679.10512761690188    -7328748.957161

Components of total energy in solvent:                hartree           kcal/mol
- Usual non-electrostatic DFT terms:    -12888.62408574324400    -8087733.545978
- Electrostatic energy:                   1208.86635173418767      758575.072132
- Apolar energy terms:                       0.65260639215239         409.516685
 -------------------------------------------------------------------------------
- Total energy in solvent:              -11679.10512761690188    -7328748.957161

Calculation of free energy of solvation:              hartree           kcal/mol
- Total energy in solvent:         (+)  -11679.10512761690188    -7328748.957161
- Total energy in vacuum:          (-)  -11675.26495741680264    -7326339.214030
 -------------------------------------------------------------------------------
- Total free energy of solvation:           -3.84017020009924       -2409.743130

Components of polar term in f.e. of solvation:        hartree           kcal/mol
- Electrostatic:                            -4.58902396517465       -2879.655952
- Change in nonelectrostatic DFT terms:      0.09624737292143          60.396137
 -------------------------------------------------------------------------------
- Polar term in f.e. of solvation:          -4.49277659225322       -2819.259815

Components of free energy of solvation:               hartree           kcal/mol
- Polar term in f.e. of solvation: (+)      -4.49277659225322       -2819.259815
- Apolar (cavitation, dis., rep.): (+)       0.65260639215239         409.516685
 -------------------------------------------------------------------------------
- Total free energy of solvation:           -3.84017020010083       -2409.743130
================================================================================


------------------------------ TIMING INFORMATION ------------------------------
AVERAGE TIME:   31716.739s on     60 node(s)                                    
TOTAL TIME:     31716.739s on     60 node(s)                                    
================= AVERAGE TIMINGS FROM ALL NODES (CUMULATIVE) ==================
|| TAG                                    #calls    cpu time   %total  Gflops ||
|| work_imbalance                       :     1        0.00s   0.000%  ------ ||
|| sparse_set_to_garbage                :   182        0.03s   0.000%  ------ ||
|| parallel_prepare_fd_halos_request    :  1953        0.03s   0.000%  ------ ||
|| ngwfs_initialise_from_radial         :     1        0.10s   0.000%  ------ ||
|| basis_extract_function_from_box      :  3577        0.16s   0.001%  ------ ||
|| parallel_prepare_fd_halos_satisfy    :  1953        0.69s   0.002%  ------ ||
|| parallel_prepare_fd_halos_alloc      :  1953        1.73s   0.005%  ------ ||
|| pseudopotentials_nonlocal_mat        :    31        2.49s   0.008%  ------ ||
|| openbc_locps_radial                  :     1        4.73s   0.015%  ------ ||
|| restart_kernel_read                  :     1        6.97s   0.022%  ------ ||
|| restart_ngwfs_tightbox_input         :     1        9.47s   0.030%  ------ ||
|| parallel_prepare_fd_halos_comms_imbal:  1953        9.49s   0.030%  ------ ||
|| density_init_guess_real              :     1       14.56s   0.046%  ------ ||
|| parallel_prepare_fd_halos_clear      :  1953       20.07s   0.063%  ------ ||
|| sparse_init                          :     2       22.50s   0.071%  ------ ||
|| parallel_prepare_fd_halos_comms_wait :  1953       27.70s   0.087%  ------ ||
|| projectors_func_ovlp_box             :    31       27.94s   0.088%  ------ ||
|| function_ops_brappd_ketppd           :    31       30.30s   0.096%  ------ ||
|| projectors_init_fftbox_recip         :   143       34.69s   0.109%  ------ ||
|| palser_mano_kernel_optimise          :     1       37.69s   0.119%  ------ ||
|| basis_copy_function_to_box           : 58328       44.60s   0.141%  ------ ||
|| ngwf_gradient_coeffs                 :    16       52.06s   0.164%  ------ ||
|| fourier_apply_box_pair               :  5156       53.74s   0.169% 591.683 ||
|| parallel_prepare_fd_halos            :  1953       59.73s   0.188%  ------ ||
|| pseudo_make_structure_factor         :     2       62.74s   0.198%  ------ ||
|| restart_kernel_write                 :    17       73.72s   0.232%  ------ ||
|| sparse_embed_hotelling_invert_embed  :    31       84.19s   0.265%  ------ ||
|| finite_difference_derivative         :  1953      142.79s   0.450%  ------ ||
|| integrals_kinetic                    :    31      154.14s   0.486%  ------ ||
|| projectors_gradient_batch            :   112      156.93s   0.495%  ------ ||
|| basis_dot_function_with_box          : 8.842M     178.38s   0.562%  ------ ||
|| fourier_apply_cell_backward          :  1303      182.20s   0.574%  96.040 ||
|| sparse_trace                         :  5200      211.31s   0.666%  ------ ||
|| fourier_apply_cell_forward           :  1301      243.68s   0.768%  71.697 ||
|| openbc_locps_on_grid                 :     2      260.67s   0.822%  ------ ||
|| kernel_purify                        :   496      310.38s   0.979%  ------ ||
|| basis_add_function_to_box            : 18.42M     429.93s   1.356%  ------ ||
|| lnv_gradient_norm                    :   160      468.79s   1.478%  ------ ||
|| hamiltonian_energy_components        :     4      490.05s   1.545%  ------ ||
|| xc_energy_potential                  :   325      490.81s   1.547%  ------ ||
|| kernel_fix                           :   160      529.59s   1.670%  ------ ||
|| integrals_locpot_mat_els_batch       :  1183      779.70s   2.458%  ------ ||
|| ngwf_gradient_build_batch            :   112      796.51s   2.511%  ------ ||
|| density_batch_row_sums               :  2268     1094.38s   3.450%  ------ ||
|| ngwf_gradient_batch                  :   112     1112.66s   3.508%  ------ ||
|| restart_ngwfs_tightbox_output        :    14     1145.02s   3.610%  ------ ||
|| ngwf_gradient_lnv                    :    16     1274.13s   4.017%  ------ ||
|| cell_grid_deposit_box_real           : 37312     1351.68s   4.262%  ------ ||
|| cell_grid_extract_box_real           : 40809     1555.43s   4.904%  ------ ||
|| sparse_product                       :  6601     1915.29s   6.039%  ------ ||
|| density_fftbox_deposit_to_cell       : 35316     1948.67s   6.144%  ------ ||
|| potential_apply_to_ngwf_batch        :  1183     3724.87s  11.744%  ------ ||
|| density_fftbox_interpolate_multiply  : 35316     3935.24s  12.407%  ------ ||
|| integrals_locpot_dbl_grid            :   169     4528.23s  14.277%  ------ ||
|| multigrid_prepare_bound_cond         :   325     4535.94s  14.301%  ------ ||
|| fourier_apply_box                    : 121.6k    4806.48s  15.154% 755.585 ||
|| density_batch_interp_deposit         :  2268     6804.52s  21.454%  ------ ||
|| dl_mg_solver_calls                   :   325     7436.29s  23.446%  ------ ||
|| density_on_dbl_grid                  :   324     8347.22s  26.318%  ------ ||
|| multigrid_calculate_hartree          :   325    12173.28s  38.381%  ------ ||
|| hamiltonian_lhxc_calculate           :   320    20985.28s  66.165%  ------ ||
|| lnv_denskernel_optimise_cg           :    16    26402.75s  83.245%  ------ ||
|| ngwf_cg_optimise                     :     2    30720.35s  96.858%  ------ ||
|| total_time                           :     1    31716.74s 100.000%  ------ ||
================================================================================
Overhead of generating timer report: 
- 0 ms averaging over threads,
- 15 ms ensuring consistency across MPI ranks,
- 1 ms printing in order.

Job completed: 26-04-2020 15:41 (+0100)

Application 40370503 resources: utime ~6617046s, stime ~229279s, Rss ~3819784, inblocks ~342970798, outblocks ~67322623
