 +---------------------------------------------------------------+
 |                                                               |
 |        ####### #     # ####### ####### ####### ######         |
 |        #     # ##    # #          #    #       #     #        |
 |        #     # # #   # #          #    #       #     #        |
 |        #     # #  #  # #####      #    #####   ######         |
 |        #     # #   # # #          #    #       #              |
 |        #     # #    ## #          #    #       #              |
 |        ####### #     # #######    #    ####### #              |
 |                                                               |
 |        Linear-Scaling Ab Initio Total Energy Program          |
 |                                                               |
 |          Release for academic collaborators of ODG            |
 |                                             Version 5.3.2.6.  |
 |                                                               |
 +---------------------------------------------------------------+
 |                                                               |
 |  Authors:                                                     |
 |  Jacek Dziedzic, Peter D. Haynes, Nicholas D. M. Hine,        |
 |  Arash. A. Mostofi, Mike C. Payne and Chris-Kriton Skylaris   |
 |                                                               |
 |  Contributors:                                                |
 |  J. Aarons, L. Andrinopoulos, P. W. Avraam, R. A. Bell,       |
 |  A. Bhandari, G. A. Bramley, R. J. Charlton, S. J. Clark,     |
 |  R. J. Clements, G. C. Constantinescu, F. Corsetti,           |
 |  N. Corsini, O. Dieguez, S. M. M. Dubois, K. K. B. Duff,      |
 |  J. M. Escartin, A. Greco, H. Helal, Q. O. Hill, L. P. Lee,   |
 |  J.-H. Li, E. B. Linscott, G. Moynihan, D. D. O`Regan,        |
 |  O. K. Okan, M. J. S. Phipps, C. J. Pickard,                  |
 |  J. C. A. Prentice, M. I. J. Probert, L. E. Ratcliff,         |
 |  M. Robinson, A. Ruiz Serrano, J. S. Spencer, E. W. Tait,     |
 |  G. Teobaldi, D. Turban, V. Vitale, K. A. Wilkinson,          |
 |  C. Weber, J. C. Womack, N. Yeung and T. J. Zuehlsdorff       |
 |                                                               |
 |                                   Copyright (c) 2004-2019     |
 |                                                               |
 |  Please cite:                                                 |
 |  "Introducing ONETEP: Linear-scaling density functional       |
 |   simulations on parallel computers".                         |
 |   C.-K. Skylaris, P. D. Haynes, A. A. Mostofi, M. C. Payne.   |
 |   J. Chem. Phys. 122 084119 (2005).                           |
 |                                                               |
 |          in all publications arising from your use of ONETEP. |
 |                                                               |
 +---------------------------------------------------------------+
 |                                                               |
 |   ONETEP is based on developments described in the following  |
 |   publications:                                               |
 |                                                               |
 |  "Nonorthogonal generalized Wannier function pseudopotential  |
 |   plane-wave method".                                         |
 |   C.-K. Skylaris, A. A. Mostofi, P. D. Haynes, O. Dieguez,    |
 |   M. C. Payne.                                                |
 |   Phys. Rev. B 66 035119 (2002).                              |
 |                                                               |
 |  "Preconditioned iterative minimization for linear-scaling    |
 |   electronic structure calculations".                         |
 |   A. A. Mostofi, P. D. Haynes, C.-K. Skylaris, M. C. Payne.   |
 |   J. Chem. Phys. 119(17), pp.8842-8848 (2003).                |
 |                                                               |
 |  "Total-energy calculations on a real space grid with         |
 |   localized functions and a plane-wave basis".                |
 |   A. A. Mostofi, C.-K. Skylaris, P. D. Haynes, M. C. Payne.   |
 |   Comput. Phys. Commun. 147, pp.788-802 (2002).               |
 |                                                               |
 |  "Accurate kinetic energy evaluation in electronic structure  |
 |   calculations with localized functions on real space grids"  |
 |   C.-K. Skylaris, A. A. Mostofi, P. D. Haynes, C. J. Pickard, |
 |   M. C. Payne.                                                |
 |   Comput. Phys. Commun. 140, pp.315-322 (2001).               |
 |                                                               |
 |  "Accurate ionic forces and geometry optimization in linear-  |
 |   scaling density-functional theory with local orbitals"      |
 |   N. D. M. Hine, M. Robinson, P. D. Haynes, C.-K. Skylaris,   |
 |   M. C. Payne, and A. A. Mostofi.                             |
 |   Phys. Rev. B 83 195102 (2011).                              |
 |                                                               |
 +---------------------------------------------------------------+

Job started: 25-04-2020 08:21 (+0100)
 
Reading parameters from file "host_22141.dat" ...... done

If your calculation crashes here, before "Checking processes and threads..."
is displayed, then your stack size is insufficient.
If so, use "ulimit -s unlimited" at runtime.
You can disable this check with "check_stack_size F".

Checking processes and threads...
   Determining the default number of threads...
      No default threads set at compilation time: defaulting to 1.
      OpenMP library call suggests 4 threads.
      Hybrid MPI-OpenMP compilation detected.
      Number of MPI processes > 1.
      OMP_NUM_THREADS environment variable present and
      its value matches the one obtained from the OpenMP library call.
      Using this value as default.
      Default threads: 4
      Default applies to threads_max and threads_num_fftboxes.
      Settings in the input file override this default.
   ... done

   Running with 60 MPI processes.
   There are 6 MPI processes running on the same node as the root process.
   Each MPI process is using: 
               1 threads for simulation cell FFTs.
               1 threads for parallel FFT box operations.
               4 threads for loops over batched FFT box operations.
               4 threads in other parallel regions.
... done

Basic input checks...... done

Reading geometry and species blocks from file "host_22141.dat" ...
  <species_atomic_set> block not found: NGWF initialisation set to SOLVE
IS: Dielectric excluded regions:
    - NONE.
    
  Number of PPD points along a3 set to 1.  This is 
  the default value, it may have been provided also in the input file.
... done
 Writing xyz coordinates to file "host_22141.xyz" ... done


--------------------------------------------------------------------------------
---------------------------------- INPUT FILE ----------------------------------
--------------------------------------------------------------------------------

cutoff_energy       : 800 eV                                                    
xc_functional PBE                                                               
task SINGLEPOINT                                                                
write_xyz true                                                                  
output_detail VERBOSE                                                           
ngwf_threshold_orig : 0.000002                                                  
kernel_cutoff       : 1000                                                      
k_zero              : 3.5                                                       
elec_cg_max 0                                                                   
occ_mix 1.0                                                                     
dispersion 1                                                                    
maxit_ngwf_cg 40                                                                
minit_lnv 10                                                                    
maxit_lnv 10                                                                    
write_denskern T                                                                
write_tightbox_ngwfs T                                                          
charge 9                                                                        
is_implicit_solvent T                                                           
is_auto_solvation T                                                             
is_include_apolar T                                                             
is_smeared_ion_rep T                                                            
is_solvent_surf_tension 4.7624E-5 Ha/bohr**2                                    
is_apolar_scaling_factor 0.281075                                               
is_solvation_beta 1.3                                                           
is_density_threshold 0.00035                                                    
is_bulk_permittivity 78.54                                                      
is_dielectric_model fix_initial                                                 
is_smeared_ion_width 0.8                                                        
mg_defco_fd_order 8                                                             
is_bc_coarseness 10                                                             
is_bc_surface_coarseness 1                                                      
fine_grid_scale 2.0                                                             
%block species                                                                  
N   N   7 4 8.0                                                                 
H   H   1 1 8.0                                                                 
C   C   6 4 8.0                                                                 
S   S  16 9 8.0                                                                 
O   O   8 4 8.0                                                                 
%endblock species                                                               
%block species_pot                                                              
N   N_00.recpot                                                                 
H   H_04.recpot                                                                 
C   C_01.recpot                                                                 
S   S_00.recpot                                                                 
O   O_02.recpot                                                                 
%endblock species_pot                                                           
%block lattice_cart                                                             
135.996   0.000   0.000                                                         
0.000 142.663   0.000                                                           
0.000   0.000   160.158                                                         
%endblock lattice_cart                                                          
%block positions_abs                                                            
     Hash =   000001104921900024798672
%endblock positions_abs                                                         

--------------------------------------------------------------------------------
-------------------------------- END INPUT FILE --------------------------------
--------------------------------------------------------------------------------


 
 ESDF WARNING(1): "kernelcutoff" (esdf_physical) has no units. Assume "bohr".
 ESDF WARNING(2): "kzero" (esdf_physical) has no units. Assume "1/bohr".
 ESDF WARNING(3
 ): "issmearedionwidth" (esdf_physical) has no units. Assume "bohr".
<<<<<<<<<<<<<<<<<<<<<<<<<<<<<<<<< Full system >>>>>>>>>>>>>>>>>>>>>>>>>>>>>>>>>>
<<<<<<<<<<<<<<<<<<<<<<<<< Pseudopotential information >>>>>>>>>>>>>>>>>>>>>>>>>>
File: N_00.recpot [ 2001 points up to Gmax=  52.9 (1/bohr)]
  Atomic number:  7;  ionic charge:  5.000000
    Shell 1: l = 0; rc = 1.48 bohr
File: H_04.recpot [ 2001 points up to Gmax=  52.9 (1/bohr)]
  Atomic number:  1;  ionic charge:  1.000000
    Local potential
File: C_01.recpot [ 2001 points up to Gmax=  52.9 (1/bohr)]
  Atomic number:  6;  ionic charge:  4.000000
    Shell 1: l = 0; rc = 1.48 bohr
File: S_00.recpot [ 2001 points up to Gmax=  52.9 (1/bohr)]
  Atomic number: 16;  ionic charge:  6.000000
    Shell 1: l = 0; rc = 1.90 bohr
    Shell 2: l = 2; rc = 1.84 bohr
File: O_02.recpot [ 2001 points up to Gmax=  52.9 (1/bohr)]
  Atomic number:  8;  ionic charge:  6.000000
    Shell 1: l = 0; rc = 1.31 bohr
<<<<<<<<<<<<<<<<<<<<<<<<<<<<<<<<<<<<<<<<>>>>>>>>>>>>>>>>>>>>>>>>>>>>>>>>>>>>>>>>

-------------------------- Atom counting information ---------------------------
Symbol    Natoms    Nngwfs    Nprojs
  N        236       944       236
  H       1311      1311         0
  C        810      3240       810
  S          6        54        36
  O        239       956       239
.......   ......    ......    ......
Totals:   2602      6505      1321
--------------------------------------------------------------------------------

=============================== PSINC grid sizes ===============================
                      Simulation cell:  270 x 286 x 315
                              FFT-box:   99 x 105 x  99
                                  PPD:    5 x  11 x   1
Grid space d1=  0.503688888889a0 (KE cutoff=  29.94189Eh = 814.76038eV)
Grid space d2=  0.498821678322a0 (KE cutoff=  30.52906Eh = 830.73786eV)
Grid space d3=  0.508438095238a0 (KE cutoff=  29.38514Eh = 799.61048eV)
================================================================================

********************* Fourier parallelisation information **********************
       Coarse grid (whole simulation cell) dimensions:    270   286   315
          Real-space ('12') slabs/node (min max mean):      5     6     5
         Recip-space ('23') slabs/node (min max mean):      2     3     2
********************************************************************************

********************* Fourier parallelisation information **********************
       Double grid (whole simulation cell) dimensions:    540   572   630
          Real-space ('12') slabs/node (min max mean):     10    11    10
         Recip-space ('23') slabs/node (min max mean):      4     5     4
********************************************************************************
ONETEP fine grid is 540 x 572 x 630 gridpoints, 135.9960 x 142.6630 x 160.1580 bohr.
FD multigrid is     537 x 569 x 625 gridpoints, 135.2405 x 141.9148 x 158.8869 bohr.


Calculating local pseudopotential in open BC on a radial grid ...
Discrepancy between calculated realspace psloc and -Z/x on [5a0,253.965a0]:
max |rel. diff| # avg |rel. diff| #  avg rel. diff #  f # pseudopotential file
 0.000259282084    0.000004141996   0.000000074978   54  'N_00.recpot'
 0.000405386992    0.000016970607  -0.000000075982   54  'H_04.recpot'
 0.000371694516    0.000017434762   0.000000149329   54  'C_01.recpot'
 0.000461642895    0.000020341726   0.000000491514   54  'S_00.recpot'
 0.000682525123    0.000027368244   0.000000159803   54  'O_02.recpot'
... done

Atom SCF Calculation for N  : Z (AE atom) =   7 : Z (PS atom) =   5
Config String:
Orbitals (num,occ):  2     2.00 3.00
Orbitals   (num,l):  2        0    1
Real-space Grid (nr,dr,rmax): 1203    0.0066555740    8.0000000000
Spherical Bessel Basis (nsws,lmax,cutoff):   47    1  176.3951722778
Confining potential (l,width,scale):  0    3.0000000000  100.0000000000
Confining potential (l,width,scale):  1    3.0000000000  100.0000000000
  1         -4.7312375307   -3.4155304497    7.0523828109   -1.9351020946
  2         -9.7309464766   -2.0532547791    8.2966052865   -2.2494486027
  3         -9.6627394379   -2.1124926340    8.2327997121   -2.2369778124
  4         -9.6814993499   -2.1215521045    8.2229805960   -2.2365178421
  5         -9.6843326483   -2.1250939529    8.2191374534   -2.2362718126
  6         -9.6859628709   -2.1267894855    8.2172963573   -2.2362066344
  7         -9.6867347035   -2.1276425665    8.2163697352   -2.2361903369
  8         -9.6870802100   -2.1280764625    8.2158983890   -2.2361891460
  9         -9.6872290423   -2.1282977424    8.2156580222   -2.2361920435
 10         -9.6872901988   -2.1284107021    8.2155353368   -2.2361953393
 11         -9.6873135296   -2.1284684031    8.2154726809   -2.2361979819
 12         -9.6873212476   -2.1284978948    8.2154406648   -2.2361998431
 13         -9.6873229586   -2.1285129774    8.2154242957   -2.2362010676
 14         -9.6873226456   -2.1285206957    8.2154159216   -2.2362018403
 15         -9.6873218534   -2.1285246479    8.2154116349   -2.2362023142
 16         -9.6873212599   -2.1285262679    8.2154098784   -2.2362025420
 17         -9.6873207834   -2.1285272564    8.2154088068   -2.2362026955
 18         -9.6873204210   -2.1285278596    8.2154081529   -2.2362027982
 19         -9.6873201550   -2.1285282280    8.2154077538   -2.2362028667
 20         -9.6873199645   -2.1285284529    8.2154075102   -2.2362029121
 21         -9.6873198305   -2.1285285903    8.2154073614   -2.2362029421
 22         -9.6873197377   -2.1285286742    8.2154072705   -2.2362029618
Atom SCF converged after  22 iterations to a total energy of     -9.68731974

Atom SCF Calculation for H  : Z (AE atom) =   1 : Z (PS atom) =   1
Config String:
Orbitals (num,occ):  1     1.00
Orbitals   (num,l):  1        0
Real-space Grid (nr,dr,rmax): 1203    0.0066555740    8.0000000000
Spherical Bessel Basis (nsws,lmax,cutoff):   47    0  176.3951722778
Confining potential (l,width,scale):  0    3.0000000000  100.0000000000
  1         -0.3194257691   -0.2393854593    0.2820953124   -0.2424203209
  2         -0.3951823392   -0.2377116493    0.2886404059   -0.2475147891
  3         -0.4317044583   -0.2352244387    0.2921333887   -0.2514046172
  4         -0.4470703708   -0.2341892222    0.2934391879   -0.2531009782
  5         -0.4532132900   -0.2338556667    0.2938388426   -0.2537313520
  6         -0.4556579251   -0.2337612552    0.2939448584   -0.2539550462
  7         -0.4566418315   -0.2337377355    0.2939680120   -0.2540342273
  8         -0.4570437922   -0.2337331116    0.2939708287   -0.2540627372
  9         -0.4572102946   -0.2337328328    0.2939698291   -0.2540732650
 10         -0.4572800424   -0.2337332404    0.2939687193   -0.2540772588
 11         -0.4573095100   -0.2337335791    0.2939680317   -0.2540788122
 12         -0.4573220379   -0.2337337762    0.2939676699   -0.2540794294
 13         -0.4573273880   -0.2337338775    0.2939674931   -0.2540796787
 14         -0.4573296803   -0.2337339266    0.2939674099   -0.2540797808
 15         -0.4573306647   -0.2337339495    0.2939673718   -0.2540798230
 16         -0.4573310882   -0.2337339601    0.2939673545   -0.2540798406
 17         -0.4573312706   -0.2337339649    0.2939673467   -0.2540798479
 18         -0.4573313493   -0.2337339670    0.2939673433   -0.2540798510
Atom SCF converged after  18 iterations to a total energy of     -0.45733135

Atom SCF Calculation for C  : Z (AE atom) =   6 : Z (PS atom) =   4
Config String:
Orbitals (num,occ):  2     2.00 2.00
Orbitals   (num,l):  2        0    1
Real-space Grid (nr,dr,rmax): 1203    0.0066555740    8.0000000000
Spherical Bessel Basis (nsws,lmax,cutoff):   47    1  176.3951722778
Confining potential (l,width,scale):  0    3.0000000000  100.0000000000
Confining potential (l,width,scale):  1    3.0000000000  100.0000000000
  1         -5.2976922011   -1.3069684169    4.5135249990   -1.4493313817
  2         -5.3721716256   -1.3429755895    4.4750154450   -1.4361613026
  3         -5.3809959565   -1.3617365618    4.4541655428   -1.4305930207
  4         -5.3918938866   -1.3667928461    4.4484735100   -1.4294652294
  5         -5.3956096428   -1.3688539142    4.4461376126   -1.4290734646
  6         -5.3968271862   -1.3696852393    4.4451910874   -1.4289366866
  7         -5.3972028401   -1.3700178062    4.4448112275   -1.4288900460
  8         -5.3973067903   -1.3701500158    4.4446598370   -1.4288749220
  9         -5.3973286940   -1.3702023868    4.4445997329   -1.4288704293
 10         -5.3973289850   -1.3702230869    4.4445759233   -1.4288693188
 11         -5.3973254264   -1.3702312560    4.4445665049   -1.4288691775
 12         -5.3973224003   -1.3702344755    4.4445627836   -1.4288692549
 13         -5.3973208708   -1.3702354890    4.4445616088   -1.4288693270
 14         -5.3973198783   -1.3702360102    4.4445610034   -1.4288693814
 15         -5.3973192535   -1.3702362780    4.4445606917   -1.4288694190
 16         -5.3973188684   -1.3702364155    4.4445605313   -1.4288694437
 17         -5.3973186349   -1.3702364860    4.4445604489   -1.4288694595
 18         -5.3973184951   -1.3702365221    4.4445604065   -1.4288694693
 19         -5.3973184122   -1.3702365405    4.4445603848   -1.4288694753
Atom SCF converged after  19 iterations to a total energy of     -5.39731841

Atom SCF Calculation for S  : Z (AE atom) =  16 : Z (PS atom) =   6
Config String:
Orbitals (num,occ):  3     2.00 4.00 0.00
Orbitals   (num,l):  3        0    1    2
Real-space Grid (nr,dr,rmax): 1203    0.0066555740    8.0000000000
Spherical Bessel Basis (nsws,lmax,cutoff):   47    2  176.3951722778
Confining potential (l,width,scale):  0    3.0000000000  100.0000000000
Confining potential (l,width,scale):  1    3.0000000000  100.0000000000
Confining potential (l,width,scale):  2    3.0000000000  100.0000000000
  1        -12.4735062396   -1.0328741412   10.1554312477   -2.4512393157
  2         -9.9458301913   -2.4607392455    8.3041325857   -2.0306994528
  3        -10.1450417646   -2.2931184565    8.4831893826   -2.0812538287
  4        -10.1528335592   -2.2733105793    8.5050388867   -2.0896035179
  5        -10.1571940363   -2.2633716629    8.5160794258   -2.0939370707
  6        -10.1594380571   -2.2584938667    8.5215163935   -2.0961289008
  7        -10.1605856507   -2.2561081821    8.5241804044   -2.0972291378
  8        -10.1611799191   -2.2549395235    8.5254868240   -2.0977806248
  9        -10.1614918752   -2.2543658586    8.5261285885   -2.0980571586
 10        -10.1616572884   -2.2540839121    8.5264441898   -2.0981959233
 11        -10.1617455602   -2.2539453058    8.5265994231   -2.0982656006
 12        -10.1617928447   -2.2538772062    8.5266757320   -2.0983006047
 13        -10.1618182292   -2.2538437891    8.5267131983   -2.0983181961
 14        -10.1618318741   -2.2538274201    8.5267315620   -2.0983270391
 15        -10.1618392144   -2.2538194197    8.5267405433   -2.0983314852
 16        -10.1618431651   -2.2538155200    8.5267449245   -2.0983337210
 17        -10.1618452923   -2.2538136252    8.5267470551   -2.0983348455
 18        -10.1618464380   -2.2538127080    8.5267480875   -2.0983354110
 19        -10.1618470552   -2.2538122659    8.5267485856   -2.0983356955
 20        -10.1618473878   -2.2538120540    8.5267488248   -2.0983358386
 21        -10.1618475670   -2.2538119530    8.5267489389   -2.0983359106
 22        -10.1618476637   -2.2538119053    8.5267489929   -2.0983359468
Atom SCF converged after  22 iterations to a total energy of    -10.16184766

Atom SCF Calculation for O  : Z (AE atom) =   8 : Z (PS atom) =   6
Config String:
Orbitals (num,occ):  2     2.00 4.00
Orbitals   (num,l):  2        0    1
Real-space Grid (nr,dr,rmax): 1203    0.0066555740    8.0000000000
Spherical Bessel Basis (nsws,lmax,cutoff):   47    1  176.3951722778
Confining potential (l,width,scale):  0    3.0000000000  100.0000000000
Confining potential (l,width,scale):  1    3.0000000000  100.0000000000
  1         -1.8735052164   -7.5539365035   10.1554312477   -2.4512393157
  2        -16.0318313751   -3.1285771268   13.6395848164   -3.2358799643
  3        -15.9524020423   -3.0762819706   13.6967272503   -3.2536856837
  4        -15.8521515939   -3.0781493909   13.6951909330   -3.2561700440
  5        -15.8357139793   -3.0748501933   13.6988803334   -3.2580493133
  6        -15.8246052853   -3.0740779781   13.6997881576   -3.2588327446
  7        -15.8189019501   -3.0737449687   13.7001869911   -3.2592378801
  8        -15.8159785510   -3.0736026016   13.7003615168   -3.2594475790
  9        -15.8144776168   -3.0735437994   13.7004360379   -3.2595560735
 10        -15.8137058024   -3.0735207882   13.7004667348   -3.2596122456
 11        -15.8133083127   -3.0735125946   13.7004786868   -3.2596413656
 12        -15.8131032938   -3.0735102195   13.7004828997   -3.2596564858
 13        -15.8129973902   -3.0735099286   13.7004840891   -3.2596643505
 14        -15.8129426040   -3.0735102506   13.7004842061   -3.2596684489
 15        -15.8129142203   -3.0735106556   13.7004840157   -3.2596705887
 16        -15.8128994940   -3.0735109855   13.7004837906   -3.2596717080
 17        -15.8128918425   -3.0735112169   13.7004836103   -3.2596722946
 18        -15.8128878614   -3.0735113674   13.7004834848   -3.2596726026
 19        -15.8128857871   -3.0735114608   13.7004834035   -3.2596727646
 20        -15.8128847048   -3.0735115170   13.7004833533   -3.2596728500
 21        -15.8128841394   -3.0735115501   13.7004833231   -3.2596728951
 22        -15.8128838436   -3.0735115693   13.7004833054   -3.2596729190
 23        -15.8128836887   -3.0735115802   13.7004832951   -3.2596729316
 24        -15.8128836074   -3.0735115864   13.7004832893   -3.2596729383
Atom SCF converged after  24 iterations to a total energy of    -15.81288361

========================== Calculation in vacuum ==============================
= Adjusting the following parameters: 
= is_implicit_solvent: F
= is_include_apolar: F
= write_denskern: T
= write_tightbox_ngwfs: T
= restart read filename prefix: ""
= restart write filename prefix: "vacuum_"
===============================================================================

Determining parallel strategy ...
... using space-filling curve
... NGWF load balancing: max    109;  min    108;  average    108
... Projector load balancing: max     25;  min     21;  average     22
... done
Calculating direct Ion-Ion energy ...
Ion-Ion Energy        :    830515.07307521509938
======================= Empirical dispersion information =======================
Model : Elstner
Dispersion Correction Energy: -0.32918482E+01 Hartree
================================================================================
Basis initialisation ...... NGWF spheres initialised
... Projector spheres initialised
... NGWF tight boxes initialised
... Tight-boxes gathered
... NGWF basis size (local,global):    1031860  62168827
... Nonlocal pseudopotential projector initialisation
... done

========================== Sparse matrix information ===========================
                        Overlap matrix filling:   6.83%
                        Density kernel filling: 100.00%
              NGWF-Proj overlap matrix filling:   1.80%
                    Hamiltonian matrix filling:   7.72%
                  NGWF diagonal matrix filling:   0.05%
                             KS matrix filling: 100.00% 
                           KSKS matrix filling: 100.00% 
================================================================================

Sparse matrix initialisation ... done

Generating smeared ion density ... done
Smeared ion self correction:     -14457.169564
Smeared ion non-self correction: -830467.067131
NGWF initialisation ...... done
============ Calculation of NGWF S^-1 using Hotelling algorithm ================ 
         Iteration  |  Frobenius norm and Maximum abs value    (of I-S*S_n^-1)   
               1       0.78479802E+02     0.98251601E+00
               2       0.76628781E+02     0.96545617E+00
               3       0.73631945E+02     0.93259071E+00
               4       0.69372928E+02     0.87178253E+00
               5       0.64067702E+02     0.76903537E+00
               6       0.58103258E+02     0.70200255E+00
               7       0.52102646E+02     0.66863803E+00
               8       0.46554723E+02     0.64630220E+00
               9       0.40491387E+02     0.60786641E+00
              10       0.32233064E+02     0.54028168E+00
              11       0.21670994E+02     0.43418483E+00
              12       0.11078529E+02     0.29947986E+00
              13       0.36556600E+01     0.15236995E+00
              14       0.58264432E+00     0.43535341E-01
              15       0.29187463E-01     0.41442906E-02
              16       0.18928750E-03     0.43897505E-04
              17       0.16592538E-07     0.52686713E-08
              18       0.95132313E-13     0.39968029E-14
================================================================================
Calculating local pseudopotential in open BC on the fine real space grid ...
... done

MG BCs: +ve charge blocks (gridpoints):     20252 (   15940963).
MG BCs: -ve charge blocks (gridpoints):      8077 (    1084045).
MG BCs:     Elided blocks (gridpoints):    173662 (  173945617).
MG BCs: Computational effort saved:  99.9852%.
MG BCs: Charge after coarse-graining:           -9.0002216.
MG DL_MG: Calling solver with defect correction order = 8
MG DL_MG: Solver finished
MG Hartree energy from (\int phi*rho dr):              1462.371994
MG Hartree energy from (\int eps (grad phi)^2 dr):     1461.754413
MG Discrepancy due to finite box and discretization:     -0.617582 (  -0.04223%)
MG Correction to account for finite box:                  0.466986
MG Remaining discrepancy, due to discretization:         -0.150596 (  -0.01030%)
Up spin density kernel initialisation ... 
======= Optimisation of K by Palser-Manolopoulos canonical purification ======== 
         Iteration  |  Band structure energy |    c_n   
               1       -2581.20389124839039    0.5274625
               2       -2756.76023802140980    0.5174170
               3       -2937.42100125014349    0.5153101
               4       -3089.19781148282709    0.5282683
               5       -3183.32041351668795    0.5635826
               6       -3223.01994387322884    0.6090847
               7       -3236.47434507311300    0.6220929
               8       -3242.24851823510380    0.6197380
               9       -3245.06868430996019    0.6318033
              10       -3246.25700006896568    0.6599749
              11       -3246.71325338220504    0.6934186
              12       -3246.89645519585611    0.7025584
              13       -3246.98776729962310    0.6611599
              14       -3247.05061383639941    0.6050532
              15       -3247.09106954622621    0.5840129
              16       -3247.10772759895599    0.6408645
              17       -3247.11187226165021    0.6888439
              18       -3247.11316988173849    0.6776262
              19       -3247.11391544497110    0.6582327
              20       -3247.11438294534128    0.6362090
              21       -3247.11467592730787    0.6076101
              22       -3247.11486384288128    0.5702728
              23       -3247.11498198484560    0.5306380
              24       -3247.11504776910442    0.5057770
              25       -3247.11508695570092    0.5002010
              26       -3247.11512461659186    0.5000002
              27       -3247.11515827574294    0.5000000
              28       -3247.11517538660519    0.5000000
              29       -3247.11517830455841    0.5000000
              30       -3247.11517837241990    0.5000000
Termination criterion satisfied: band energy change below threshold.
Final occupancy bounds: [    0.00000000024615:    0.99999999999868]
Closest occupancy to 0.5:     0.99999999996770
================================================================================
... done

Writing density kernel to file "host_22141.vacuum_dkn" ... done

>>> Optimising kernel for current NGWFs:
   Initial electron number for spin 1:    7192.00000000
     Final electron number for spin 1:    7192.00000000

=================== Penalty functional idempotency correction ==================
 RMS occupancy error at iteration   1:  0.000000 (step -0.5000 Ne1=   7192.0000)
            Final RMS occupancy error   :  0.000000 (Ne1=   7192.0000)
               Final occupancy bounds   : [  0.0000,  1.0000]
================================================================================

................................................................................
<<<<<<<<<<<<<< LNV (Original version) density kernel optimisation >>>>>>>>>>>>>>
~~~~~~~~~~~~~~~~~~~~~~~~~~~~~~~~~~~~~~~~~~~~~~~~~~~~~~~~~~~~~~~~~~~~~~~~~~~~~~~~
   iter  |      energy (Eh)       | rms gradient |  commutator  |   dE (Eh)
MG BCs: +ve charge blocks (gridpoints):     30677 (   17074253).
MG BCs: -ve charge blocks (gridpoints):      8319 (    1117286).
MG BCs:     Elided blocks (gridpoints):    163230 (  172779086).
MG BCs: Computational effort saved:  99.9796%.
MG BCs: Charge after coarse-graining:           -9.0009593.
MG DL_MG: Calling solver with defect correction order = 8
MG DL_MG: Solver finished
MG Hartree energy from (\int phi*rho dr):              1417.066523
MG Hartree energy from (\int eps (grad phi)^2 dr):     1416.399284
MG Discrepancy due to finite box and discretization:     -0.667239 (  -0.04709%)
MG Correction to account for finite box:                  0.473252
MG Remaining discrepancy, due to discretization:         -0.193987 (  -0.01369%)
      ideal mu1:      -0.700989827723
             Q0:  -11507.049339117948
             G0:    -145.576152865783
   RMS gradient:       0.001854803122
MG BCs: +ve charge blocks (gridpoints):     30671 (   17156624).
MG BCs: -ve charge blocks (gridpoints):      8255 (    1096568).
MG BCs:     Elided blocks (gridpoints):    163235 (  172717433).
MG BCs: Computational effort saved:  99.9796%.
MG BCs: Charge after coarse-graining:           -9.0009780.
MG DL_MG: Calling solver with defect correction order = 8
MG DL_MG: Solver finished
MG Hartree energy from (\int phi*rho dr):              1442.197446
MG Hartree energy from (\int eps (grad phi)^2 dr):     1441.548201
MG Discrepancy due to finite box and discretization:     -0.649245 (  -0.04502%)
MG Correction to account for finite box:                  0.471229
MG Remaining discrepancy, due to discretization:         -0.178016 (  -0.01234%)
     Trial step:       0.500000000000
             Q1:  -11518.635045000003
 Quadratic coef:      61.202370550836
 Linear coef   :     -72.788076432892
           Qmin:  -11528.691082824589
Quadratic minimum step length (  0.297325396785) accepted
    Initial Ne1:    7192.00000000
      Final Ne1:    7192.00000000

=================== Penalty functional idempotency correction ==================
 RMS occupancy error at iteration   1:  0.003429 (step -0.4884 Ne1=   7192.0000)
 RMS occupancy error at iteration   2:  0.000027 (step -0.5001 Ne1=   7192.0000)
            Final RMS occupancy error   :  0.000000 (Ne1=   7192.0000)
               Final occupancy bounds   : [  0.0000,  1.0000]
================================================================================

    1        -1.150704933912E+04     1.8548E-03     1.6776E-03
MG BCs: +ve charge blocks (gridpoints):     30659 (   17124764).
MG BCs: -ve charge blocks (gridpoints):      8287 (    1105287).
MG BCs:     Elided blocks (gridpoints):    163247 (  172740574).
MG BCs: Computational effort saved:  99.9796%.
MG BCs: Charge after coarse-graining:           -9.0009705.
MG DL_MG: Calling solver with defect correction order = 8
MG DL_MG: Solver finished
MG Hartree energy from (\int phi*rho dr):              1424.019239
MG Hartree energy from (\int eps (grad phi)^2 dr):     1423.363643
MG Discrepancy due to finite box and discretization:     -0.655596 (  -0.04604%)
MG Correction to account for finite box:                  0.471956
MG Remaining discrepancy, due to discretization:         -0.183640 (  -0.01290%)
      ideal mu1:      -0.744960736597
             Q0:  -11529.095251032384
             G0:     -12.193490798108
   RMS gradient:       0.000533200961
MG BCs: +ve charge blocks (gridpoints):     30660 (   17141917).
MG BCs: -ve charge blocks (gridpoints):      8268 (    1100103).
MG BCs:     Elided blocks (gridpoints):    163244 (  172728605).
MG BCs: Computational effort saved:  99.9796%.
MG BCs: Charge after coarse-graining:           -9.0009738.
MG DL_MG: Calling solver with defect correction order = 8
MG DL_MG: Solver finished
MG Hartree energy from (\int phi*rho dr):              1429.268517
MG Hartree energy from (\int eps (grad phi)^2 dr):     1428.616935
MG Discrepancy due to finite box and discretization:     -0.651582 (  -0.04559%)
MG Correction to account for finite box:                  0.471141
MG Remaining discrepancy, due to discretization:         -0.180441 (  -0.01262%)
     Trial step:       0.385568020449
             Q1:  -11531.950422865921
 Quadratic coef:       1.846248275848
 Linear coef   :      -4.701420109384
           Qmin:  -11532.088260062383
Quadratic minimum step length (  0.490919143591) accepted
    Initial Ne1:    7191.99989040
      Final Ne1:    7192.00000000

=================== Penalty functional idempotency correction ==================
 RMS occupancy error at iteration   1:  0.001820 (step -0.4928 Ne1=   7192.0000)
 RMS occupancy error at iteration   2:  0.000014 (step -0.5004 Ne1=   7192.0000)
            Final RMS occupancy error   :  0.000000 (Ne1=   7192.0000)
               Final occupancy bounds   : [  0.0000,  1.0000]
================================================================================

    2        -1.152909525103E+04     5.3320E-04     4.8227E-04    -2.2046E+01
MG BCs: +ve charge blocks (gridpoints):     30663 (   17146470).
MG BCs: -ve charge blocks (gridpoints):      8262 (    1098779).
MG BCs:     Elided blocks (gridpoints):    163240 (  172725376).
MG BCs: Computational effort saved:  99.9796%.
MG BCs: Charge after coarse-graining:           -9.0009748.
MG DL_MG: Calling solver with defect correction order = 8
MG DL_MG: Solver finished
MG Hartree energy from (\int phi*rho dr):              1430.754324
MG Hartree energy from (\int eps (grad phi)^2 dr):     1430.103768
MG Discrepancy due to finite box and discretization:     -0.650556 (  -0.04547%)
MG Correction to account for finite box:                  0.470930
MG Remaining discrepancy, due to discretization:         -0.179626 (  -0.01255%)
      ideal mu1:      -0.769336927764
             Q0:  -11532.124784008134
             G0:      -1.995945553347
   RMS gradient:       0.000215846887
MG BCs: +ve charge blocks (gridpoints):     30657 (   17146028).
MG BCs: -ve charge blocks (gridpoints):      8272 (    1099797).
MG BCs:     Elided blocks (gridpoints):    163246 (  172724800).
MG BCs: Computational effort saved:  99.9796%.
MG BCs: Charge after coarse-graining:           -9.0009744.
MG DL_MG: Calling solver with defect correction order = 8
MG DL_MG: Solver finished
MG Hartree energy from (\int phi*rho dr):              1428.568312
MG Hartree energy from (\int eps (grad phi)^2 dr):     1427.918277
MG Discrepancy due to finite box and discretization:     -0.650035 (  -0.04550%)
MG Correction to account for finite box:                  0.470644
MG Remaining discrepancy, due to discretization:         -0.179391 (  -0.01256%)
     Trial step:       0.435066342521
             Q1:  -11532.640496834763
 Quadratic coef:       0.352655905137
 Linear coef   :      -0.868368731766
           Qmin:  -11532.659344923835
Quadratic minimum step length (  0.535646791371) accepted
    Initial Ne1:    7191.99985542
      Final Ne1:    7192.00000000

=================== Penalty functional idempotency correction ==================
 RMS occupancy error at iteration   1:  0.000720 (step -0.4932 Ne1=   7192.0000)
 RMS occupancy error at iteration   2:  0.000013 (step -0.5008 Ne1=   7192.0000)
            Final RMS occupancy error   :  0.000000 (Ne1=   7192.0000)
               Final occupancy bounds   : [  0.0000,  1.0000]
================================================================================

    3        -1.153212478401E+04     2.1585E-04     1.9523E-04    -3.0295E+00
MG BCs: +ve charge blocks (gridpoints):     30659 (   17145954).
MG BCs: -ve charge blocks (gridpoints):      8275 (    1099994).
MG BCs:     Elided blocks (gridpoints):    163244 (  172724677).
MG BCs: Computational effort saved:  99.9796%.
MG BCs: Charge after coarse-graining:           -9.0009743.
MG DL_MG: Calling solver with defect correction order = 8
MG DL_MG: Solver finished
MG Hartree energy from (\int phi*rho dr):              1428.073924
MG Hartree energy from (\int eps (grad phi)^2 dr):     1427.423997
MG Discrepancy due to finite box and discretization:     -0.649927 (  -0.04551%)
MG Correction to account for finite box:                  0.470578
MG Remaining discrepancy, due to discretization:         -0.179348 (  -0.01256%)
      ideal mu1:      -0.770410653712
             Q0:  -11532.664224751410
             G0:      -0.573796989164
   RMS gradient:       0.000115874487
MG BCs: +ve charge blocks (gridpoints):     30663 (   17146846).
MG BCs: -ve charge blocks (gridpoints):      8272 (    1099804).
MG BCs:     Elided blocks (gridpoints):    163240 (  172723975).
MG BCs: Computational effort saved:  99.9796%.
MG BCs: Charge after coarse-graining:           -9.0009744.
MG DL_MG: Calling solver with defect correction order = 8
MG DL_MG: Solver finished
MG Hartree energy from (\int phi*rho dr):              1429.288559
MG Hartree energy from (\int eps (grad phi)^2 dr):     1428.638603
MG Discrepancy due to finite box and discretization:     -0.649956 (  -0.04547%)
MG Correction to account for finite box:                  0.470516
MG Remaining discrepancy, due to discretization:         -0.179440 (  -0.01255%)
     Trial step:       0.482744125189
             Q1:  -11532.812006168766
 Quadratic coef:       0.129215708215
 Linear coef   :      -0.276997125570
           Qmin:  -11532.812673048900
Quadratic minimum step length (  0.517424456014) accepted
    Initial Ne1:    7191.99978401
      Final Ne1:    7192.00000000

=================== Penalty functional idempotency correction ==================
 RMS occupancy error at iteration   1:  0.000489 (step -0.4781 Ne1=   7192.0000)
 RMS occupancy error at iteration   2:  0.000014 (step -0.5002 Ne1=   7192.0000)
            Final RMS occupancy error   :  0.000000 (Ne1=   7192.0000)
               Final occupancy bounds   : [  0.0000,  1.0000]
================================================================================

    4        -1.153266422475E+04     1.1587E-04     1.0481E-04    -5.3944E-01
MG BCs: +ve charge blocks (gridpoints):     30664 (   17146923).
MG BCs: -ve charge blocks (gridpoints):      8271 (    1099791).
MG BCs:     Elided blocks (gridpoints):    163239 (  172723911).
MG BCs: Computational effort saved:  99.9796%.
MG BCs: Charge after coarse-graining:           -9.0009744.
MG DL_MG: Calling solver with defect correction order = 8
MG DL_MG: Solver finished
MG Hartree energy from (\int phi*rho dr):              1429.377408
MG Hartree energy from (\int eps (grad phi)^2 dr):     1428.727449
MG Discrepancy due to finite box and discretization:     -0.649959 (  -0.04547%)
MG Correction to account for finite box:                  0.470511
MG Remaining discrepancy, due to discretization:         -0.179448 (  -0.01255%)
      ideal mu1:      -0.770517249728
             Q0:  -11532.813326741569
             G0:      -0.244477226253
   RMS gradient:       0.000075856622
MG BCs: +ve charge blocks (gridpoints):     30661 (   17147095).
MG BCs: -ve charge blocks (gridpoints):      8268 (    1099638).
MG BCs:     Elided blocks (gridpoints):    163243 (  172723892).
MG BCs: Computational effort saved:  99.9796%.
MG BCs: Charge after coarse-graining:           -9.0009744.
MG DL_MG: Calling solver with defect correction order = 8
MG DL_MG: Solver finished
MG Hartree energy from (\int phi*rho dr):              1429.866983
MG Hartree energy from (\int eps (grad phi)^2 dr):     1429.216844
MG Discrepancy due to finite box and discretization:     -0.650139 (  -0.04547%)
MG Correction to account for finite box:                  0.470519
MG Remaining discrepancy, due to discretization:         -0.179620 (  -0.01256%)
     Trial step:       0.499783569528
             Q1:  -11532.891319290386
 Quadratic coef:       0.044193151989
 Linear coef   :      -0.122185700805
           Qmin:  -11532.897781825724
Quadratic minimum step length (  0.690903487817) accepted
    Initial Ne1:    7191.99975984
      Final Ne1:    7192.00000000

=================== Penalty functional idempotency correction ==================
 RMS occupancy error at iteration   1:  0.000983 (step -0.4350 Ne1=   7192.0000)
 RMS occupancy error at iteration   2:  0.000033 (step -0.4997 Ne1=   7192.0000)
            Final RMS occupancy error   :  0.000000 (Ne1=   7192.0000)
               Final occupancy bounds   : [ -0.0000,  1.0000]
================================================================================

    5        -1.153281332674E+04     7.5857E-05     6.8611E-05    -1.4910E-01
MG BCs: +ve charge blocks (gridpoints):     30659 (   17147210).
MG BCs: -ve charge blocks (gridpoints):      8263 (    1099584).
MG BCs:     Elided blocks (gridpoints):    163245 (  172723831).
MG BCs: Computational effort saved:  99.9796%.
MG BCs: Charge after coarse-graining:           -9.0009744.
MG DL_MG: Calling solver with defect correction order = 8
MG DL_MG: Solver finished
MG Hartree energy from (\int phi*rho dr):              1430.057637
MG Hartree energy from (\int eps (grad phi)^2 dr):     1429.407428
MG Discrepancy due to finite box and discretization:     -0.650208 (  -0.04547%)
MG Correction to account for finite box:                  0.470521
MG Remaining discrepancy, due to discretization:         -0.179687 (  -0.01257%)
      ideal mu1:      -0.770053373843
             Q0:  -11532.897050809814
             G0:      -0.196410159102
   RMS gradient:       0.000068186873
MG BCs: +ve charge blocks (gridpoints):     30658 (   17146325).
MG BCs: -ve charge blocks (gridpoints):      8270 (    1100053).
MG BCs:     Elided blocks (gridpoints):    163246 (  172724247).
MG BCs: Computational effort saved:  99.9796%.
MG BCs: Charge after coarse-graining:           -9.0009741.
MG DL_MG: Calling solver with defect correction order = 8
MG DL_MG: Solver finished
MG Hartree energy from (\int phi*rho dr):              1428.576063
MG Hartree energy from (\int eps (grad phi)^2 dr):     1427.925928
MG Discrepancy due to finite box and discretization:     -0.650135 (  -0.04551%)
MG Correction to account for finite box:                  0.470471
MG Remaining discrepancy, due to discretization:         -0.179664 (  -0.01258%)
     Trial step:       0.587624209287
             Q1:  -11532.972727273125
 Quadratic coef:       0.039738901127
 Linear coef   :      -0.115415364438
           Qmin:  -11532.980852235940
Quadratic minimum step length (  0.853330871570) accepted
    Initial Ne1:    7192.00012110
      Final Ne1:    7192.00000000

=================== Penalty functional idempotency correction ==================
 RMS occupancy error at iteration   1:  0.002959 (step -0.3443 Ne1=   7192.0000)
 RMS occupancy error at iteration   2:  0.000176 (step -0.4919 Ne1=   7192.0000)
 RMS occupancy error at iteration   3:  0.000002 (step -0.5000 Ne1=   7192.0000)
            Final RMS occupancy error   :  0.000000 (Ne1=   7192.0000)
               Final occupancy bounds   : [  0.0000,  1.0000]
================================================================================

    6        -1.153289705081E+04     6.8187E-05     6.1673E-05    -8.3724E-02
MG BCs: +ve charge blocks (gridpoints):     30659 (   17145914).
MG BCs: -ve charge blocks (gridpoints):      8271 (    1100270).
MG BCs:     Elided blocks (gridpoints):    163245 (  172724441).
MG BCs: Computational effort saved:  99.9796%.
MG BCs: Charge after coarse-graining:           -9.0009741.
MG DL_MG: Calling solver with defect correction order = 8
MG DL_MG: Solver finished
MG Hartree energy from (\int phi*rho dr):              1427.918024
MG Hartree energy from (\int eps (grad phi)^2 dr):     1427.267912
MG Discrepancy due to finite box and discretization:     -0.650112 (  -0.04553%)
MG Correction to account for finite box:                  0.470456
MG Remaining discrepancy, due to discretization:         -0.179656 (  -0.01258%)
      ideal mu1:      -0.769603884429
             Q0:  -11532.983467080980
             G0:      -0.193501414048
   RMS gradient:       0.000067623052
MG BCs: +ve charge blocks (gridpoints):     30660 (   17147275).
MG BCs: -ve charge blocks (gridpoints):      8269 (    1099513).
MG BCs:     Elided blocks (gridpoints):    163244 (  172723837).
MG BCs: Computational effort saved:  99.9796%.
MG BCs: Charge after coarse-graining:           -9.0009744.
MG DL_MG: Calling solver with defect correction order = 8
MG DL_MG: Solver finished
MG Hartree energy from (\int phi*rho dr):              1429.666253
MG Hartree energy from (\int eps (grad phi)^2 dr):     1429.016348
MG Discrepancy due to finite box and discretization:     -0.649905 (  -0.04546%)
MG Correction to account for finite box:                  0.470395
MG Remaining discrepancy, due to discretization:         -0.179510 (  -0.01256%)
     Trial step:       0.708122785022
             Q1:  -11533.050002340111
 Quadratic coef:       0.070487501089
 Linear coef   :      -0.137022760221
           Qmin:  -11533.050057740773
Quadratic minimum step length (  0.688270523712) accepted
    Initial Ne1:    7191.99999954
      Final Ne1:    7192.00000000

=================== Penalty functional idempotency correction ==================
 RMS occupancy error at iteration   1:  0.000153 (step -0.4913 Ne1=   7192.0000)
 RMS occupancy error at iteration   2:  0.000000 (step -0.5000 Ne1=   7192.0000)
            Final RMS occupancy error   :  0.000000 (Ne1=   7192.0000)
               Final occupancy bounds   : [  0.0000,  1.0000]
================================================================================

    7        -1.153298346708E+04     6.7623E-05     6.1164E-05    -8.6416E-02
MG BCs: +ve charge blocks (gridpoints):     30660 (   17147236).
MG BCs: -ve charge blocks (gridpoints):      8269 (    1099534).
MG BCs:     Elided blocks (gridpoints):    163244 (  172723855).
MG BCs: Computational effort saved:  99.9796%.
MG BCs: Charge after coarse-graining:           -9.0009744.
MG DL_MG: Calling solver with defect correction order = 8
MG DL_MG: Solver finished
MG Hartree energy from (\int phi*rho dr):              1429.617156
MG Hartree energy from (\int eps (grad phi)^2 dr):     1428.967245
MG Discrepancy due to finite box and discretization:     -0.649910 (  -0.04546%)
MG Correction to account for finite box:                  0.470397
MG Remaining discrepancy, due to discretization:         -0.179514 (  -0.01256%)
      ideal mu1:      -0.770802663062
             Q0:  -11533.050041949609
             G0:      -0.184962507694
   RMS gradient:       0.000066147878
MG BCs: +ve charge blocks (gridpoints):     30664 (   17147179).
MG BCs: -ve charge blocks (gridpoints):      8271 (    1099525).
MG BCs:     Elided blocks (gridpoints):    163239 (  172723921).
MG BCs: Computational effort saved:  99.9796%.
MG BCs: Charge after coarse-graining:           -9.0009745.
MG DL_MG: Calling solver with defect correction order = 8
MG DL_MG: Solver finished
MG Hartree energy from (\int phi*rho dr):              1429.652834
MG Hartree energy from (\int eps (grad phi)^2 dr):     1429.003146
MG Discrepancy due to finite box and discretization:     -0.649688 (  -0.04544%)
MG Correction to account for finite box:                  0.470275
MG Remaining discrepancy, due to discretization:         -0.179413 (  -0.01255%)
     Trial step:       0.698126091834
             Q1:  -11533.135453226161
 Quadratic coef:       0.043715876080
 Linear coef   :      -0.129127152632
           Qmin:  -11533.145395303140
Quadratic minimum step length (  1.031056020157) accepted
    Initial Ne1:    7191.99999930
      Final Ne1:    7192.00000000

=================== Penalty functional idempotency correction ==================
 RMS occupancy error at iteration   1:  0.001885 (step -0.4089 Ne1=   7192.0000)
 RMS occupancy error at iteration   2:  0.000042 (step -0.4994 Ne1=   7192.0000)
            Final RMS occupancy error   :  0.000000 (Ne1=   7192.0000)
               Final occupancy bounds   : [ -0.0000,  1.0000]
================================================================================

    8        -1.153305004195E+04     6.6148E-05     5.9829E-05    -6.6575E-02
MG BCs: +ve charge blocks (gridpoints):     30663 (   17147154).
MG BCs: -ve charge blocks (gridpoints):      8272 (    1099513).
MG BCs:     Elided blocks (gridpoints):    163240 (  172723958).
MG BCs: Computational effort saved:  99.9796%.
MG BCs: Charge after coarse-graining:           -9.0009746.
MG DL_MG: Calling solver with defect correction order = 8
MG DL_MG: Solver finished
MG Hartree energy from (\int phi*rho dr):              1429.675876
MG Hartree energy from (\int eps (grad phi)^2 dr):     1429.026291
MG Discrepancy due to finite box and discretization:     -0.649585 (  -0.04544%)
MG Correction to account for finite box:                  0.470219
MG Remaining discrepancy, due to discretization:         -0.179366 (  -0.01255%)
      ideal mu1:      -0.771366571310
             Q0:  -11533.139353037113
             G0:      -0.253943818285
   RMS gradient:       0.000080019415
MG BCs: +ve charge blocks (gridpoints):     30655 (   17146173).
MG BCs: -ve charge blocks (gridpoints):      8273 (    1100113).
MG BCs:     Elided blocks (gridpoints):    163248 (  172724339).
MG BCs: Computational effort saved:  99.9796%.
MG BCs: Charge after coarse-graining:           -9.0009744.
MG DL_MG: Calling solver with defect correction order = 8
MG DL_MG: Solver finished
MG Hartree energy from (\int phi*rho dr):              1428.129751
MG Hartree energy from (\int eps (grad phi)^2 dr):     1427.480426
MG Discrepancy due to finite box and discretization:     -0.649325 (  -0.04547%)
MG Correction to account for finite box:                  0.470044
MG Remaining discrepancy, due to discretization:         -0.179281 (  -0.01255%)
     Trial step:       0.848414468178
             Q1:  -11533.198623587843
 Quadratic coef:       0.156179058808
 Linear coef   :      -0.215449609537
           Qmin:  -11533.213656427408
Quadratic minimum step length (  0.585195503450) accepted
    Initial Ne1:    7192.00024158
      Final Ne1:    7192.00000000

=================== Penalty functional idempotency correction ==================
 RMS occupancy error at iteration   1:  0.004165 (step -0.3364 Ne1=   7192.0000)
 RMS occupancy error at iteration   2:  0.000151 (step -0.4976 Ne1=   7192.0000)
 RMS occupancy error at iteration   3:  0.000002 (step -0.5000 Ne1=   7192.0000)
            Final RMS occupancy error   :  0.000000 (Ne1=   7192.0000)
               Final occupancy bounds   : [  0.0000,  1.0000]
================================================================================

    9        -1.153313935304E+04     8.0019E-05     7.2375E-05    -8.9311E-02
MG BCs: +ve charge blocks (gridpoints):     30657 (   17146500).
MG BCs: -ve charge blocks (gridpoints):      8273 (    1099896).
MG BCs:     Elided blocks (gridpoints):    163246 (  172724229).
MG BCs: Computational effort saved:  99.9796%.
MG BCs: Charge after coarse-graining:           -9.0009744.
MG DL_MG: Calling solver with defect correction order = 8
MG DL_MG: Solver finished
MG Hartree energy from (\int phi*rho dr):              1428.589378
MG Hartree energy from (\int eps (grad phi)^2 dr):     1427.939983
MG Discrepancy due to finite box and discretization:     -0.649395 (  -0.04546%)
MG Correction to account for finite box:                  0.470090
MG Remaining discrepancy, due to discretization:         -0.179305 (  -0.01255%)
      ideal mu1:      -0.771064684802
   10        -1.153322101668E+04     6.9628E-05     6.2977E-05    -8.1664E-02
Finished density kernel iterations (  10)

Writing density kernel to file "host_22141.vacuum_dkn" ... done


>>> Density kernel optimised for the current NGWF basis:
     ~~~~~~~~~~~~~~~~~~~~~~~~~~~~~~~~~~~~~~~~~~~~~~~~~~~~~~~~~~~
     Total energy                =  -1.15332210166843E+04  Eh
     Estimated bandgap           =  -3.1529E-01  Eh
     RMS occupancy error         =   3.5981E-10
     [H,K] commutator            =   6.2977E-05
     Occupancy bounds            = [  0.000:  1.000]
     ~~~~~~~~~~~~~~~~~~~~~~~~~~~~~~~~~~~~~~~~~~~~~~~~~~~~~~~~~~~




################################################################################
########################### NGWF CG iteration  001 #############################
################################################################################
****** Reciprocal space K.E. preconditioning with k_zero =  3.5000 a0^-1 *******

>>> Checking for convergence of NGWFs:   NOT CONVERGED
  ========================================================================
         NGWF RMS gradient =  1.5834E-03 >  2.0000E-06  | above tolerance
  ========================================================================

>>> Improving NGWFs using line search:
============ Calculation of NGWF S^-1 using Hotelling algorithm ================ 
         Iteration  |  Frobenius norm and Maximum abs value    (of I-S*S_n^-1)   
               1       0.19607801E+00     0.53836737E-02
               2       0.89347855E-03     0.39566170E-04
               3       0.31858107E-07     0.21866453E-08
               4       0.12656884E-12     0.73274720E-14
================================================================================
MG BCs: +ve charge blocks (gridpoints):     30223 (   17089399).
MG BCs: -ve charge blocks (gridpoints):      8275 (    1099852).
MG BCs:     Elided blocks (gridpoints):    163685 (  172781374).
MG BCs: Computational effort saved:  99.9798%.
MG BCs: Charge after coarse-graining:           -9.0009764.
MG DL_MG: Calling solver with defect correction order = 8
MG DL_MG: Solver finished
MG Hartree energy from (\int phi*rho dr):              1397.128122
MG Hartree energy from (\int eps (grad phi)^2 dr):     1396.479639
MG Discrepancy due to finite box and discretization:     -0.648483 (  -0.04642%)
MG Correction to account for finite box:                  0.470032
MG Remaining discrepancy, due to discretization:         -0.178451 (  -0.01277%)
============ Calculation of NGWF S^-1 using Hotelling algorithm ================ 
         Iteration  |  Frobenius norm and Maximum abs value    (of I-S*S_n^-1)   
               1       0.18454047E+01     0.40177661E-01
               2       0.70799429E-01     0.20949232E-02
               3       0.14194628E-03     0.76359463E-05
               4       0.10610448E-08     0.11590684E-09
               5       0.10880299E-12     0.53290705E-14
================================================================================
------------------------------- NGWF line search -------------------------------
RMS gradient                =       0.00158343130549
Trial step length           =               0.122474
Gradient along search dir.  =       -273.81582898570
Functional at step 0        =  -11533.22101668431424
Functional at step 1        =  -11564.20696902484633
Functional predicted        =  -11643.50011382353841
Selected quadratic step     =               0.805498
--------------------------- NGWF line search finished --------------------------
                                               
Writing NGWFs to file "host_22141.vacuum_tightbox_ngwfs"....  done

>>> Optimising kernel for current NGWFs:
   Initial electron number for spin 1:    7226.63285991
     Final electron number for spin 1:    7192.00000000

=================== Penalty functional idempotency correction ==================
 RMS occupancy error at iteration   1:  0.004317 (step -0.4857 Ne1=   7192.0000)
 RMS occupancy error at iteration   2:  0.000072 (step -0.5003 Ne1=   7192.0000)
            Final RMS occupancy error   :  0.000000 (Ne1=   7192.0000)
               Final occupancy bounds   : [  0.0000,  1.0000]
================================================================================

................................................................................
<<<<<<<<<<<<<< LNV (Original version) density kernel optimisation >>>>>>>>>>>>>>
~~~~~~~~~~~~~~~~~~~~~~~~~~~~~~~~~~~~~~~~~~~~~~~~~~~~~~~~~~~~~~~~~~~~~~~~~~~~~~~~
   iter  |      energy (Eh)       | rms gradient |  commutator  |   dE (Eh)
MG BCs: +ve charge blocks (gridpoints):     24448 (   16812249).
MG BCs: -ve charge blocks (gridpoints):      8441 (    1082669).
MG BCs:     Elided blocks (gridpoints):    169466 (  173075707).
MG BCs: Computational effort saved:  99.9828%.
MG BCs: Charge after coarse-graining:           -9.0006555.
MG DL_MG: Calling solver with defect correction order = 8
MG DL_MG: Solver finished
MG Hartree energy from (\int phi*rho dr):              1243.712843
MG Hartree energy from (\int eps (grad phi)^2 dr):     1243.064875
MG Discrepancy due to finite box and discretization:     -0.647969 (  -0.05210%)
MG Correction to account for finite box:                  0.469736
MG Remaining discrepancy, due to discretization:         -0.178233 (  -0.01433%)
      ideal mu1:      -0.711888819637
             Q0:  -11642.705747639295
             G0:      -9.693265870091
   RMS gradient:       0.000478616605
MG BCs: +ve charge blocks (gridpoints):     24523 (   16825063).
MG BCs: -ve charge blocks (gridpoints):      8419 (    1079661).
MG BCs:     Elided blocks (gridpoints):    169391 (  173065901).
MG BCs: Computational effort saved:  99.9828%.
MG BCs: Charge after coarse-graining:           -9.0006521.
MG DL_MG: Calling solver with defect correction order = 8
MG DL_MG: Solver finished
MG Hartree energy from (\int phi*rho dr):              1258.473320
MG Hartree energy from (\int eps (grad phi)^2 dr):     1257.819563
MG Discrepancy due to finite box and discretization:     -0.653757 (  -0.05195%)
MG Correction to account for finite box:                  0.469808
MG Remaining discrepancy, due to discretization:         -0.183949 (  -0.01462%)
     Trial step:       0.704619281485
             Q1:  -11642.290884844610
 Quadratic coef:       7.244924827308
 Linear coef   :      -6.830062032622
           Qmin:  -11644.315486473079
Quadratic minimum step length (  0.332135495995) accepted
    Initial Ne1:    7191.99956961
      Final Ne1:    7192.00000000

=================== Penalty functional idempotency correction ==================
 RMS occupancy error at iteration   1:  0.000353 (step -0.4986 Ne1=   7192.0000)
 RMS occupancy error at iteration   2:  0.000000 (step -0.5000 Ne1=   7192.0000)
            Final RMS occupancy error   :  0.000000 (Ne1=   7192.0000)
               Final occupancy bounds   : [  0.0000,  1.0000]
================================================================================

    1        -1.164270574764E+04     4.7862E-04     4.3290E-04
MG BCs: +ve charge blocks (gridpoints):     24477 (   16818230).
MG BCs: -ve charge blocks (gridpoints):      8442 (    1081420).
MG BCs:     Elided blocks (gridpoints):    169437 (  173070975).
MG BCs: Computational effort saved:  99.9828%.
MG BCs: Charge after coarse-graining:           -9.0006539.
MG DL_MG: Calling solver with defect correction order = 8
MG DL_MG: Solver finished
MG Hartree energy from (\int phi*rho dr):              1249.790540
MG Hartree energy from (\int eps (grad phi)^2 dr):     1249.139918
MG Discrepancy due to finite box and discretization:     -0.650621 (  -0.05206%)
MG Correction to account for finite box:                  0.469763
MG Remaining discrepancy, due to discretization:         -0.180858 (  -0.01447%)
      ideal mu1:      -0.718194558075
             Q0:  -11644.291634332156
             G0:      -1.034268685852
   RMS gradient:       0.000156941098
MG BCs: +ve charge blocks (gridpoints):     24477 (   16817490).
MG BCs: -ve charge blocks (gridpoints):      8439 (    1082267).
MG BCs:     Elided blocks (gridpoints):    169437 (  173070868).
MG BCs: Computational effort saved:  99.9828%.
MG BCs: Charge after coarse-graining:           -9.0006539.
MG DL_MG: Calling solver with defect correction order = 8
MG DL_MG: Solver finished
MG Hartree energy from (\int phi*rho dr):              1250.654333
MG Hartree energy from (\int eps (grad phi)^2 dr):     1250.003314
MG Discrepancy due to finite box and discretization:     -0.651019 (  -0.05205%)
MG Correction to account for finite box:                  0.469759
MG Remaining discrepancy, due to discretization:         -0.181260 (  -0.01449%)
     Trial step:       0.483765516075
             Q1:  -11644.513086210121
 Quadratic coef:       0.278891646605
 Linear coef   :      -0.500343524571
           Qmin:  -11644.516043744939
Quadratic minimum step length (  0.433947997950) accepted
    Initial Ne1:    7191.99993953
      Final Ne1:    7192.00000000

=================== Penalty functional idempotency correction ==================
 RMS occupancy error at iteration   1:  0.000163 (step -0.4989 Ne1=   7192.0000)
 RMS occupancy error at iteration   2:  0.000000 (step -0.5000 Ne1=   7192.0000)
            Final RMS occupancy error   :  0.000000 (Ne1=   7192.0000)
               Final occupancy bounds   : [  0.0000,  1.0000]
================================================================================

    2        -1.164429163433E+04     1.5694E-04     1.4195E-04    -1.5859E+00
MG BCs: +ve charge blocks (gridpoints):     24477 (   16817556).
MG BCs: -ve charge blocks (gridpoints):      8439 (    1082186).
MG BCs:     Elided blocks (gridpoints):    169437 (  173070883).
MG BCs: Computational effort saved:  99.9828%.
MG BCs: Charge after coarse-graining:           -9.0006539.
MG DL_MG: Calling solver with defect correction order = 8
MG DL_MG: Solver finished
MG Hartree energy from (\int phi*rho dr):              1250.565226
MG Hartree energy from (\int eps (grad phi)^2 dr):     1249.914249
MG Discrepancy due to finite box and discretization:     -0.650977 (  -0.05205%)
MG Correction to account for finite box:                  0.469759
MG Remaining discrepancy, due to discretization:         -0.181218 (  -0.01449%)
      ideal mu1:      -0.718949932658
             Q0:  -11644.516532379901
             G0:      -0.181970408538
   RMS gradient:       0.000065507113
MG BCs: +ve charge blocks (gridpoints):     24480 (   16816968).
MG BCs: -ve charge blocks (gridpoints):      8440 (    1082529).
MG BCs:     Elided blocks (gridpoints):    169434 (  173071128).
MG BCs: Computational effort saved:  99.9828%.
MG BCs: Charge after coarse-graining:           -9.0006539.
MG DL_MG: Calling solver with defect correction order = 8
MG DL_MG: Solver finished
MG Hartree energy from (\int phi*rho dr):              1250.026721
MG Hartree energy from (\int eps (grad phi)^2 dr):     1249.375788
MG Discrepancy due to finite box and discretization:     -0.650933 (  -0.05207%)
MG Correction to account for finite box:                  0.469733
MG Remaining discrepancy, due to discretization:         -0.181199 (  -0.01450%)
     Trial step:       0.458180179818
             Q1:  -11644.575284383027
 Quadratic coef:       0.024623231380
 Linear coef   :      -0.083375234506
           Qmin:  -11644.587110339609
Quadratic minimum step length (  0.775708097534) accepted
    Initial Ne1:    7191.99998115
      Final Ne1:    7192.00000000

=================== Penalty functional idempotency correction ==================
 RMS occupancy error at iteration   1:  0.000241 (step -0.4879 Ne1=   7192.0000)
 RMS occupancy error at iteration   2:  0.000002 (step -0.5000 Ne1=   7192.0000)
            Final RMS occupancy error   :  0.000000 (Ne1=   7192.0000)
               Final occupancy bounds   : [  0.0000,  1.0000]
================================================================================

    3        -1.164451653238E+04     6.5507E-05     5.9250E-05    -2.2490E-01
MG BCs: +ve charge blocks (gridpoints):     24480 (   16816505).
MG BCs: -ve charge blocks (gridpoints):      8441 (    1082827).
MG BCs:     Elided blocks (gridpoints):    169434 (  173071293).
MG BCs: Computational effort saved:  99.9828%.
MG BCs: Charge after coarse-graining:           -9.0006539.
MG DL_MG: Calling solver with defect correction order = 8
MG DL_MG: Solver finished
MG Hartree energy from (\int phi*rho dr):              1249.653812
MG Hartree energy from (\int eps (grad phi)^2 dr):     1249.002911
MG Discrepancy due to finite box and discretization:     -0.650901 (  -0.05209%)
MG Correction to account for finite box:                  0.469713
MG Remaining discrepancy, due to discretization:         -0.181188 (  -0.01450%)
      ideal mu1:      -0.718013321955
             Q0:  -11644.587060783873
             G0:      -0.089800283168
   RMS gradient:       0.000046060645
MG BCs: +ve charge blocks (gridpoints):     24478 (   16816516).
MG BCs: -ve charge blocks (gridpoints):      8440 (    1082805).
MG BCs:     Elided blocks (gridpoints):    169436 (  173071304).
MG BCs: Computational effort saved:  99.9828%.
MG BCs: Charge after coarse-graining:           -9.0006539.
MG DL_MG: Calling solver with defect correction order = 8
MG DL_MG: Solver finished
MG Hartree energy from (\int phi*rho dr):              1249.692970
MG Hartree energy from (\int eps (grad phi)^2 dr):     1249.042318
MG Discrepancy due to finite box and discretization:     -0.650652 (  -0.05206%)
MG Correction to account for finite box:                  0.469607
MG Remaining discrepancy, due to discretization:         -0.181046 (  -0.01449%)
     Trial step:       0.596166147659
             Q1:  -11644.621363339596
 Quadratic coef:       0.019233333152
 Linear coef   :      -0.053535888875
           Qmin:  -11644.624315005163
Quadratic minimum step length (  0.829712779868) accepted
    Initial Ne1:    7191.99998923
      Final Ne1:    7192.00000000

=================== Penalty functional idempotency correction ==================
 RMS occupancy error at iteration   1:  0.000553 (step -0.4678 Ne1=   7192.0000)
 RMS occupancy error at iteration   2:  0.000008 (step -0.4999 Ne1=   7192.0000)
            Final RMS occupancy error   :  0.000000 (Ne1=   7192.0000)
               Final occupancy bounds   : [ -0.0000,  1.0000]
================================================================================

    4        -1.164458706078E+04     4.6061E-05     4.1661E-05    -7.0528E-02
MG BCs: +ve charge blocks (gridpoints):     24478 (   16816485).
MG BCs: -ve charge blocks (gridpoints):      8440 (    1082805).
MG BCs:     Elided blocks (gridpoints):    169436 (  173071335).
MG BCs: Computational effort saved:  99.9828%.
MG BCs: Charge after coarse-graining:           -9.0006540.
MG DL_MG: Calling solver with defect correction order = 8
MG DL_MG: Solver finished
MG Hartree energy from (\int phi*rho dr):              1249.710868
MG Hartree energy from (\int eps (grad phi)^2 dr):     1249.060311
MG Discrepancy due to finite box and discretization:     -0.650556 (  -0.05206%)
MG Correction to account for finite box:                  0.469566
MG Remaining discrepancy, due to discretization:         -0.180990 (  -0.01448%)
      ideal mu1:      -0.718685336461
             Q0:  -11644.624155828846
             G0:      -0.097150261868
   RMS gradient:       0.000047849364
MG BCs: +ve charge blocks (gridpoints):     24478 (   16818257).
MG BCs: -ve charge blocks (gridpoints):      8440 (    1082110).
MG BCs:     Elided blocks (gridpoints):    169436 (  173070258).
MG BCs: Computational effort saved:  99.9828%.
MG BCs: Charge after coarse-graining:           -9.0006537.
MG DL_MG: Calling solver with defect correction order = 8
MG DL_MG: Solver finished
MG Hartree energy from (\int phi*rho dr):              1250.808036
MG Hartree energy from (\int eps (grad phi)^2 dr):     1250.157747
MG Discrepancy due to finite box and discretization:     -0.650289 (  -0.05199%)
MG Correction to account for finite box:                  0.469391
MG Remaining discrepancy, due to discretization:         -0.180898 (  -0.01446%)
     Trial step:       0.703311219616
             Q1:  -11644.661689470406
 Quadratic coef:       0.030793227601
 Linear coef   :      -0.068326869160
           Qmin:  -11644.662058327325
Quadratic minimum step length (  0.780286079530) accepted
    Initial Ne1:    7192.00000553
      Final Ne1:    7192.00000000

=================== Penalty functional idempotency correction ==================
 RMS occupancy error at iteration   1:  0.001598 (step -0.4161 Ne1=   7192.0000)
 RMS occupancy error at iteration   2:  0.000050 (step -0.4984 Ne1=   7192.0000)
 RMS occupancy error at iteration   3:  0.000000 (step -0.5000 Ne1=   7192.0000)
            Final RMS occupancy error   :  0.000000 (Ne1=   7192.0000)
               Final occupancy bounds   : [  0.0000,  1.0000]
================================================================================

    5        -1.164462415583E+04     4.7849E-05     4.3279E-05    -3.7095E-02
MG BCs: +ve charge blocks (gridpoints):     24478 (   16818453).
MG BCs: -ve charge blocks (gridpoints):      8439 (    1082044).
MG BCs:     Elided blocks (gridpoints):    169436 (  173070128).
MG BCs: Computational effort saved:  99.9828%.
MG BCs: Charge after coarse-graining:           -9.0006536.
MG DL_MG: Calling solver with defect correction order = 8
MG DL_MG: Solver finished
MG Hartree energy from (\int phi*rho dr):              1250.930015
MG Hartree energy from (\int eps (grad phi)^2 dr):     1250.279752
MG Discrepancy due to finite box and discretization:     -0.650263 (  -0.05198%)
MG Correction to account for finite box:                  0.469375
MG Remaining discrepancy, due to discretization:         -0.180888 (  -0.01446%)
      ideal mu1:      -0.720444412663
             Q0:  -11644.662916904432
             G0:      -0.079020503326
   RMS gradient:       0.000041850965
MG BCs: +ve charge blocks (gridpoints):     24478 (   16818424).
MG BCs: -ve charge blocks (gridpoints):      8439 (    1082163).
MG BCs:     Elided blocks (gridpoints):    169436 (  173070038).
MG BCs: Computational effort saved:  99.9828%.
MG BCs: Charge after coarse-graining:           -9.0006536.
MG DL_MG: Calling solver with defect correction order = 8
MG DL_MG: Solver finished
MG Hartree energy from (\int phi*rho dr):              1250.622376
MG Hartree energy from (\int eps (grad phi)^2 dr):     1249.972203
MG Discrepancy due to finite box and discretization:     -0.650173 (  -0.05199%)
MG Correction to account for finite box:                  0.469238
MG Remaining discrepancy, due to discretization:         -0.180934 (  -0.01447%)
     Trial step:       0.740799537151
             Q1:  -11644.697358557489
 Quadratic coef:       0.024096699233
 Linear coef   :      -0.058538352289
           Qmin:  -11644.698468855506
Quadratic minimum step length (  0.899815859879) accepted
    Initial Ne1:    7192.00000487
      Final Ne1:    7192.00000000

=================== Penalty functional idempotency correction ==================
 RMS occupancy error at iteration   1:  0.002800 (step -0.3704 Ne1=   7192.0000)
 RMS occupancy error at iteration   2:  0.000129 (step -0.4954 Ne1=   7192.0000)
 RMS occupancy error at iteration   3:  0.000002 (step -0.5000 Ne1=   7192.0000)
            Final RMS occupancy error   :  0.000000 (Ne1=   7192.0000)
               Final occupancy bounds   : [  0.0000,  1.0000]
================================================================================

    6        -1.164466291690E+04     4.1851E-05     3.7853E-05    -3.8761E-02
MG BCs: +ve charge blocks (gridpoints):     24479 (   16818425).
MG BCs: -ve charge blocks (gridpoints):      8439 (    1082195).
MG BCs:     Elided blocks (gridpoints):    169435 (  173070005).
MG BCs: Computational effort saved:  99.9828%.
MG BCs: Charge after coarse-graining:           -9.0006536.
MG DL_MG: Calling solver with defect correction order = 8
MG DL_MG: Solver finished
MG Hartree energy from (\int phi*rho dr):              1250.557969
MG Hartree energy from (\int eps (grad phi)^2 dr):     1249.907816
MG Discrepancy due to finite box and discretization:     -0.650153 (  -0.05199%)
MG Correction to account for finite box:                  0.469210
MG Remaining discrepancy, due to discretization:         -0.180944 (  -0.01447%)
      ideal mu1:      -0.720380249680
             Q0:  -11644.701614993392
             G0:      -0.061093710761
   RMS gradient:       0.000037997144
MG BCs: +ve charge blocks (gridpoints):     24479 (   16816530).
MG BCs: -ve charge blocks (gridpoints):      8443 (    1082725).
MG BCs:     Elided blocks (gridpoints):    169435 (  173071370).
MG BCs: Computational effort saved:  99.9828%.
MG BCs: Charge after coarse-graining:           -9.0006539.
MG DL_MG: Calling solver with defect correction order = 8
MG DL_MG: Solver finished
MG Hartree energy from (\int phi*rho dr):              1249.684350
MG Hartree energy from (\int eps (grad phi)^2 dr):     1249.034178
MG Discrepancy due to finite box and discretization:     -0.650172 (  -0.05203%)
MG Correction to account for finite box:                  0.469192
MG Remaining discrepancy, due to discretization:         -0.180980 (  -0.01448%)
     Trial step:       0.816445449813
             Q1:  -11644.719789223513
 Quadratic coef:       0.031705452042
 Linear coef   :      -0.049879682163
           Qmin:  -11644.721232933938
Quadratic minimum step length (  0.642224553148) accepted
    Initial Ne1:    7191.99999980
      Final Ne1:    7192.00000000

=================== Penalty functional idempotency correction ==================
 RMS occupancy error at iteration   1:  0.000049 (step -0.4962 Ne1=   7192.0000)
            Final RMS occupancy error   :  0.000000 (Ne1=   7192.0000)
               Final occupancy bounds   : [ -0.0000,  1.0000]
================================================================================

    7        -1.164470161499E+04     3.7997E-05     3.4368E-05    -3.8698E-02
MG BCs: +ve charge blocks (gridpoints):     24479 (   16816974).
MG BCs: -ve charge blocks (gridpoints):      8442 (    1082607).
MG BCs:     Elided blocks (gridpoints):    169435 (  173071044).
MG BCs: Computational effort saved:  99.9828%.
MG BCs: Charge after coarse-graining:           -9.0006538.
MG DL_MG: Calling solver with defect correction order = 8
MG DL_MG: Solver finished
MG Hartree energy from (\int phi*rho dr):              1249.869360
MG Hartree energy from (\int eps (grad phi)^2 dr):     1249.219191
MG Discrepancy due to finite box and discretization:     -0.650168 (  -0.05202%)
MG Correction to account for finite box:                  0.469196
MG Remaining discrepancy, due to discretization:         -0.180972 (  -0.01448%)
      ideal mu1:      -0.719674827431
             Q0:  -11644.721240830258
             G0:      -0.055667936353
   RMS gradient:       0.000036262527
MG BCs: +ve charge blocks (gridpoints):     24479 (   16816792).
MG BCs: -ve charge blocks (gridpoints):      8443 (    1082600).
MG BCs:     Elided blocks (gridpoints):    169435 (  173071233).
MG BCs: Computational effort saved:  99.9828%.
MG BCs: Charge after coarse-graining:           -9.0006539.
MG DL_MG: Calling solver with defect correction order = 8
MG DL_MG: Solver finished
MG Hartree energy from (\int phi*rho dr):              1249.686421
[...]
MG Correction to account for finite box:                  0.006424
MG Remaining discrepancy, due to discretization:         -0.180462 (  -0.01493%)
     Trial step:       0.296704909700
             Q1:  -11679.033137363149
 Quadratic coef:       0.000000000733
 Linear coef   :      -0.000000000384
           Qmin:  -11679.033137363549
Quadratic minimum step length (  0.077759758296) accepted
    Initial Ne1:    7192.00000000
      Final Ne1:    7192.00000000

=================== Penalty functional idempotency correction ==================
 RMS occupancy error at iteration   1:  0.000000 (step -0.5000 Ne1=   7192.0000)
            Final RMS occupancy error   :  0.000000 (Ne1=   7192.0000)
               Final occupancy bounds   : [  0.0000,  1.0000]
================================================================================

    7        -1.167903313736E+04     5.5321E-09     5.0036E-09     1.1642E-10

Reusing previously generated solute cavity.
MG BCs: +ve charge blocks (gridpoints):     28642 (   18976446).
MG BCs: -ve charge blocks (gridpoints):      8416 (    1051527).
MG BCs:     Elided blocks (gridpoints):    165272 (  170942652).
MG BCs: Computational effort saved:  99.9806%.
MG BCs: Charge after coarse-graining:           -9.0009383.
MG DL_MG: Calling solver with defect correction order = 8
MG DL_MG: Solver finished
MG Hartree energy from (\int phi*rho dr):              1208.479980
MG Hartree energy from (\int eps (grad phi)^2 dr):     1208.293094
MG Discrepancy due to finite box and discretization:     -0.186886 (  -0.01546%)
MG Correction to account for finite box:                  0.006424
MG Remaining discrepancy, due to discretization:         -0.180462 (  -0.01493%)
      ideal mu1:      -0.481250961795
             Q0:  -11679.033137363498
             G0:      -0.000000002025
   RMS gradient:       0.000000005013

Reusing previously generated solute cavity.
MG BCs: +ve charge blocks (gridpoints):     28642 (   18976447).
MG BCs: -ve charge blocks (gridpoints):      8416 (    1051527).
MG BCs:     Elided blocks (gridpoints):    165272 (  170942651).
MG BCs: Computational effort saved:  99.9806%.
MG BCs: Charge after coarse-graining:           -9.0009383.
MG DL_MG: Calling solver with defect correction order = 8
MG DL_MG: Solver finished
MG Hartree energy from (\int phi*rho dr):              1208.479989
MG Hartree energy from (\int eps (grad phi)^2 dr):     1208.293102
MG Discrepancy due to finite box and discretization:     -0.186886 (  -0.01546%)
MG Correction to account for finite box:                  0.006424
MG Remaining discrepancy, due to discretization:         -0.180462 (  -0.01493%)
     Trial step:       0.151893719632
             Q1:  -11679.033137363149
 Quadratic coef:       0.000000000657
 Linear coef   :      -0.000000000308
           Qmin:  -11679.033137363534
Quadratic minimum step length (  0.035572269095) accepted
    Initial Ne1:    7192.00000000
      Final Ne1:    7192.00000000

=================== Penalty functional idempotency correction ==================
 RMS occupancy error at iteration   1:  0.000000 (step -0.5000 Ne1=   7192.0000)
            Final RMS occupancy error   :  0.000000 (Ne1=   7192.0000)
               Final occupancy bounds   : [  0.0000,  1.0000]
================================================================================

    8        -1.167903313736E+04     5.0129E-09     4.5340E-09     0.0000E+00

Reusing previously generated solute cavity.
MG BCs: +ve charge blocks (gridpoints):     28642 (   18976446).
MG BCs: -ve charge blocks (gridpoints):      8416 (    1051527).
MG BCs:     Elided blocks (gridpoints):    165272 (  170942652).
MG BCs: Computational effort saved:  99.9806%.
MG BCs: Charge after coarse-graining:           -9.0009383.
MG DL_MG: Calling solver with defect correction order = 8
MG DL_MG: Solver finished
MG Hartree energy from (\int phi*rho dr):              1208.479982
MG Hartree energy from (\int eps (grad phi)^2 dr):     1208.293096
MG Discrepancy due to finite box and discretization:     -0.186886 (  -0.01546%)
MG Correction to account for finite box:                  0.006424
MG Remaining discrepancy, due to discretization:         -0.180462 (  -0.01493%)
      ideal mu1:      -0.481250961711
             Q0:  -11679.033137363382
             G0:      -0.000000002491
   RMS gradient:       0.000000004626

Reusing previously generated solute cavity.
MG BCs: +ve charge blocks (gridpoints):     28642 (   18976447).
MG BCs: -ve charge blocks (gridpoints):      8416 (    1051527).
MG BCs:     Elided blocks (gridpoints):    165272 (  170942651).
MG BCs: Computational effort saved:  99.9806%.
MG BCs: Charge after coarse-graining:           -9.0009383.
MG DL_MG: Calling solver with defect correction order = 8
MG DL_MG: Solver finished
MG Hartree energy from (\int phi*rho dr):              1208.479987
MG Hartree energy from (\int eps (grad phi)^2 dr):     1208.293101
MG Discrepancy due to finite box and discretization:     -0.186886 (  -0.01546%)
MG Correction to account for finite box:                  0.006424
MG Remaining discrepancy, due to discretization:         -0.180462 (  -0.01493%)
     Trial step:       0.073506491337
             Q1:  -11679.033137363265
 Quadratic coef:       0.000000000300
 Linear coef   :      -0.000000000183
           Qmin:  -11679.033137363409
Quadratic minimum step length (  0.022424232383) accepted
    Initial Ne1:    7192.00000000
      Final Ne1:    7192.00000000

=================== Penalty functional idempotency correction ==================
 RMS occupancy error at iteration   1:  0.000000 (step -0.5000 Ne1=   7192.0000)
            Final RMS occupancy error   :  0.000000 (Ne1=   7192.0000)
               Final occupancy bounds   : [  0.0000,  1.0000]
================================================================================

    9        -1.167903313736E+04     4.6255E-09     4.1837E-09     1.1642E-10

Reusing previously generated solute cavity.
MG BCs: +ve charge blocks (gridpoints):     28642 (   18976446).
MG BCs: -ve charge blocks (gridpoints):      8416 (    1051527).
MG BCs:     Elided blocks (gridpoints):    165272 (  170942652).
MG BCs: Computational effort saved:  99.9806%.
MG BCs: Charge after coarse-graining:           -9.0009383.
MG DL_MG: Calling solver with defect correction order = 8
MG DL_MG: Solver finished
MG Hartree energy from (\int phi*rho dr):              1208.479984
MG Hartree energy from (\int eps (grad phi)^2 dr):     1208.293097
MG Discrepancy due to finite box and discretization:     -0.186886 (  -0.01546%)
MG Correction to account for finite box:                  0.006424
MG Remaining discrepancy, due to discretization:         -0.180462 (  -0.01493%)
      ideal mu1:      -0.481250961650
   10        -1.167903313736E+04     4.3151E-09     3.9029E-09     1.1642E-10
Finished density kernel iterations (  10)

Writing density kernel to file "host_22141.dkn" ... done


>>> Density kernel optimised for the current NGWF basis:
     ~~~~~~~~~~~~~~~~~~~~~~~~~~~~~~~~~~~~~~~~~~~~~~~~~~~~~~~~~~~
     Total energy                =  -1.16790331373633E+04  Eh
     Estimated bandgap           =   1.0075E-01  Eh
     RMS occupancy error         =   2.4322E-16
     [H,K] commutator            =   3.9029E-09
     Occupancy bounds            = [  0.000:  1.000]
     ~~~~~~~~~~~~~~~~~~~~~~~~~~~~~~~~~~~~~~~~~~~~~~~~~~~~~~~~~~~




################################################################################
########################### NGWF CG iteration  005 #############################
################################################################################
****** Reciprocal space K.E. preconditioning with k_zero =  3.5000 a0^-1 *******

>>> Checking for convergence of NGWFs: 
           ........................................................
           |         *** NGWF optimisation converged ***          |
           | RMS NGWF gradient =    0.00000089503027              |
           | Criteria satisfied:                                  |
           | -> RMS NGWF gradient lower than set threshold.       |
           ========================================================

Reusing previously generated solute cavity.
MG BCs: +ve charge blocks (gridpoints):     28642 (   18976446).
MG BCs: -ve charge blocks (gridpoints):      8416 (    1051527).
MG BCs:     Elided blocks (gridpoints):    165272 (  170942652).
MG BCs: Computational effort saved:  99.9806%.
MG BCs: Charge after coarse-graining:           -9.0009383.
MG DL_MG: Calling solver with defect correction order = 8
MG DL_MG: Solver finished
MG Hartree energy from (\int phi*rho dr):              1208.479984
MG Hartree energy from (\int eps (grad phi)^2 dr):     1208.293097
MG Discrepancy due to finite box and discretization:     -0.186886 (  -0.01546%)
MG Correction to account for finite box:                  0.006424
MG Remaining discrepancy, due to discretization:         -0.180462 (  -0.01493%)

================================================================================
           ---------------- ENERGY COMPONENTS (Eh) ----------------
           | Kinetic                    :     8530.16685761855115 |
           | Pseudo. (local,OBC,corr'd) :    -5051.63042647896236 |
           | Pseudopotential (non-local):     1403.49422231538051 |
           | Hartree (molecular)        :     1208.47998356064682 |
           | Exchange-correlation       :    -3357.73089064778242 |
           | Ion-ion (open BC)          :   830515.07307521509938 |
           | Dispersion Correction      :       -3.29184823970965 |
           | Smeared ion non-self corr. :  -830467.06713066634256 |
           | Smeared ion self corr.     :   -14457.16956389741972 |
           | Solvent cavitation energy  :        2.28616510615468 |
           | Solute-solvent dis-rep en. :       -1.64358124894225 |
           | Total                      :   -11679.03313736333075 |
           --------------------------------------------------------
           ------ LOCAL ENERGY COMPONENTS FROM MATRIX TRACES ------
           | Pseudopotential (local)    :    -5051.63042647897237 |
           | Hartree                    :    -1990.85029705813713 |
           --------------------------------------------------------
           Integrated density           :     7191.99999999898318
           Integrated density tr(KS)    :     7192.00000000000000
================================================================================


                        <<<<< CALCULATION SUMMARY >>>>>                         
|ITER|    RMS GRADIENT   |     TOTAL ENERGY    |   step   |     Epredicted              
   0     0.00003860285567 -11678.97541143291164   0.611455 -11679.02516606974859        
   1     0.00001048479726 -11679.03241773729678   0.100042 -11679.03301826338793        
   2     0.00000458761086 -11679.03311290580314   0.017900 -11679.03313347732910        
   3     0.00000203107799 -11679.03313641075511   0.003562 -11679.03313721322957        
   4     0.00000089503027 -11679.03313736326527  <-- CG                                 

=================== Finished the calculation in solvent ========================
= Adjusting the following parameters: 
= read_denskern: F
= read_tightbox_ngwfs: F
= maxit_pen: 0 (restored to user-specified value)
= restart read filename prefix: ""
= restart write filename prefix: ""
================================================================================

================================================================================
IS: Calculation in solvent completed (NGWFs converged).      

Individual components of total energy in solvent:     hartree           kcal/mol
- Usual non-electrostatic DFT terms:    -12888.15570478112386    -8087439.632493
- Electrostatic fixed charge energy:      1208.47998356064682      758332.622448
- Apolar cavitation energy:                  2.28616510615468        1434.590232
- Apolar dispersion-repulsion energy:       -1.64358124894225       -1031.362783
 -------------------------------------------------------------------------------
- Total energy in solvent:              -11679.03313736326527    -7328703.782595

Components of total energy in solvent:                hartree           kcal/mol
- Usual non-electrostatic DFT terms:    -12888.15570478112386    -8087439.632493
- Electrostatic energy:                   1208.47998356064682      758332.622448
- Apolar energy terms:                       0.64258385721243         403.227450
 -------------------------------------------------------------------------------
- Total energy in solvent:              -11679.03313736326527    -7328703.782595

Calculation of free energy of solvation:              hartree           kcal/mol
- Total energy in solvent:         (+)  -11679.03313736326527    -7328703.782595
- Total energy in vacuum:          (-)  -11675.26403436088003    -7326338.634804
 -------------------------------------------------------------------------------
- Total free energy of solvation:           -3.76910300238524       -2365.147791

Components of polar term in f.e. of solvation:        hartree           kcal/mol
- Electrostatic:                            -4.62666295899999       -2903.274777
- Change in nonelectrostatic DFT terms:      0.21497609940343         134.899536
 -------------------------------------------------------------------------------
- Polar term in f.e. of solvation:          -4.41168685959656       -2768.375241

Components of free energy of solvation:               hartree           kcal/mol
- Polar term in f.e. of solvation: (+)      -4.41168685959656       -2768.375241
- Apolar (cavitation, dis., rep.): (+)       0.64258385721243         403.227450
 -------------------------------------------------------------------------------
- Total free energy of solvation:           -3.76910300238413       -2365.147791
================================================================================


------------------------------ TIMING INFORMATION ------------------------------
AVERAGE TIME:   33075.225s on     60 node(s)                                    
TOTAL TIME:     33075.225s on     60 node(s)                                    
================= AVERAGE TIMINGS FROM ALL NODES (CUMULATIVE) ==================
|| TAG                                    #calls    cpu time   %total  Gflops ||
|| work_imbalance                       :     1        0.00s   0.000%  ------ ||
|| sparse_set_to_garbage                :   194        0.03s   0.000%  ------ ||
|| parallel_prepare_fd_halos_request    :  2073        0.04s   0.000%  ------ ||
|| ngwfs_initialise_from_radial         :     1        0.11s   0.000%  ------ ||
|| basis_extract_function_from_box      :  3794        0.17s   0.001%  ------ ||
|| parallel_prepare_fd_halos_satisfy    :  2073        0.73s   0.002%  ------ ||
|| parallel_prepare_fd_halos_alloc      :  2073        1.78s   0.005%  ------ ||
|| openbc_locps_radial                  :     1        2.97s   0.009%  ------ ||
|| pseudopotentials_nonlocal_mat        :    33        2.99s   0.009%  ------ ||
|| density_init_guess_real              :     1        5.01s   0.015%  ------ ||
|| restart_kernel_read                  :     1        5.78s   0.017%  ------ ||
|| restart_ngwfs_tightbox_input         :     1        7.88s   0.024%  ------ ||
|| parallel_prepare_fd_halos_comms_imbal:  2073        9.50s   0.029%  ------ ||
|| parallel_prepare_fd_halos_clear      :  2073       21.17s   0.064%  ------ ||
|| sparse_init                          :     2       22.09s   0.067%  ------ ||
|| parallel_prepare_fd_halos_comms_wait :  2073       29.29s   0.089%  ------ ||
|| projectors_func_ovlp_box             :    33       30.35s   0.092%  ------ ||
|| function_ops_brappd_ketppd           :    33       33.49s   0.101%  ------ ||
|| projectors_init_fftbox_recip         :   152       37.32s   0.113%  ------ ||
|| palser_mano_kernel_optimise          :     1       39.96s   0.121%  ------ ||
|| basis_copy_function_to_box           : 61905       48.05s   0.145%  ------ ||
|| pseudo_make_structure_factor         :     2       51.06s   0.154%  ------ ||
|| ngwf_gradient_coeffs                 :    17       55.00s   0.166%  ------ ||
|| fourier_apply_box_pair               :  5481       57.49s   0.174% 588.009 ||
|| parallel_prepare_fd_halos            :  2073       62.53s   0.189%  ------ ||
|| sparse_embed_hotelling_invert_embed  :    33       87.02s   0.263%  ------ ||
|| restart_kernel_write                 :    18      114.35s   0.346%  ------ ||
|| finite_difference_derivative         :  2073      136.14s   0.412%  ------ ||
|| integrals_kinetic                    :    33      166.56s   0.504%  ------ ||
|| basis_dot_function_with_box          : 9.498M     190.71s   0.577%  ------ ||
|| projectors_gradient_batch            :   119      191.01s   0.577%  ------ ||
|| fourier_apply_cell_backward          :  1383      205.17s   0.620%  90.521 ||
|| sparse_trace                         :  5689      234.81s   0.710%  ------ ||
|| openbc_locps_on_grid                 :     2      260.46s   0.787%  ------ ||
|| fourier_apply_cell_forward           :  1381      263.85s   0.798%  70.288 ||
|| kernel_purify                        :   527      334.40s   1.011%  ------ ||
|| basis_add_function_to_box            : 19.83M     451.23s   1.364%  ------ ||
|| hamiltonian_energy_components        :     4      491.45s   1.486%  ------ ||
|| lnv_gradient_norm                    :   170      491.63s   1.486%  ------ ||
|| xc_energy_potential                  :   345      541.02s   1.636%  ------ ||
|| kernel_fix                           :   170      585.04s   1.769%  ------ ||
|| integrals_locpot_mat_els_batch       :  1253      820.08s   2.479%  ------ ||
|| ngwf_gradient_build_batch            :   119      833.19s   2.519%  ------ ||
|| restart_ngwfs_tightbox_output        :    15     1120.59s   3.388%  ------ ||
|| ngwf_gradient_batch                  :   119     1141.21s   3.450%  ------ ||
|| density_batch_row_sums               :  2408     1232.75s   3.727%  ------ ||
|| ngwf_gradient_lnv                    :    17     1285.72s   3.887%  ------ ||
|| cell_grid_deposit_box_real           : 39612     1454.59s   4.398%  ------ ||
|| cell_grid_extract_box_real           : 43278     1741.91s   5.267%  ------ ||
|| sparse_product                       :  7107     2050.96s   6.201%  ------ ||
|| density_fftbox_deposit_to_cell       : 37496     2081.27s   6.293%  ------ ||
|| potential_apply_to_ngwf_batch        :  1253     3966.88s  11.994%  ------ ||
|| density_fftbox_interpolate_multiply  : 37496     4216.83s  12.749%  ------ ||
|| integrals_locpot_dbl_grid            :   179     4811.57s  14.547%  ------ ||
|| multigrid_prepare_bound_cond         :   345     4917.64s  14.868%  ------ ||
|| fourier_apply_box                    : 129.0k    5153.96s  15.583% 747.612 ||
|| density_batch_interp_deposit         :  2408     7227.84s  21.853%  ------ ||
|| dl_mg_solver_calls                   :   345     7461.76s  22.560%  ------ ||
|| density_on_dbl_grid                  :   344     8815.12s  26.652%  ------ ||
|| multigrid_calculate_hartree          :   345    12570.26s  38.005%  ------ ||
|| hamiltonian_lhxc_calculate           :   340    21934.71s  66.318%  ------ ||
|| lnv_denskernel_optimise_cg           :    17    27787.53s  84.013%  ------ ||
|| ngwf_cg_optimise                     :     2    32158.95s  97.230%  ------ ||
|| total_time                           :     1    33075.22s 100.000%  ------ ||
================================================================================
Overhead of generating timer report: 
- 0 ms averaging over threads,
- 15 ms ensuring consistency across MPI ranks,
- 0 ms printing in order.

Job completed: 25-04-2020 17:32 (+0100)

Application 40360920 resources: utime ~6929081s, stime ~240772s, Rss ~3819080, inblocks ~372258844, outblocks ~71810194
