 +---------------------------------------------------------------+
 |                                                               |
 |        ####### #     # ####### ####### ####### ######         |
 |        #     # ##    # #          #    #       #     #        |
 |        #     # # #   # #          #    #       #     #        |
 |        #     # #  #  # #####      #    #####   ######         |
 |        #     # #   # # #          #    #       #              |
 |        #     # #    ## #          #    #       #              |
 |        ####### #     # #######    #    ####### #              |
 |                                                               |
 |        Linear-Scaling Ab Initio Total Energy Program          |
 |                                                               |
 |          Release for academic collaborators of ODG            |
 |                                             Version 5.3.2.6.  |
 |                                                               |
 +---------------------------------------------------------------+
 |                                                               |
 |  Authors:                                                     |
 |  Jacek Dziedzic, Peter D. Haynes, Nicholas D. M. Hine,        |
 |  Arash. A. Mostofi, Mike C. Payne and Chris-Kriton Skylaris   |
 |                                                               |
 |  Contributors:                                                |
 |  J. Aarons, L. Andrinopoulos, P. W. Avraam, R. A. Bell,       |
 |  A. Bhandari, G. A. Bramley, R. J. Charlton, S. J. Clark,     |
 |  R. J. Clements, G. C. Constantinescu, F. Corsetti,           |
 |  N. Corsini, O. Dieguez, S. M. M. Dubois, K. K. B. Duff,      |
 |  J. M. Escartin, A. Greco, H. Helal, Q. O. Hill, L. P. Lee,   |
 |  J.-H. Li, E. B. Linscott, G. Moynihan, D. D. O`Regan,        |
 |  O. K. Okan, M. J. S. Phipps, C. J. Pickard,                  |
 |  J. C. A. Prentice, M. I. J. Probert, L. E. Ratcliff,         |
 |  M. Robinson, A. Ruiz Serrano, J. S. Spencer, E. W. Tait,     |
 |  G. Teobaldi, D. Turban, V. Vitale, K. A. Wilkinson,          |
 |  C. Weber, J. C. Womack, N. Yeung and T. J. Zuehlsdorff       |
 |                                                               |
 |                                   Copyright (c) 2004-2019     |
 |                                                               |
 |  Please cite:                                                 |
 |  "Introducing ONETEP: Linear-scaling density functional       |
 |   simulations on parallel computers".                         |
 |   C.-K. Skylaris, P. D. Haynes, A. A. Mostofi, M. C. Payne.   |
 |   J. Chem. Phys. 122 084119 (2005).                           |
 |                                                               |
 |          in all publications arising from your use of ONETEP. |
 |                                                               |
 +---------------------------------------------------------------+
 |                                                               |
 |   ONETEP is based on developments described in the following  |
 |   publications:                                               |
 |                                                               |
 |  "Nonorthogonal generalized Wannier function pseudopotential  |
 |   plane-wave method".                                         |
 |   C.-K. Skylaris, A. A. Mostofi, P. D. Haynes, O. Dieguez,    |
 |   M. C. Payne.                                                |
 |   Phys. Rev. B 66 035119 (2002).                              |
 |                                                               |
 |  "Preconditioned iterative minimization for linear-scaling    |
 |   electronic structure calculations".                         |
 |   A. A. Mostofi, P. D. Haynes, C.-K. Skylaris, M. C. Payne.   |
 |   J. Chem. Phys. 119(17), pp.8842-8848 (2003).                |
 |                                                               |
 |  "Total-energy calculations on a real space grid with         |
 |   localized functions and a plane-wave basis".                |
 |   A. A. Mostofi, C.-K. Skylaris, P. D. Haynes, M. C. Payne.   |
 |   Comput. Phys. Commun. 147, pp.788-802 (2002).               |
 |                                                               |
 |  "Accurate kinetic energy evaluation in electronic structure  |
 |   calculations with localized functions on real space grids"  |
 |   C.-K. Skylaris, A. A. Mostofi, P. D. Haynes, C. J. Pickard, |
 |   M. C. Payne.                                                |
 |   Comput. Phys. Commun. 140, pp.315-322 (2001).               |
 |                                                               |
 |  "Accurate ionic forces and geometry optimization in linear-  |
 |   scaling density-functional theory with local orbitals"      |
 |   N. D. M. Hine, M. Robinson, P. D. Haynes, C.-K. Skylaris,   |
 |   M. C. Payne, and A. A. Mostofi.                             |
 |   Phys. Rev. B 83 195102 (2011).                              |
 |                                                               |
 +---------------------------------------------------------------+

Job started: 04-02-2020 09:48 (-0000)
 
Reading parameters from file "host_14161.dat" ...... done

If your calculation crashes here, before "Checking processes and threads..."
is displayed, then your stack size is insufficient.
If so, use "ulimit -s unlimited" at runtime.
You can disable this check with "check_stack_size F".

Checking processes and threads...
   Determining the default number of threads...
      No default threads set at compilation time: defaulting to 1.
      OpenMP library call suggests 4 threads.
      Hybrid MPI-OpenMP compilation detected.
      Number of MPI processes > 1.
      OMP_NUM_THREADS environment variable present and
      its value matches the one obtained from the OpenMP library call.
      Using this value as default.
      Default threads: 4
      Default applies to threads_max and threads_num_fftboxes.
      Settings in the input file override this default.
   ... done

   Running with 60 MPI processes.
   There are 6 MPI processes running on the same node as the root process.
   Each MPI process is using: 
               1 threads for simulation cell FFTs.
               1 threads for parallel FFT box operations.
               4 threads for loops over batched FFT box operations.
               4 threads in other parallel regions.
... done

Basic input checks...... done

Reading geometry and species blocks from file "host_14161.dat" ...
  <species_atomic_set> block not found: NGWF initialisation set to SOLVE
IS: Dielectric excluded regions:
    - NONE.
    
  Number of PPD points along a3 set to 1.  This is 
  the default value, it may have been provided also in the input file.
... done
 Writing xyz coordinates to file "host_14161.xyz" ... done


--------------------------------------------------------------------------------
---------------------------------- INPUT FILE ----------------------------------
--------------------------------------------------------------------------------

cutoff_energy       : 800 eV                                                    
xc_functional PBE                                                               
task SINGLEPOINT                                                                
write_xyz true                                                                  
output_detail VERBOSE                                                           
ngwf_threshold_orig : 0.000002                                                  
kernel_cutoff       : 1000                                                      
k_zero              : 3.5                                                       
elec_cg_max 0                                                                   
occ_mix 1.0                                                                     
dispersion 1                                                                    
maxit_ngwf_cg 40                                                                
minit_lnv 10                                                                    
maxit_lnv 10                                                                    
write_denskern T                                                                
write_tightbox_ngwfs T                                                          
charge 9                                                                        
is_implicit_solvent T                                                           
is_auto_solvation T                                                             
is_include_apolar T                                                             
is_smeared_ion_rep T                                                            
is_solvent_surf_tension 4.7624E-5 Ha/bohr**2                                    
is_apolar_scaling_factor 0.281075                                               
is_solvation_beta 1.3                                                           
is_density_threshold 0.00035                                                    
is_bulk_permittivity 78.54                                                      
is_dielectric_model fix_initial                                                 
is_smeared_ion_width 0.8                                                        
mg_defco_fd_order 8                                                             
is_bc_coarseness 10                                                             
is_bc_surface_coarseness 1                                                      
fine_grid_scale 2.0                                                             
%block species                                                                  
N   N   7 4 8.0                                                                 
H   H   1 1 8.0                                                                 
C   C   6 4 8.0                                                                 
S   S  16 9 8.0                                                                 
O   O   8 4 8.0                                                                 
%endblock species                                                               
%block species_pot                                                              
N   N_00.recpot                                                                 
H   H_04.recpot                                                                 
C   C_01.recpot                                                                 
S   S_00.recpot                                                                 
O   O_02.recpot                                                                 
%endblock species_pot                                                           
%block lattice_cart                                                             
135.996   0.000   0.000                                                         
0.000 142.663   0.000                                                           
0.000   0.000   160.158                                                         
%endblock lattice_cart                                                          
%block positions_abs                                                            
     Hash =  -000005488159376562256149
%endblock positions_abs                                                         

--------------------------------------------------------------------------------
-------------------------------- END INPUT FILE --------------------------------
--------------------------------------------------------------------------------


 
 ESDF WARNING(1): "kernelcutoff" (esdf_physical) has no units. Assume "bohr".
 ESDF WARNING(2): "kzero" (esdf_physical) has no units. Assume "1/bohr".
 ESDF WARNING(3
 ): "issmearedionwidth" (esdf_physical) has no units. Assume "bohr".
<<<<<<<<<<<<<<<<<<<<<<<<<<<<<<<<< Full system >>>>>>>>>>>>>>>>>>>>>>>>>>>>>>>>>>
<<<<<<<<<<<<<<<<<<<<<<<<< Pseudopotential information >>>>>>>>>>>>>>>>>>>>>>>>>>
File: N_00.recpot [ 2001 points up to Gmax=  52.9 (1/bohr)]
  Atomic number:  7;  ionic charge:  5.000000
    Shell 1: l = 0; rc = 1.48 bohr
File: H_04.recpot [ 2001 points up to Gmax=  52.9 (1/bohr)]
  Atomic number:  1;  ionic charge:  1.000000
    Local potential
File: C_01.recpot [ 2001 points up to Gmax=  52.9 (1/bohr)]
  Atomic number:  6;  ionic charge:  4.000000
    Shell 1: l = 0; rc = 1.48 bohr
File: S_00.recpot [ 2001 points up to Gmax=  52.9 (1/bohr)]
  Atomic number: 16;  ionic charge:  6.000000
    Shell 1: l = 0; rc = 1.90 bohr
    Shell 2: l = 2; rc = 1.84 bohr
File: O_02.recpot [ 2001 points up to Gmax=  52.9 (1/bohr)]
  Atomic number:  8;  ionic charge:  6.000000
    Shell 1: l = 0; rc = 1.31 bohr
<<<<<<<<<<<<<<<<<<<<<<<<<<<<<<<<<<<<<<<<>>>>>>>>>>>>>>>>>>>>>>>>>>>>>>>>>>>>>>>>

-------------------------- Atom counting information ---------------------------
Symbol    Natoms    Nngwfs    Nprojs
  N        236       944       236
  H       1311      1311         0
  C        810      3240       810
  S          6        54        36
  O        239       956       239
.......   ......    ......    ......
Totals:   2602      6505      1321
--------------------------------------------------------------------------------

=============================== PSINC grid sizes ===============================
                      Simulation cell:  270 x 286 x 315
                              FFT-box:   99 x 105 x  99
                                  PPD:    5 x  11 x   1
Grid space d1=  0.503688888889a0 (KE cutoff=  29.94189Eh = 814.76038eV)
Grid space d2=  0.498821678322a0 (KE cutoff=  30.52906Eh = 830.73786eV)
Grid space d3=  0.508438095238a0 (KE cutoff=  29.38514Eh = 799.61048eV)
================================================================================

********************* Fourier parallelisation information **********************
       Coarse grid (whole simulation cell) dimensions:    270   286   315
          Real-space ('12') slabs/node (min max mean):      5     6     5
         Recip-space ('23') slabs/node (min max mean):      2     3     2
********************************************************************************

********************* Fourier parallelisation information **********************
       Double grid (whole simulation cell) dimensions:    540   572   630
          Real-space ('12') slabs/node (min max mean):     10    11    10
         Recip-space ('23') slabs/node (min max mean):      4     5     4
********************************************************************************
ONETEP fine grid is 540 x 572 x 630 gridpoints, 135.9960 x 142.6630 x 160.1580 bohr.
FD multigrid is     537 x 569 x 625 gridpoints, 135.2405 x 141.9148 x 158.8869 bohr.


Calculating local pseudopotential in open BC on a radial grid ...
Discrepancy between calculated realspace psloc and -Z/x on [5a0,253.965a0]:
max |rel. diff| # avg |rel. diff| #  avg rel. diff #  f # pseudopotential file
 0.000259282084    0.000004141996   0.000000074978   54  'N_00.recpot'
 0.000405386992    0.000016970607  -0.000000075982   54  'H_04.recpot'
 0.000371694516    0.000017434762   0.000000149329   54  'C_01.recpot'
 0.000461642895    0.000020341726   0.000000491514   54  'S_00.recpot'
 0.000682525123    0.000027368244   0.000000159803   54  'O_02.recpot'
... done

Atom SCF Calculation for N  : Z (AE atom) =   7 : Z (PS atom) =   5
Config String:
Orbitals (num,occ):  2     2.00 3.00
Orbitals   (num,l):  2        0    1
Real-space Grid (nr,dr,rmax): 1203    0.0066555740    8.0000000000
Spherical Bessel Basis (nsws,lmax,cutoff):   47    1  176.3951722778
Confining potential (l,width,scale):  0    3.0000000000  100.0000000000
Confining potential (l,width,scale):  1    3.0000000000  100.0000000000
  1         -4.7312375307   -3.4155304497    7.0523828109   -1.9351020946
  2         -9.7309464766   -2.0532547791    8.2966052865   -2.2494486027
  3         -9.6627394379   -2.1124926340    8.2327997121   -2.2369778124
  4         -9.6814993499   -2.1215521045    8.2229805960   -2.2365178421
  5         -9.6843326483   -2.1250939529    8.2191374534   -2.2362718126
  6         -9.6859628709   -2.1267894855    8.2172963573   -2.2362066344
  7         -9.6867347035   -2.1276425665    8.2163697352   -2.2361903369
  8         -9.6870802100   -2.1280764625    8.2158983890   -2.2361891460
  9         -9.6872290423   -2.1282977424    8.2156580222   -2.2361920435
 10         -9.6872901988   -2.1284107021    8.2155353368   -2.2361953393
 11         -9.6873135296   -2.1284684031    8.2154726809   -2.2361979819
 12         -9.6873212476   -2.1284978948    8.2154406648   -2.2361998431
 13         -9.6873229586   -2.1285129774    8.2154242957   -2.2362010676
 14         -9.6873226456   -2.1285206957    8.2154159216   -2.2362018403
 15         -9.6873218534   -2.1285246479    8.2154116349   -2.2362023142
 16         -9.6873212599   -2.1285262679    8.2154098784   -2.2362025420
 17         -9.6873207834   -2.1285272564    8.2154088068   -2.2362026955
 18         -9.6873204210   -2.1285278596    8.2154081529   -2.2362027982
 19         -9.6873201550   -2.1285282280    8.2154077538   -2.2362028667
 20         -9.6873199645   -2.1285284529    8.2154075102   -2.2362029121
 21         -9.6873198305   -2.1285285903    8.2154073614   -2.2362029421
 22         -9.6873197377   -2.1285286742    8.2154072705   -2.2362029618
Atom SCF converged after  22 iterations to a total energy of     -9.68731974

Atom SCF Calculation for H  : Z (AE atom) =   1 : Z (PS atom) =   1
Config String:
Orbitals (num,occ):  1     1.00
Orbitals   (num,l):  1        0
Real-space Grid (nr,dr,rmax): 1203    0.0066555740    8.0000000000
Spherical Bessel Basis (nsws,lmax,cutoff):   47    0  176.3951722778
Confining potential (l,width,scale):  0    3.0000000000  100.0000000000
  1         -0.3194257691   -0.2393854593    0.2820953124   -0.2424203209
  2         -0.3951823392   -0.2377116493    0.2886404059   -0.2475147891
  3         -0.4317044583   -0.2352244387    0.2921333887   -0.2514046172
  4         -0.4470703708   -0.2341892222    0.2934391879   -0.2531009782
  5         -0.4532132900   -0.2338556667    0.2938388426   -0.2537313520
  6         -0.4556579251   -0.2337612552    0.2939448584   -0.2539550462
  7         -0.4566418315   -0.2337377355    0.2939680120   -0.2540342273
  8         -0.4570437922   -0.2337331116    0.2939708287   -0.2540627372
  9         -0.4572102946   -0.2337328328    0.2939698291   -0.2540732650
 10         -0.4572800424   -0.2337332404    0.2939687193   -0.2540772588
 11         -0.4573095100   -0.2337335791    0.2939680317   -0.2540788122
 12         -0.4573220379   -0.2337337762    0.2939676699   -0.2540794294
 13         -0.4573273880   -0.2337338775    0.2939674931   -0.2540796787
 14         -0.4573296803   -0.2337339266    0.2939674099   -0.2540797808
 15         -0.4573306647   -0.2337339495    0.2939673718   -0.2540798230
 16         -0.4573310882   -0.2337339601    0.2939673545   -0.2540798406
 17         -0.4573312706   -0.2337339649    0.2939673467   -0.2540798479
 18         -0.4573313493   -0.2337339670    0.2939673433   -0.2540798510
Atom SCF converged after  18 iterations to a total energy of     -0.45733135

Atom SCF Calculation for C  : Z (AE atom) =   6 : Z (PS atom) =   4
Config String:
Orbitals (num,occ):  2     2.00 2.00
Orbitals   (num,l):  2        0    1
Real-space Grid (nr,dr,rmax): 1203    0.0066555740    8.0000000000
Spherical Bessel Basis (nsws,lmax,cutoff):   47    1  176.3951722778
Confining potential (l,width,scale):  0    3.0000000000  100.0000000000
Confining potential (l,width,scale):  1    3.0000000000  100.0000000000
  1         -5.2976922011   -1.3069684169    4.5135249990   -1.4493313817
  2         -5.3721716256   -1.3429755895    4.4750154450   -1.4361613026
  3         -5.3809959565   -1.3617365618    4.4541655428   -1.4305930207
  4         -5.3918938866   -1.3667928461    4.4484735100   -1.4294652294
  5         -5.3956096428   -1.3688539142    4.4461376126   -1.4290734646
  6         -5.3968271862   -1.3696852393    4.4451910874   -1.4289366866
  7         -5.3972028401   -1.3700178062    4.4448112275   -1.4288900460
  8         -5.3973067903   -1.3701500158    4.4446598370   -1.4288749220
  9         -5.3973286940   -1.3702023868    4.4445997329   -1.4288704293
 10         -5.3973289850   -1.3702230869    4.4445759233   -1.4288693188
 11         -5.3973254264   -1.3702312560    4.4445665049   -1.4288691775
 12         -5.3973224003   -1.3702344755    4.4445627836   -1.4288692549
 13         -5.3973208708   -1.3702354890    4.4445616088   -1.4288693270
 14         -5.3973198783   -1.3702360102    4.4445610034   -1.4288693814
 15         -5.3973192535   -1.3702362780    4.4445606917   -1.4288694190
 16         -5.3973188684   -1.3702364155    4.4445605313   -1.4288694437
 17         -5.3973186349   -1.3702364860    4.4445604489   -1.4288694595
 18         -5.3973184951   -1.3702365221    4.4445604065   -1.4288694693
 19         -5.3973184122   -1.3702365405    4.4445603848   -1.4288694753
Atom SCF converged after  19 iterations to a total energy of     -5.39731841

Atom SCF Calculation for S  : Z (AE atom) =  16 : Z (PS atom) =   6
Config String:
Orbitals (num,occ):  3     2.00 4.00 0.00
Orbitals   (num,l):  3        0    1    2
Real-space Grid (nr,dr,rmax): 1203    0.0066555740    8.0000000000
Spherical Bessel Basis (nsws,lmax,cutoff):   47    2  176.3951722778
Confining potential (l,width,scale):  0    3.0000000000  100.0000000000
Confining potential (l,width,scale):  1    3.0000000000  100.0000000000
Confining potential (l,width,scale):  2    3.0000000000  100.0000000000
  1        -12.4735062396   -1.0328741412   10.1554312477   -2.4512393157
  2         -9.9458301913   -2.4607392455    8.3041325857   -2.0306994528
  3        -10.1450417646   -2.2931184565    8.4831893826   -2.0812538287
  4        -10.1528335592   -2.2733105793    8.5050388867   -2.0896035179
  5        -10.1571940363   -2.2633716629    8.5160794258   -2.0939370707
  6        -10.1594380571   -2.2584938667    8.5215163935   -2.0961289008
  7        -10.1605856507   -2.2561081821    8.5241804044   -2.0972291378
  8        -10.1611799191   -2.2549395235    8.5254868240   -2.0977806248
  9        -10.1614918752   -2.2543658586    8.5261285885   -2.0980571586
 10        -10.1616572884   -2.2540839121    8.5264441898   -2.0981959233
 11        -10.1617455602   -2.2539453058    8.5265994231   -2.0982656006
 12        -10.1617928447   -2.2538772062    8.5266757320   -2.0983006047
 13        -10.1618182292   -2.2538437891    8.5267131983   -2.0983181961
 14        -10.1618318741   -2.2538274201    8.5267315620   -2.0983270391
 15        -10.1618392144   -2.2538194197    8.5267405433   -2.0983314852
 16        -10.1618431651   -2.2538155200    8.5267449245   -2.0983337210
 17        -10.1618452923   -2.2538136252    8.5267470551   -2.0983348455
 18        -10.1618464380   -2.2538127080    8.5267480875   -2.0983354110
 19        -10.1618470552   -2.2538122659    8.5267485856   -2.0983356955
 20        -10.1618473878   -2.2538120540    8.5267488248   -2.0983358386
 21        -10.1618475670   -2.2538119530    8.5267489389   -2.0983359106
 22        -10.1618476637   -2.2538119053    8.5267489929   -2.0983359468
Atom SCF converged after  22 iterations to a total energy of    -10.16184766

Atom SCF Calculation for O  : Z (AE atom) =   8 : Z (PS atom) =   6
Config String:
Orbitals (num,occ):  2     2.00 4.00
Orbitals   (num,l):  2        0    1
Real-space Grid (nr,dr,rmax): 1203    0.0066555740    8.0000000000
Spherical Bessel Basis (nsws,lmax,cutoff):   47    1  176.3951722778
Confining potential (l,width,scale):  0    3.0000000000  100.0000000000
Confining potential (l,width,scale):  1    3.0000000000  100.0000000000
  1         -1.8735052164   -7.5539365035   10.1554312477   -2.4512393157
  2        -16.0318313751   -3.1285771268   13.6395848164   -3.2358799643
  3        -15.9524020423   -3.0762819706   13.6967272503   -3.2536856837
  4        -15.8521515939   -3.0781493909   13.6951909330   -3.2561700440
  5        -15.8357139793   -3.0748501933   13.6988803334   -3.2580493133
  6        -15.8246052853   -3.0740779781   13.6997881576   -3.2588327446
  7        -15.8189019501   -3.0737449687   13.7001869911   -3.2592378801
  8        -15.8159785510   -3.0736026016   13.7003615168   -3.2594475790
  9        -15.8144776168   -3.0735437994   13.7004360379   -3.2595560735
 10        -15.8137058024   -3.0735207882   13.7004667348   -3.2596122456
 11        -15.8133083127   -3.0735125946   13.7004786868   -3.2596413656
 12        -15.8131032938   -3.0735102195   13.7004828997   -3.2596564858
 13        -15.8129973902   -3.0735099286   13.7004840891   -3.2596643505
 14        -15.8129426040   -3.0735102506   13.7004842061   -3.2596684489
 15        -15.8129142203   -3.0735106556   13.7004840157   -3.2596705887
 16        -15.8128994940   -3.0735109855   13.7004837906   -3.2596717080
 17        -15.8128918425   -3.0735112169   13.7004836103   -3.2596722946
 18        -15.8128878614   -3.0735113674   13.7004834848   -3.2596726026
 19        -15.8128857871   -3.0735114608   13.7004834035   -3.2596727646
 20        -15.8128847048   -3.0735115170   13.7004833533   -3.2596728500
 21        -15.8128841394   -3.0735115501   13.7004833231   -3.2596728951
 22        -15.8128838436   -3.0735115693   13.7004833054   -3.2596729190
 23        -15.8128836887   -3.0735115802   13.7004832951   -3.2596729316
 24        -15.8128836074   -3.0735115864   13.7004832893   -3.2596729383
Atom SCF converged after  24 iterations to a total energy of    -15.81288361

========================== Calculation in vacuum ==============================
= Adjusting the following parameters: 
= is_implicit_solvent: F
= is_include_apolar: F
= write_denskern: T
= write_tightbox_ngwfs: T
= restart read filename prefix: ""
= restart write filename prefix: "vacuum_"
===============================================================================

Determining parallel strategy ...
... using space-filling curve
... NGWF load balancing: max    109;  min    108;  average    108
... Projector load balancing: max     25;  min     21;  average     22
... done
Calculating direct Ion-Ion energy ...
Ion-Ion Energy        :    829393.56907223118469
======================= Empirical dispersion information =======================
Model : Elstner
Dispersion Correction Energy: -0.32502329E+01 Hartree
================================================================================
Basis initialisation ...... NGWF spheres initialised
... Projector spheres initialised
... NGWF tight boxes initialised
... Tight-boxes gathered
... NGWF basis size (local,global):    1032796  62196339
... Nonlocal pseudopotential projector initialisation
... done

========================== Sparse matrix information ===========================
                        Overlap matrix filling:   6.78%
                        Density kernel filling: 100.00%
              NGWF-Proj overlap matrix filling:   1.78%
                    Hamiltonian matrix filling:   7.66%
                  NGWF diagonal matrix filling:   0.05%
                             KS matrix filling: 100.00% 
                           KSKS matrix filling: 100.00% 
================================================================================

Sparse matrix initialisation ... done

Generating smeared ion density ... done
Smeared ion self correction:     -14457.169564
Smeared ion non-self correction: -829345.533518
NGWF initialisation ...... done
============ Calculation of NGWF S^-1 using Hotelling algorithm ================ 
         Iteration  |  Frobenius norm and Maximum abs value    (of I-S*S_n^-1)   
               1       0.78522551E+02     0.98281719E+00
               2       0.76701724E+02     0.96606786E+00
               3       0.73742208E+02     0.93380146E+00
               4       0.69515701E+02     0.87402764E+00
               5       0.64230222E+02     0.77199173E+00
               6       0.58272740E+02     0.70526611E+00
               7       0.52261887E+02     0.67054418E+00
               8       0.46706602E+02     0.64464782E+00
               9       0.40682327E+02     0.60396370E+00
              10       0.32491786E+02     0.53488166E+00
              11       0.21964127E+02     0.42920284E+00
              12       0.11322218E+02     0.28887810E+00
              13       0.37868214E+01     0.13242771E+00
              14       0.61569602E+00     0.31167471E-01
              15       0.30611044E-01     0.26813091E-02
              16       0.17044630E-03     0.21651396E-04
              17       0.86367851E-08     0.14277459E-08
              18       0.96374206E-13     0.51070259E-14
================================================================================
Calculating local pseudopotential in open BC on the fine real space grid ...
... done

MG BCs: +ve charge blocks (gridpoints):     20449 (   16122858).
MG BCs: -ve charge blocks (gridpoints):      8033 (    1083816).
MG BCs:     Elided blocks (gridpoints):    173465 (  173763951).
MG BCs: Computational effort saved:  99.9851%.
MG BCs: Charge after coarse-graining:           -9.0002241.
MG DL_MG: Calling solver with defect correction order = 8
MG DL_MG: Solver finished
MG Hartree energy from (\int phi*rho dr):              1462.565773
MG Hartree energy from (\int eps (grad phi)^2 dr):     1461.948532
MG Discrepancy due to finite box and discretization:     -0.617241 (  -0.04220%)
MG Correction to account for finite box:                  0.466629
MG Remaining discrepancy, due to discretization:         -0.150612 (  -0.01030%)
Up spin density kernel initialisation ... 
======= Optimisation of K by Palser-Manolopoulos canonical purification ======== 
         Iteration  |  Band structure energy |    c_n   
               1       -2567.50178571748802    0.5287735
               2       -2742.50248132897468    0.5182893
               3       -2924.40246377969152    0.5152000
               4       -3079.47744226311852    0.5269556
               5       -3177.61950776563026    0.5607299
               6       -3219.89633202501273    0.6062963
               7       -3234.23596915853614    0.6201319
               8       -3240.30625759571831    0.6167921
               9       -3243.26967387012701    0.6305211
              10       -3244.49351756740089    0.6641711
              11       -3244.94329489076608    0.6914587
              12       -3245.13005047641354    0.6883121
              13       -3245.22979869520987    0.6471744
              14       -3245.29430332430138    0.5688860
              15       -3245.33604709823840    0.4578299
              16       -3245.35116659249070    0.3536749
              17       -3245.35235352077507    0.3211644
              18       -3245.35277766474155    0.3416882
              19       -3245.35303638472669    0.3884946
              20       -3245.35326133028548    0.4414691
              21       -3245.35342780067231    0.4830776
              22       -3245.35353335713216    0.4985621
              23       -3245.35361886257169    0.4999896
              24       -3245.35369416380536    0.5000000
              25       -3245.35373366207386    0.5000000
              26       -3245.35374080399788    0.5000000
              27       -3245.35374098893863    0.5000000
Termination criterion satisfied: band energy change below threshold.
Final occupancy bounds: [    0.00000000000112:    0.99999999995565]
Closest occupancy to 0.5:     0.99999999996543
================================================================================
... done

Writing density kernel to file "host_14161.vacuum_dkn" ... done

>>> Optimising kernel for current NGWFs:
   Initial electron number for spin 1:    7192.00000000
     Final electron number for spin 1:    7192.00000000

=================== Penalty functional idempotency correction ==================
 RMS occupancy error at iteration   1:  0.000000 (step -0.5000 Ne1=   7192.0000)
            Final RMS occupancy error   :  0.000000 (Ne1=   7192.0000)
               Final occupancy bounds   : [  0.0000,  1.0000]
================================================================================

................................................................................
<<<<<<<<<<<<<< LNV (Original version) density kernel optimisation >>>>>>>>>>>>>>
~~~~~~~~~~~~~~~~~~~~~~~~~~~~~~~~~~~~~~~~~~~~~~~~~~~~~~~~~~~~~~~~~~~~~~~~~~~~~~~~
   iter  |      energy (Eh)       | rms gradient |  commutator  |   dE (Eh)
MG BCs: +ve charge blocks (gridpoints):     30918 (   17244898).
MG BCs: -ve charge blocks (gridpoints):      8303 (    1117110).
MG BCs:     Elided blocks (gridpoints):    162990 (  172608617).
MG BCs: Computational effort saved:  99.9795%.
MG BCs: Charge after coarse-graining:           -9.0009578.
MG DL_MG: Calling solver with defect correction order = 8
MG DL_MG: Solver finished
MG Hartree energy from (\int phi*rho dr):              1416.801855
MG Hartree energy from (\int eps (grad phi)^2 dr):     1416.136729
MG Discrepancy due to finite box and discretization:     -0.665125 (  -0.04695%)
MG Correction to account for finite box:                  0.472311
MG Remaining discrepancy, due to discretization:         -0.192814 (  -0.01361%)
      ideal mu1:      -0.721827836954
             Q0:  -11508.776389359846
             G0:    -141.670168827230
   RMS gradient:       0.001829750628
MG BCs: +ve charge blocks (gridpoints):     30878 (   17324062).
MG BCs: -ve charge blocks (gridpoints):      8203 (    1096419).
MG BCs:     Elided blocks (gridpoints):    163031 (  172550144).
MG BCs: Computational effort saved:  99.9795%.
MG BCs: Charge after coarse-graining:           -9.0009788.
MG DL_MG: Calling solver with defect correction order = 8
MG DL_MG: Solver finished
MG Hartree energy from (\int phi*rho dr):              1442.879359
MG Hartree energy from (\int eps (grad phi)^2 dr):     1442.230724
MG Discrepancy due to finite box and discretization:     -0.648634 (  -0.04495%)
MG Correction to account for finite box:                  0.471456
MG Remaining discrepancy, due to discretization:         -0.177178 (  -0.01228%)
     Trial step:       0.500000000000
             Q1:  -11519.689968710183
 Quadratic coef:      59.921505063277
 Linear coef   :     -70.835084413615
           Qmin:  -11529.710481296393
Quadratic minimum step length (  0.295532815551) accepted
    Initial Ne1:    7192.00000000
      Final Ne1:    7192.00000000

=================== Penalty functional idempotency correction ==================
 RMS occupancy error at iteration   1:  0.003302 (step -0.4889 Ne1=   7192.0000)
 RMS occupancy error at iteration   2:  0.000024 (step -0.5000 Ne1=   7192.0000)
            Final RMS occupancy error   :  0.000000 (Ne1=   7192.0000)
               Final occupancy bounds   : [  0.0000,  1.0000]
================================================================================

    1        -1.150877638936E+04     1.8298E-03     1.6550E-03
MG BCs: +ve charge blocks (gridpoints):     30882 (   17293066).
MG BCs: -ve charge blocks (gridpoints):      8240 (    1105037).
MG BCs:     Elided blocks (gridpoints):    163025 (  172572522).
MG BCs: Computational effort saved:  99.9795%.
MG BCs: Charge after coarse-graining:           -9.0009704.
MG DL_MG: Calling solver with defect correction order = 8
MG DL_MG: Solver finished
MG Hartree energy from (\int phi*rho dr):              1424.363723
MG Hartree energy from (\int eps (grad phi)^2 dr):     1423.709260
MG Discrepancy due to finite box and discretization:     -0.654464 (  -0.04595%)
MG Correction to account for finite box:                  0.471709
MG Remaining discrepancy, due to discretization:         -0.182755 (  -0.01283%)
      ideal mu1:      -0.761032211713
             Q0:  -11530.093705284875
             G0:     -11.513926625574
   RMS gradient:       0.000518210038
MG BCs: +ve charge blocks (gridpoints):     30886 (   17309099).
MG BCs: -ve charge blocks (gridpoints):      8221 (    1099745).
MG BCs:     Elided blocks (gridpoints):    163021 (  172561781).
MG BCs: Computational effort saved:  99.9795%.
MG BCs: Charge after coarse-graining:           -9.0009741.
MG DL_MG: Calling solver with defect correction order = 8
MG DL_MG: Solver finished
MG Hartree energy from (\int phi*rho dr):              1429.790442
MG Hartree energy from (\int eps (grad phi)^2 dr):     1429.139742
MG Discrepancy due to finite box and discretization:     -0.650701 (  -0.04551%)
MG Correction to account for finite box:                  0.471144
MG Remaining discrepancy, due to discretization:         -0.179556 (  -0.01256%)
     Trial step:       0.384403964308
             Q1:  -11532.796884896001
 Quadratic coef:       1.722819428493
 Linear coef   :      -4.425999039619
           Qmin:  -11532.936351933551
Quadratic minimum step length (  0.493775362848) accepted
    Initial Ne1:    7191.99992230
      Final Ne1:    7192.00000000

=================== Penalty functional idempotency correction ==================
 RMS occupancy error at iteration   1:  0.001724 (step -0.4935 Ne1=   7192.0000)
 RMS occupancy error at iteration   2:  0.000009 (step -0.5001 Ne1=   7192.0000)
            Final RMS occupancy error   :  0.000000 (Ne1=   7192.0000)
               Final occupancy bounds   : [  0.0000,  1.0000]
================================================================================

    2        -1.153009370528E+04     5.1821E-04     4.6871E-04    -2.1317E+01
MG BCs: +ve charge blocks (gridpoints):     30890 (   17313613).
MG BCs: -ve charge blocks (gridpoints):      8220 (    1098199).
MG BCs:     Elided blocks (gridpoints):    163017 (  172558813).
MG BCs: Computational effort saved:  99.9795%.
MG BCs: Charge after coarse-graining:           -9.0009753.
MG DL_MG: Calling solver with defect correction order = 8
MG DL_MG: Solver finished
MG Hartree energy from (\int phi*rho dr):              1431.373692
MG Hartree energy from (\int eps (grad phi)^2 dr):     1430.723987
MG Discrepancy due to finite box and discretization:     -0.649705 (  -0.04539%)
MG Correction to account for finite box:                  0.470996
MG Remaining discrepancy, due to discretization:         -0.178709 (  -0.01249%)
      ideal mu1:      -0.782098149523
             Q0:  -11532.969843801344
             G0:      -1.815185323415
   RMS gradient:       0.000205879962
MG BCs: +ve charge blocks (gridpoints):     30895 (   17312673).
MG BCs: -ve charge blocks (gridpoints):      8226 (    1099253).
MG BCs:     Elided blocks (gridpoints):    163012 (  172558699).
MG BCs: Computational effort saved:  99.9795%.
MG BCs: Charge after coarse-graining:           -9.0009750.
MG DL_MG: Calling solver with defect correction order = 8
MG DL_MG: Solver finished
MG Hartree energy from (\int phi*rho dr):              1429.192714
MG Hartree energy from (\int eps (grad phi)^2 dr):     1428.543454
MG Discrepancy due to finite box and discretization:     -0.649260 (  -0.04543%)
MG Correction to account for finite box:                  0.470758
MG Remaining discrepancy, due to discretization:         -0.178501 (  -0.01249%)
     Trial step:       0.435670984754
             Q1:  -11533.423374383943
 Quadratic coef:       0.337292994764
 Linear coef   :      -0.790823577363
           Qmin:  -11533.433388805408
Quadratic minimum step length (  0.510741242873) accepted
    Initial Ne1:    7191.99996757
      Final Ne1:    7192.00000000

=================== Penalty functional idempotency correction ==================
 RMS occupancy error at iteration   1:  0.000569 (step -0.4977 Ne1=   7192.0000)
 RMS occupancy error at iteration   2:  0.000001 (step -0.5000 Ne1=   7192.0000)
            Final RMS occupancy error   :  0.000000 (Ne1=   7192.0000)
               Final occupancy bounds   : [  0.0000,  1.0000]
================================================================================

    3        -1.153296984380E+04     2.0588E-04     1.8621E-04    -2.8761E+00
MG BCs: +ve charge blocks (gridpoints):     30896 (   17312520).
MG BCs: -ve charge blocks (gridpoints):      8226 (    1099426).
MG BCs:     Elided blocks (gridpoints):    163011 (  172558679).
MG BCs: Computational effort saved:  99.9795%.
MG BCs: Charge after coarse-graining:           -9.0009750.
MG DL_MG: Calling solver with defect correction order = 8
MG DL_MG: Solver finished
MG Hartree energy from (\int phi*rho dr):              1428.824872
MG Hartree energy from (\int eps (grad phi)^2 dr):     1428.175681
MG Discrepancy due to finite box and discretization:     -0.649191 (  -0.04544%)
MG Correction to account for finite box:                  0.470718
MG Remaining discrepancy, due to discretization:         -0.178473 (  -0.01249%)
      ideal mu1:      -0.782643321566
             Q0:  -11533.437485463684
             G0:      -0.424111973624
   RMS gradient:       0.000099625880
MG BCs: +ve charge blocks (gridpoints):     30895 (   17313470).
MG BCs: -ve charge blocks (gridpoints):      8224 (    1099204).
MG BCs:     Elided blocks (gridpoints):    163012 (  172557951).
MG BCs: Computational effort saved:  99.9795%.
MG BCs: Charge after coarse-graining:           -9.0009751.
MG DL_MG: Calling solver with defect correction order = 8
MG DL_MG: Solver finished
MG Hartree energy from (\int phi*rho dr):              1429.980494
MG Hartree energy from (\int eps (grad phi)^2 dr):     1429.331303
MG Discrepancy due to finite box and discretization:     -0.649191 (  -0.04540%)
MG Correction to account for finite box:                  0.470612
MG Remaining discrepancy, due to discretization:         -0.178578 (  -0.01249%)
     Trial step:       0.471715104949
             Q1:  -11533.534492923180
 Quadratic coef:       0.103052564653
 Linear coef   :      -0.200060024148
           Qmin:  -11533.534581575259
Quadratic minimum step length (  0.457879605447) accepted
    Initial Ne1:    7191.99999307
      Final Ne1:    7192.00000000

=================== Penalty functional idempotency correction ==================
 RMS occupancy error at iteration   1:  0.000183 (step -0.4992 Ne1=   7192.0000)
            Final RMS occupancy error   :  0.000000 (Ne1=   7192.0000)
               Final occupancy bounds   : [ -0.0000,  1.0000]
================================================================================

    4        -1.153343748546E+04     9.9626E-05     9.0109E-05    -4.6764E-01
MG BCs: +ve charge blocks (gridpoints):     30895 (   17313437).
MG BCs: -ve charge blocks (gridpoints):      8224 (    1099203).
MG BCs:     Elided blocks (gridpoints):    163012 (  172557985).
MG BCs: Computational effort saved:  99.9795%.
MG BCs: Charge after coarse-graining:           -9.0009751.
MG DL_MG: Calling solver with defect correction order = 8
MG DL_MG: Solver finished
MG Hartree energy from (\int phi*rho dr):              1429.946610
MG Hartree energy from (\int eps (grad phi)^2 dr):     1429.297419
MG Discrepancy due to finite box and discretization:     -0.649191 (  -0.04540%)
MG Correction to account for finite box:                  0.470616
MG Remaining discrepancy, due to discretization:         -0.178575 (  -0.01249%)
      ideal mu1:      -0.782938989343
             Q0:  -11533.534990346758
             G0:      -0.103611378955
   RMS gradient:       0.000049381583
MG BCs: +ve charge blocks (gridpoints):     30897 (   17313632).
MG BCs: -ve charge blocks (gridpoints):      8222 (    1099076).
MG BCs:     Elided blocks (gridpoints):    163010 (  172557917).
MG BCs: Computational effort saved:  99.9795%.
MG BCs: Charge after coarse-graining:           -9.0009750.
MG DL_MG: Calling solver with defect correction order = 8
MG DL_MG: Solver finished
MG Hartree energy from (\int phi*rho dr):              1430.340123
MG Hartree energy from (\int eps (grad phi)^2 dr):     1429.690807
MG Discrepancy due to finite box and discretization:     -0.649316 (  -0.04540%)
MG Correction to account for finite box:                  0.470609
MG Remaining discrepancy, due to discretization:         -0.178707 (  -0.01249%)
     Trial step:       0.464745872642
             Q1:  -11533.560547269299
 Quadratic coef:       0.022596038187
 Linear coef   :      -0.048152960728
           Qmin:  -11533.560644264579
Quadratic minimum step length (  0.495194988805) accepted
    Initial Ne1:    7192.00162748
      Final Ne1:    7192.00000000

=================== Penalty functional idempotency correction ==================
 RMS occupancy error at iteration   1:  0.000066 (step -0.4997 Ne1=   7192.0000)
            Final RMS occupancy error   :  0.000000 (Ne1=   7192.0000)
               Final occupancy bounds   : [ -0.0000,  1.0000]
================================================================================

    5        -1.153353499035E+04     4.9382E-05     4.4665E-05    -9.7505E-02
MG BCs: +ve charge blocks (gridpoints):     30897 (   17313642).
MG BCs: -ve charge blocks (gridpoints):      8222 (    1099061).
MG BCs:     Elided blocks (gridpoints):    163010 (  172557922).
MG BCs: Computational effort saved:  99.9795%.
MG BCs: Charge after coarse-graining:           -9.0009751.
MG DL_MG: Calling solver with defect correction order = 8
MG DL_MG: Solver finished
MG Hartree energy from (\int phi*rho dr):              1430.365947
MG Hartree energy from (\int eps (grad phi)^2 dr):     1429.716623
MG Discrepancy due to finite box and discretization:     -0.649324 (  -0.04540%)
MG Correction to account for finite box:                  0.470609
MG Remaining discrepancy, due to discretization:         -0.178715 (  -0.01249%)
      ideal mu1:      -0.782875703573
             Q0:  -11533.560693308827
             G0:      -0.031584287847
   RMS gradient:       0.000027287437
MG BCs: +ve charge blocks (gridpoints):     30895 (   17313280).
MG BCs: -ve charge blocks (gridpoints):      8222 (    1099246).
MG BCs:     Elided blocks (gridpoints):    163012 (  172558099).
MG BCs: Computational effort saved:  99.9795%.
MG BCs: Charge after coarse-graining:           -9.0009750.
MG DL_MG: Calling solver with defect correction order = 8
MG DL_MG: Solver finished
MG Hartree energy from (\int phi*rho dr):              1429.742944
MG Hartree energy from (\int eps (grad phi)^2 dr):     1429.093631
MG Discrepancy due to finite box and discretization:     -0.649312 (  -0.04541%)
MG Correction to account for finite box:                  0.470606
MG Remaining discrepancy, due to discretization:         -0.178706 (  -0.01250%)
     Trial step:       0.479728910115
             Q1:  -11533.570640407386
 Quadratic coef:       0.005204797428
 Linear coef   :      -0.015151895986
           Qmin:  -11533.571720632905
Quadratic minimum step length (  0.698279101955) accepted
    Initial Ne1:    7192.00102809
      Final Ne1:    7192.00000000

=================== Penalty functional idempotency correction ==================
 RMS occupancy error at iteration   1:  0.000041 (step -0.4998 Ne1=   7192.0000)
            Final RMS occupancy error   :  0.000000 (Ne1=   7192.0000)
               Final occupancy bounds   : [ -0.0000,  1.0000]
================================================================================

    6        -1.153356069331E+04     2.7287E-05     2.4681E-05    -2.5703E-02
MG BCs: +ve charge blocks (gridpoints):     30896 (   17313090).
MG BCs: -ve charge blocks (gridpoints):      8224 (    1099371).
MG BCs:     Elided blocks (gridpoints):    163011 (  172558164).
MG BCs: Computational effort saved:  99.9795%.
MG BCs: Charge after coarse-graining:           -9.0009749.
MG DL_MG: Calling solver with defect correction order = 8
MG DL_MG: Solver finished
MG Hartree energy from (\int phi*rho dr):              1429.458355
MG Hartree energy from (\int eps (grad phi)^2 dr):     1428.809049
MG Discrepancy due to finite box and discretization:     -0.649306 (  -0.04542%)
MG Correction to account for finite box:                  0.470604
MG Remaining discrepancy, due to discretization:         -0.178702 (  -0.01250%)
      ideal mu1:      -0.782557907712
             Q0:  -11533.571730601834
             G0:      -0.017213706562
   RMS gradient:       0.000020169257
MG BCs: +ve charge blocks (gridpoints):     30895 (   17313551).
MG BCs: -ve charge blocks (gridpoints):      8224 (    1099114).
MG BCs:     Elided blocks (gridpoints):    163012 (  172557960).
MG BCs: Computational effort saved:  99.9795%.
MG BCs: Charge after coarse-graining:           -9.0009750.
MG DL_MG: Calling solver with defect correction order = 8
MG DL_MG: Solver finished
MG Hartree energy from (\int phi*rho dr):              1430.063996
MG Hartree energy from (\int eps (grad phi)^2 dr):     1429.414734
MG Discrepancy due to finite box and discretization:     -0.649262 (  -0.04540%)
MG Correction to account for finite box:                  0.470581
MG Remaining discrepancy, due to discretization:         -0.178681 (  -0.01249%)
     Trial step:       0.578778604077
             Q1:  -11533.576038086438
 Quadratic coef:       0.005655440451
 Linear coef   :      -0.009962925055
           Qmin:  -11533.576118406661
Quadratic minimum step length (  0.509803604673) accepted
    Initial Ne1:    7192.00016213
      Final Ne1:    7192.00000000

=================== Penalty functional idempotency correction ==================
 RMS occupancy error at iteration   1:  0.000002 (step -0.5000 Ne1=   7192.0000)
            Final RMS occupancy error   :  0.000000 (Ne1=   7192.0000)
               Final occupancy bounds   : [  0.0000,  1.0000]
================================================================================

    7        -1.153357173060E+04     2.0169E-05     1.8243E-05    -1.1037E-02
MG BCs: +ve charge blocks (gridpoints):     30895 (   17313467).
MG BCs: -ve charge blocks (gridpoints):      8224 (    1099156).
MG BCs:     Elided blocks (gridpoints):    163012 (  172558002).
MG BCs: Computational effort saved:  99.9795%.
MG BCs: Charge after coarse-graining:           -9.0009750.
MG DL_MG: Calling solver with defect correction order = 8
MG DL_MG: Solver finished
MG Hartree energy from (\int phi*rho dr):              1429.991705
MG Hartree energy from (\int eps (grad phi)^2 dr):     1429.342438
MG Discrepancy due to finite box and discretization:     -0.649268 (  -0.04540%)
MG Correction to account for finite box:                  0.470584
MG Remaining discrepancy, due to discretization:         -0.178684 (  -0.01250%)
      ideal mu1:      -0.782861699297
             Q0:  -11533.576118626865
             G0:      -0.010204640794
   RMS gradient:       0.000015530075
MG BCs: +ve charge blocks (gridpoints):     30895 (   17313551).
MG BCs: -ve charge blocks (gridpoints):      8224 (    1099135).
MG BCs:     Elided blocks (gridpoints):    163012 (  172557939).
MG BCs: Computational effort saved:  99.9795%.
MG BCs: Charge after coarse-graining:           -9.0009750.
MG DL_MG: Calling solver with defect correction order = 8
MG DL_MG: Solver finished
MG Hartree energy from (\int phi*rho dr):              1430.069118
MG Hartree energy from (\int eps (grad phi)^2 dr):     1429.419894
MG Discrepancy due to finite box and discretization:     -0.649224 (  -0.04540%)
MG Correction to account for finite box:                  0.470569
MG Remaining discrepancy, due to discretization:         -0.178655 (  -0.01249%)
     Trial step:       0.543197403037
             Q1:  -11533.580219707801
 Quadratic coef:       0.001442053443
 Linear coef   :      -0.005543134378
           Qmin:  -11533.581445464593
Quadratic minimum step length (  1.044002985627) accepted
    Initial Ne1:    7192.00019570
      Final Ne1:    7192.00000000

=================== Penalty functional idempotency correction ==================
 RMS occupancy error at iteration   1:  0.000025 (step -0.4995 Ne1=   7192.0000)
            Final RMS occupancy error   :  0.000000 (Ne1=   7192.0000)
               Final occupancy bounds   : [ -0.0000,  1.0000]
================================================================================

    8        -1.153357611863E+04     1.5530E-05     1.4047E-05    -4.3880E-03
MG BCs: +ve charge blocks (gridpoints):     30895 (   17313620).
MG BCs: -ve charge blocks (gridpoints):      8222 (    1099125).
MG BCs:     Elided blocks (gridpoints):    163012 (  172557880).
MG BCs: Computational effort saved:  99.9795%.
MG BCs: Charge after coarse-graining:           -9.0009751.
MG DL_MG: Calling solver with defect correction order = 8
MG DL_MG: Solver finished
MG Hartree energy from (\int phi*rho dr):              1430.138585
MG Hartree energy from (\int eps (grad phi)^2 dr):     1429.489403
MG Discrepancy due to finite box and discretization:     -0.649183 (  -0.04539%)
MG Correction to account for finite box:                  0.470555
MG Remaining discrepancy, due to discretization:         -0.178628 (  -0.01249%)
      ideal mu1:      -0.782874271339
             Q0:  -11533.581433486892
             G0:      -0.015249257259
   RMS gradient:       0.000019025589
MG BCs: +ve charge blocks (gridpoints):     30895 (   17313495).
MG BCs: -ve charge blocks (gridpoints):      8225 (    1099240).
MG BCs:     Elided blocks (gridpoints):    163012 (  172557890).
MG BCs: Computational effort saved:  99.9795%.
MG BCs: Charge after coarse-graining:           -9.0009750.
MG DL_MG: Calling solver with defect correction order = 8
MG DL_MG: Solver finished
MG Hartree energy from (\int phi*rho dr):              1429.784001
MG Hartree energy from (\int eps (grad phi)^2 dr):     1429.134908
MG Discrepancy due to finite box and discretization:     -0.649093 (  -0.04540%)
MG Correction to account for finite box:                  0.470518
MG Remaining discrepancy, due to discretization:         -0.178576 (  -0.01249%)
     Trial step:       0.753060230364
             Q1:  -11533.588785602013
 Quadratic coef:       0.004131494064
 Linear coef   :      -0.011483609185
           Qmin:  -11533.589413244204
Quadratic minimum step length (  1.046576522066) accepted
    Initial Ne1:    7192.00048429
      Final Ne1:    7192.00000000

=================== Penalty functional idempotency correction ==================
 RMS occupancy error at iteration   1:  0.000153 (step -0.4963 Ne1=   7192.0000)
 RMS occupancy error at iteration   2:  0.000000 (step -0.5000 Ne1=   7192.0000)
            Final RMS occupancy error   :  0.000000 (Ne1=   7192.0000)
               Final occupancy bounds   : [  0.0000,  1.0000]
================================================================================

    9        -1.153358143349E+04     1.9026E-05     1.7208E-05    -5.3149E-03
MG BCs: +ve charge blocks (gridpoints):     30894 (   17313444).
MG BCs: -ve charge blocks (gridpoints):      8225 (    1099289).
MG BCs:     Elided blocks (gridpoints):    163013 (  172557892).
MG BCs: Computational effort saved:  99.9795%.
MG BCs: Charge after coarse-graining:           -9.0009750.
MG DL_MG: Calling solver with defect correction order = 8
MG DL_MG: Solver finished
MG Hartree energy from (\int phi*rho dr):              1429.641366
MG Hartree energy from (\int eps (grad phi)^2 dr):     1428.992311
MG Discrepancy due to finite box and discretization:     -0.649055 (  -0.04540%)
MG Correction to account for finite box:                  0.470501
MG Remaining discrepancy, due to discretization:         -0.178554 (  -0.01249%)
      ideal mu1:      -0.782356145876
   10        -1.153358933313E+04     2.2238E-05     2.0113E-05    -7.8996E-03
Finished density kernel iterations (  10)

Writing density kernel to file "host_14161.vacuum_dkn" ... done


>>> Density kernel optimised for the current NGWF basis:
     ~~~~~~~~~~~~~~~~~~~~~~~~~~~~~~~~~~~~~~~~~~~~~~~~~~~~~~~~~~~
     Total energy                =  -1.15335893331321E+04  Eh
     Estimated bandgap           =  -2.8308E-01  Eh
     RMS occupancy error         =   1.1902E-11
     [H,K] commutator            =   2.0113E-05
     Occupancy bounds            = [  0.000:  1.000]
     ~~~~~~~~~~~~~~~~~~~~~~~~~~~~~~~~~~~~~~~~~~~~~~~~~~~~~~~~~~~




################################################################################
########################### NGWF CG iteration  001 #############################
################################################################################
****** Reciprocal space K.E. preconditioning with k_zero =  3.5000 a0^-1 *******

>>> Checking for convergence of NGWFs:   NOT CONVERGED
  ========================================================================
         NGWF RMS gradient =  1.5827E-03 >  2.0000E-06  | above tolerance
  ========================================================================

>>> Improving NGWFs using line search:
============ Calculation of NGWF S^-1 using Hotelling algorithm ================ 
         Iteration  |  Frobenius norm and Maximum abs value    (of I-S*S_n^-1)   
               1       0.19463084E+00     0.49558927E-02
               2       0.87740378E-03     0.39098333E-04
               3       0.30727931E-07     0.25722814E-08
               4       0.12396544E-12     0.53290705E-14
================================================================================
MG BCs: +ve charge blocks (gridpoints):     30430 (   17259606).
MG BCs: -ve charge blocks (gridpoints):      8229 (    1099337).
MG BCs:     Elided blocks (gridpoints):    163480 (  172611682).
MG BCs: Computational effort saved:  99.9798%.
MG BCs: Charge after coarse-graining:           -9.0009759.
MG DL_MG: Calling solver with defect correction order = 8
MG DL_MG: Solver finished
MG Hartree energy from (\int phi*rho dr):              1398.073921
MG Hartree energy from (\int eps (grad phi)^2 dr):     1397.425576
MG Discrepancy due to finite box and discretization:     -0.648345 (  -0.04637%)
MG Correction to account for finite box:                  0.470448
MG Remaining discrepancy, due to discretization:         -0.177897 (  -0.01272%)
============ Calculation of NGWF S^-1 using Hotelling algorithm ================ 
         Iteration  |  Frobenius norm and Maximum abs value    (of I-S*S_n^-1)   
               1       0.18408118E+01     0.40451039E-01
               2       0.70450683E-01     0.23482448E-02
               3       0.14052770E-03     0.93898402E-05
               4       0.10578199E-08     0.15965462E-09
               5       0.10957461E-12     0.55511151E-14
================================================================================
------------------------------- NGWF line search -------------------------------
RMS gradient                =       0.00158274023744
Trial step length           =               0.122474
Gradient along search dir.  =       -273.57687441021
Functional at step 0        =  -11533.58933313214220
Functional at step 1        =  -11564.54992860683706
Functional predicted        =  -11643.84508425665081
Selected quadratic step     =               0.806031
--------------------------- NGWF line search finished --------------------------
                                               
Writing NGWFs to file "host_14161.vacuum_tightbox_ngwfs"....  done

>>> Optimising kernel for current NGWFs:
   Initial electron number for spin 1:    7226.16789953
     Final electron number for spin 1:    7192.00000000

=================== Penalty functional idempotency correction ==================
 RMS occupancy error at iteration   1:  0.004230 (step -0.4862 Ne1=   7192.0000)
 RMS occupancy error at iteration   2:  0.000069 (step -0.5003 Ne1=   7192.0000)
            Final RMS occupancy error   :  0.000000 (Ne1=   7192.0000)
               Final occupancy bounds   : [  0.0000,  1.0000]
================================================================================

................................................................................
<<<<<<<<<<<<<< LNV (Original version) density kernel optimisation >>>>>>>>>>>>>>
~~~~~~~~~~~~~~~~~~~~~~~~~~~~~~~~~~~~~~~~~~~~~~~~~~~~~~~~~~~~~~~~~~~~~~~~~~~~~~~~
   iter  |      energy (Eh)       | rms gradient |  commutator  |   dE (Eh)
MG BCs: +ve charge blocks (gridpoints):     24586 (   16991546).
MG BCs: -ve charge blocks (gridpoints):      8388 (    1083962).
MG BCs:     Elided blocks (gridpoints):    169328 (  172895117).
MG BCs: Computational effort saved:  99.9827%.
MG BCs: Charge after coarse-graining:           -9.0006574.
MG DL_MG: Calling solver with defect correction order = 8
MG DL_MG: Solver finished
MG Hartree energy from (\int phi*rho dr):              1244.026396
MG Hartree energy from (\int eps (grad phi)^2 dr):     1243.377495
MG Discrepancy due to finite box and discretization:     -0.648901 (  -0.05216%)
MG Correction to account for finite box:                  0.470195
MG Remaining discrepancy, due to discretization:         -0.178706 (  -0.01437%)
      ideal mu1:      -0.721683729724
             Q0:  -11643.044032003032
             G0:      -9.734094787534
   RMS gradient:       0.000479623534
MG BCs: +ve charge blocks (gridpoints):     24679 (   17009238).
MG BCs: -ve charge blocks (gridpoints):      8373 (    1079520).
MG BCs:     Elided blocks (gridpoints):    169235 (  172881867).
MG BCs: Computational effort saved:  99.9827%.
MG BCs: Charge after coarse-graining:           -9.0006529.
MG DL_MG: Calling solver with defect correction order = 8
MG DL_MG: Solver finished
MG Hartree energy from (\int phi*rho dr):              1264.261890
MG Hartree energy from (\int eps (grad phi)^2 dr):     1263.606052
MG Discrepancy due to finite box and discretization:     -0.655838 (  -0.05188%)
MG Correction to account for finite box:                  0.469944
MG Remaining discrepancy, due to discretization:         -0.185894 (  -0.01470%)
     Trial step:       0.887769765649
             Q1:  -11640.083265327150
 Quadratic coef:      11.602401724214
 Linear coef   :      -8.641635048332
           Qmin:  -11644.653135404285
Quadratic minimum step length (  0.330611820899) accepted
    Initial Ne1:    7191.99960730
      Final Ne1:    7192.00000000

=================== Penalty functional idempotency correction ==================
 RMS occupancy error at iteration   1:  0.000353 (step -0.4986 Ne1=   7192.0000)
 RMS occupancy error at iteration   2:  0.000000 (step -0.5000 Ne1=   7192.0000)
            Final RMS occupancy error   :  0.000000 (Ne1=   7192.0000)
               Final occupancy bounds   : [  0.0000,  1.0000]
================================================================================

    1        -1.164304403200E+04     4.7962E-04     4.3381E-04
MG BCs: +ve charge blocks (gridpoints):     24627 (   16998410).
MG BCs: -ve charge blocks (gridpoints):      8384 (    1082303).
MG BCs:     Elided blocks (gridpoints):    169287 (  172889912).
MG BCs: Computational effort saved:  99.9827%.
MG BCs: Charge after coarse-graining:           -9.0006556.
MG DL_MG: Calling solver with defect correction order = 8
MG DL_MG: Solver finished
MG Hartree energy from (\int phi*rho dr):              1250.226029
MG Hartree energy from (\int eps (grad phi)^2 dr):     1249.574672
MG Discrepancy due to finite box and discretization:     -0.651357 (  -0.05210%)
MG Correction to account for finite box:                  0.470081
MG Remaining discrepancy, due to discretization:         -0.181276 (  -0.01450%)
      ideal mu1:      -0.728537794480
             Q0:  -11644.616364609450
             G0:      -0.976001954329
   RMS gradient:       0.000153112632
MG BCs: +ve charge blocks (gridpoints):     24628 (   16998334).
MG BCs: -ve charge blocks (gridpoints):      8389 (    1083152).
MG BCs:     Elided blocks (gridpoints):    169286 (  172889139).
MG BCs: Computational effort saved:  99.9827%.
MG BCs: Charge after coarse-graining:           -9.0006554.
MG DL_MG: Calling solver with defect correction order = 8
MG DL_MG: Solver finished
MG Hartree energy from (\int phi*rho dr):              1251.470056
MG Hartree energy from (\int eps (grad phi)^2 dr):     1250.818283
MG Discrepancy due to finite box and discretization:     -0.651773 (  -0.05208%)
MG Correction to account for finite box:                  0.470099
MG Remaining discrepancy, due to discretization:         -0.181674 (  -0.01452%)
     Trial step:       0.541763028233
             Q1:  -11644.805922025233
 Quadratic coef:       0.339204358555
 Linear coef   :      -0.528761774339
           Qmin:  -11644.822426977864
Quadratic minimum step length (  0.422258106145) accepted
    Initial Ne1:    7191.99994888
      Final Ne1:    7192.00000000

=================== Penalty functional idempotency correction ==================
 RMS occupancy error at iteration   1:  0.000140 (step -0.4994 Ne1=   7192.0000)
            Final RMS occupancy error   :  0.000000 (Ne1=   7192.0000)
               Final occupancy bounds   : [ -0.0000,  1.0000]
================================================================================

    2        -1.164461636461E+04     1.5311E-04     1.3849E-04    -1.5723E+00
MG BCs: +ve charge blocks (gridpoints):     24629 (   16998338).
MG BCs: -ve charge blocks (gridpoints):      8387 (    1082978).
MG BCs:     Elided blocks (gridpoints):    169285 (  172889309).
MG BCs: Computational effort saved:  99.9827%.
MG BCs: Charge after coarse-graining:           -9.0006554.
MG DL_MG: Calling solver with defect correction order = 8
MG DL_MG: Solver finished
MG Hartree energy from (\int phi*rho dr):              1251.195018
MG Hartree energy from (\int eps (grad phi)^2 dr):     1250.543340
MG Discrepancy due to finite box and discretization:     -0.651678 (  -0.05208%)
MG Correction to account for finite box:                  0.470095
MG Remaining discrepancy, due to discretization:         -0.181583 (  -0.01451%)
      ideal mu1:      -0.729498361886
             Q0:  -11644.822900758823
             G0:      -0.143221967457
   RMS gradient:       0.000058111903
MG BCs: +ve charge blocks (gridpoints):     24624 (   16997637).
MG BCs: -ve charge blocks (gridpoints):      8391 (    1083451).
MG BCs:     Elided blocks (gridpoints):    169290 (  172889537).
MG BCs: Computational effort saved:  99.9827%.
MG BCs: Charge after coarse-graining:           -9.0006554.
MG DL_MG: Calling solver with defect correction order = 8
MG DL_MG: Solver finished
MG Hartree energy from (\int phi*rho dr):              1250.710946
MG Hartree energy from (\int eps (grad phi)^2 dr):     1250.059293
MG Discrepancy due to finite box and discretization:     -0.651653 (  -0.05210%)
MG Correction to account for finite box:                  0.470093
MG Remaining discrepancy, due to discretization:         -0.181559 (  -0.01452%)
     Trial step:       0.478292619931
             Q1:  -11644.866447262932
 Quadratic coef:       0.024955505938
 Linear coef   :      -0.068502010047
           Qmin:  -11644.869909677336
Quadratic minimum step length (  0.656448439415) accepted
    Initial Ne1:    7192.00058003
      Final Ne1:    7192.00000000

=================== Penalty functional idempotency correction ==================
 RMS occupancy error at iteration   1:  0.000060 (step -0.4998 Ne1=   7192.0000)
            Final RMS occupancy error   :  0.000000 (Ne1=   7192.0000)
               Final occupancy bounds   : [ -0.0000,  1.0000]
================================================================================

    3        -1.164482290076E+04     5.8112E-05     5.2561E-05    -2.0654E-01
MG BCs: +ve charge blocks (gridpoints):     24624 (   16997422).
MG BCs: -ve charge blocks (gridpoints):      8391 (    1083586).
MG BCs:     Elided blocks (gridpoints):    169290 (  172889617).
MG BCs: Computational effort saved:  99.9827%.
MG BCs: Charge after coarse-graining:           -9.0006555.
MG DL_MG: Calling solver with defect correction order = 8
MG DL_MG: Solver finished
MG Hartree energy from (\int phi*rho dr):              1250.530753
MG Hartree energy from (\int eps (grad phi)^2 dr):     1249.879110
MG Discrepancy due to finite box and discretization:     -0.651644 (  -0.05211%)
MG Correction to account for finite box:                  0.470093
MG Remaining discrepancy, due to discretization:         -0.181551 (  -0.01452%)
      ideal mu1:      -0.728561633962
             Q0:  -11644.869992355816
             G0:      -0.035111831165
   RMS gradient:       0.000028765259
MG BCs: +ve charge blocks (gridpoints):     24623 (   16997283).
MG BCs: -ve charge blocks (gridpoints):      8391 (    1083592).
MG BCs:     Elided blocks (gridpoints):    169291 (  172889750).
MG BCs: Computational effort saved:  99.9827%.
MG BCs: Charge after coarse-graining:           -9.0006555.
MG DL_MG: Calling solver with defect correction order = 8
MG DL_MG: Solver finished
MG Hartree energy from (\int phi*rho dr):              1250.541393
MG Hartree energy from (\int eps (grad phi)^2 dr):     1249.889843
MG Discrepancy due to finite box and discretization:     -0.651550 (  -0.05210%)
MG Correction to account for finite box:                  0.470100
MG Remaining discrepancy, due to discretization:         -0.181450 (  -0.01451%)
     Trial step:       0.560334225206
             Q1:  -11644.878642254043
 Quadratic coef:       0.011024462485
 Linear coef   :      -0.019674360711
           Qmin:  -11644.878770118676
Quadratic minimum step length (  0.499988896546) accepted
    Initial Ne1:    7192.00021256
      Final Ne1:    7192.00000000

=================== Penalty functional idempotency correction ==================
 RMS occupancy error at iteration   1:  0.000018 (step -0.4999 Ne1=   7192.0000)
            Final RMS occupancy error   :  0.000000 (Ne1=   7192.0000)
               Final occupancy bounds   : [ -0.0000,  1.0000]
================================================================================

    4        -1.164486999236E+04     2.8765E-05     2.6018E-05    -4.7092E-02
MG BCs: +ve charge blocks (gridpoints):     24623 (   16997299).
MG BCs: -ve charge blocks (gridpoints):      8391 (    1083589).
MG BCs:     Elided blocks (gridpoints):    169291 (  172889737).
MG BCs: Computational effort saved:  99.9827%.
MG BCs: Charge after coarse-graining:           -9.0006555.
MG DL_MG: Calling solver with defect correction order = 8
MG DL_MG: Solver finished
MG Hartree energy from (\int phi*rho dr):              1250.540062
MG Hartree energy from (\int eps (grad phi)^2 dr):     1249.888502
MG Discrepancy due to finite box and discretization:     -0.651560 (  -0.05210%)
MG Correction to account for finite box:                  0.470100
MG Remaining discrepancy, due to discretization:         -0.181461 (  -0.01451%)
      ideal mu1:      -0.728554896125
             Q0:  -11644.878774897661
             G0:      -0.011559913504
   RMS gradient:       0.000016524987
MG BCs: +ve charge blocks (gridpoints):     24623 (   16997819).
MG BCs: -ve charge blocks (gridpoints):      8390 (    1083368).
MG BCs:     Elided blocks (gridpoints):    169291 (  172889438).
MG BCs: Computational effort saved:  99.9827%.
MG BCs: Charge after coarse-graining:           -9.0006554.
MG DL_MG: Calling solver with defect correction order = 8
MG DL_MG: Solver finished
MG Hartree energy from (\int phi*rho dr):              1250.933783
MG Hartree energy from (\int eps (grad phi)^2 dr):     1250.282266
MG Discrepancy due to finite box and discretization:     -0.651517 (  -0.05208%)
MG Correction to account for finite box:                  0.470090
MG Remaining discrepancy, due to discretization:         -0.181428 (  -0.01450%)
     Trial step:       0.529302268045
             Q1:  -11644.882063855999
 Quadratic coef:       0.002829730098
 Linear coef   :      -0.006118688436
           Qmin:  -11644.882082487686
Quadratic minimum step length (  0.572251690945) accepted
    Initial Ne1:    7192.00009354
      Final Ne1:    7192.00000000

=================== Penalty functional idempotency correction ==================
 RMS occupancy error at iteration   1:  0.000010 (step -0.4999 Ne1=   7192.0000)
            Final RMS occupancy error   :  0.000000 (Ne1=   7192.0000)
               Final occupancy bounds   : [ -0.0000,  1.0000]
================================================================================

    5        -1.164487877490E+04     1.6525E-05     1.4946E-05    -8.7825E-03
MG BCs: +ve charge blocks (gridpoints):     24623 (   16997859).
MG BCs: -ve charge blocks (gridpoints):      8389 (    1083344).
MG BCs:     Elided blocks (gridpoints):    169291 (  172889422).
MG BCs: Computational effort saved:  99.9827%.
MG BCs: Charge after coarse-graining:           -9.0006554.
MG DL_MG: Calling solver with defect correction order = 8
MG DL_MG: Solver finished
MG Hartree energy from (\int phi*rho dr):              1250.965763
MG Hartree energy from (\int eps (grad phi)^2 dr):     1250.314249
MG Discrepancy due to finite box and discretization:     -0.651514 (  -0.05208%)
MG Correction to account for finite box:                  0.470089
MG Remaining discrepancy, due to discretization:         -0.181425 (  -0.01450%)
      ideal mu1:      -0.728923681125
             Q0:  -11644.882083529723
             G0:      -0.003819981499
   RMS gradient:       0.000009499608
MG BCs: +ve charge blocks (gridpoints):     24623 (   16997837).
MG BCs: -ve charge blocks (gridpoints):      8390 (    1083404).
MG BCs:     Elided blocks (gridpoints):    169291 (  172889384).
MG BCs: Computational effort saved:  99.9827%.
MG BCs: Charge after coarse-graining:           -9.0006554.
MG DL_MG: Calling solver with defect correction order = 8
MG DL_MG: Solver finished
MG Hartree energy from (\int phi*rho dr):              1250.934040
MG Hartree energy from (\int eps (grad phi)^2 dr):     1250.282536
MG Discrepancy due to finite box and discretization:     -0.651503 (  -0.05208%)
MG Correction to account for finite box:                  0.470082
MG Remaining discrepancy, due to discretization:         -0.181421 (  -0.01450%)
     Trial step:       0.550358172384
             Q1:  -11644.883427865570
 Quadratic coef:       0.000758022188
 Linear coef   :      -0.002102358036
           Qmin:  -11644.883541240784
Quadratic minimum step length (  0.763203204689) accepted
    Initial Ne1:    7192.00005571
      Final Ne1:    7192.00000000

=================== Penalty functional idempotency correction ==================
 RMS occupancy error at iteration   1:  0.000008 (step -0.4998 Ne1=   7192.0000)
            Final RMS occupancy error   :  0.000000 (Ne1=   7192.0000)
               Final occupancy bounds   : [ -0.0000,  1.0000]
================================================================================

    6        -1.164488208353E+04     9.4996E-06     8.5922E-06    -3.3086E-03
MG BCs: +ve charge blocks (gridpoints):     24623 (   16997833).
MG BCs: -ve charge blocks (gridpoints):      8390 (    1083425).
MG BCs:     Elided blocks (gridpoints):    169291 (  172889367).
MG BCs: Computational effort saved:  99.9827%.
MG BCs: Charge after coarse-graining:           -9.0006554.
MG DL_MG: Calling solver with defect correction order = 8
MG DL_MG: Solver finished
MG Hartree energy from (\int phi*rho dr):              1250.921707
MG Hartree energy from (\int eps (grad phi)^2 dr):     1250.270208
MG Discrepancy due to finite box and discretization:     -0.651499 (  -0.05208%)
MG Correction to account for finite box:                  0.470080
MG Remaining discrepancy, due to discretization:         -0.181419 (  -0.01450%)
      ideal mu1:      -0.728889697937
             Q0:  -11644.883541101357
             G0:      -0.002542545223
   RMS gradient:       0.000007751523
MG BCs: +ve charge blocks (gridpoints):     24622 (   16997570).
MG BCs: -ve charge blocks (gridpoints):      8390 (    1083482).
MG BCs:     Elided blocks (gridpoints):    169292 (  172889573).
MG BCs: Computational effort saved:  99.9827%.
MG BCs: Charge after coarse-graining:           -9.0006554.
MG DL_MG: Calling solver with defect correction order = 8
MG DL_MG: Solver finished
MG Hartree energy from (\int phi*rho dr):              1250.805594
MG Hartree energy from (\int eps (grad phi)^2 dr):     1250.154084
MG Discrepancy due to finite box and discretization:     -0.651510 (  -0.05209%)
MG Correction to account for finite box:                  0.470081
MG Remaining discrepancy, due to discretization:         -0.181429 (  -0.01450%)
     Trial step:       0.648101165629
             Q1:  -11644.884077349678
 Quadratic coef:       0.001111578202
 Linear coef   :      -0.001647826523
           Qmin:  -11644.884151794389
Quadratic minimum step length (  0.480379287930) accepted
    Initial Ne1:    7192.00003225
      Final Ne1:    7192.00000000

=================== Penalty functional idempotency correction ==================
 RMS occupancy error at iteration   1:  0.000001 (step -0.5000 Ne1=   7192.0000)
            Final RMS occupancy error   :  0.000000 (Ne1=   7192.0000)
               Final occupancy bounds   : [  0.0000,  1.0000]
================================================================================

    7        -1.164488354110E+04     7.7515E-06     7.0111E-06    -1.4576E-03
MG BCs: +ve charge blocks (gridpoints):     24623 (   16997639).
MG BCs: -ve charge blocks (gridpoints):      8390 (    1083469).
MG BCs:     Elided blocks (gridpoints):    169291 (  172889517).
MG BCs: Computational effort saved:  99.9827%.
MG BCs: Charge after coarse-graining:           -9.0006554.
MG DL_MG: Calling solver with defect correction order = 8
MG DL_MG: Solver finished
MG Hartree energy from (\int phi*rho dr):              1250.835581
MG Hartree energy from (\int eps (grad phi)^2 dr):     1250.184074
MG Discrepancy due to finite box and discretization:     -0.651508 (  -0.05209%)
MG Correction to account for finite box:                  0.470081
MG Remaining discrepancy, due to discretization:         -0.181427 (  -0.01450%)
      ideal mu1:      -0.728774408996
             Q0:  -11644.884151781094
             G0:      -0.001638023920
   RMS gradient:       0.000006221672
MG BCs: +ve charge blocks (gridpoints):     24623 (   16997579).
MG BCs: -ve charge blocks (gridpoints):      8390 (    1083485).
MG BCs:     Elided blocks (gridpoints):    169291 (  172889561).
MG BCs: Computational effort saved:  99.9827%.
MG BCs: Charge after coarse-graining:           -9.0006554.
MG DL_MG: Calling solver with defect correction order = 8
MG DL_MG: Solver finished
MG Hartree energy from (\int phi*rho dr):              1250.783720
MG Hartree energy from (\int eps (grad phi)^2 dr):     1250.132208
MG Discrepancy due to finite box and discretization:     -0.651513 (  -0.05209%)
MG Correction to account for finite box:                  0.470078
MG Remaining discrepancy, due to discretization:         -0.181435 (  -0.01451%)
     Trial step:       0.557973454970
             Q1:  -11644.884884087020
 Quadratic coef:       0.000181667940
 Linear coef   :      -0.000913973866
           Qmin:  -11644.885301334820
Quadratic minimum step length (  1.403586006260) accepted
    Initial Ne1:    7192.00006055
      Final Ne1:    7192.00000000

=================== Penalty functional idempotency correction ==================
 RMS occupancy error at iteration   1:  0.000018 (step -0.4987 Ne1=   7192.0000)
            Final RMS occupancy error   :  0.000000 (Ne1=   7192.0000)
               Final occupancy bounds   : [ -0.0000,  1.0000]
================================================================================

    8        -1.164488415178E+04     6.2217E-06     5.6274E-06    -6.1068E-04
MG BCs: +ve charge blocks (gridpoints):     24621 (   16997462).
MG BCs: -ve charge blocks (gridpoints):      8390 (    1083536).
MG BCs:     Elided blocks (gridpoints):    169293 (  172889627).
MG BCs: Computational effort saved:  99.9827%.
[...]
MG Correction to account for finite box:                  0.006460
MG Remaining discrepancy, due to discretization:         -0.180334 (  -0.01492%)
     Trial step:       0.255880678066
             Q1:  -11679.023523413809
 Quadratic coef:       0.000000000329
 Linear coef   :      -0.000000000213
           Qmin:  -11679.023523413960
Quadratic minimum step length (  0.082645848426) accepted
    Initial Ne1:    7192.00000000
      Final Ne1:    7192.00000000

=================== Penalty functional idempotency correction ==================
 RMS occupancy error at iteration   1:  0.000000 (step -0.5000 Ne1=   7192.0000)
            Final RMS occupancy error   :  0.000000 (Ne1=   7192.0000)
               Final occupancy bounds   : [ -0.0000,  1.0000]
================================================================================

    7        -1.167902352341E+04     4.4320E-09     4.0086E-09     1.1642E-10

Reusing previously generated solute cavity.
MG BCs: +ve charge blocks (gridpoints):     28701 (   19162954).
MG BCs: -ve charge blocks (gridpoints):      8363 (    1052319).
MG BCs:     Elided blocks (gridpoints):    165213 (  170755352).
MG BCs: Computational effort saved:  99.9806%.
MG BCs: Charge after coarse-graining:           -9.0009421.
MG DL_MG: Calling solver with defect correction order = 8
MG DL_MG: Solver finished
MG Hartree energy from (\int phi*rho dr):              1208.825484
MG Hartree energy from (\int eps (grad phi)^2 dr):     1208.638690
MG Discrepancy due to finite box and discretization:     -0.186794 (  -0.01545%)
MG Correction to account for finite box:                  0.006460
MG Remaining discrepancy, due to discretization:         -0.180334 (  -0.01492%)
      ideal mu1:      -0.481018451263
             Q0:  -11679.023523413925
             G0:      -0.000000001309
   RMS gradient:       0.000000004028

Reusing previously generated solute cavity.
MG BCs: +ve charge blocks (gridpoints):     28701 (   19162954).
MG BCs: -ve charge blocks (gridpoints):      8363 (    1052319).
MG BCs:     Elided blocks (gridpoints):    165213 (  170755352).
MG BCs: Computational effort saved:  99.9806%.
MG BCs: Charge after coarse-graining:           -9.0009421.
MG DL_MG: Calling solver with defect correction order = 8
MG DL_MG: Solver finished
MG Hartree energy from (\int phi*rho dr):              1208.825473
MG Hartree energy from (\int eps (grad phi)^2 dr):     1208.638679
MG Discrepancy due to finite box and discretization:     -0.186794 (  -0.01545%)
MG Correction to account for finite box:                  0.006460
MG Remaining discrepancy, due to discretization:         -0.180334 (  -0.01492%)
     Trial step:       0.145421716861
             Q1:  -11679.023523413693
 Quadratic coef:       0.000000000424
 Linear coef   :      -0.000000000190
           Qmin:  -11679.023523413947
Quadratic minimum step length (  0.032668085044) accepted
    Initial Ne1:    7192.00000000
      Final Ne1:    7192.00000000

=================== Penalty functional idempotency correction ==================
 RMS occupancy error at iteration   1:  0.000000 (step -0.5000 Ne1=   7192.0000)
            Final RMS occupancy error   :  0.000000 (Ne1=   7192.0000)
               Final occupancy bounds   : [ -0.0000,  1.0000]
================================================================================

    8        -1.167902352341E+04     4.0281E-09     3.6433E-09     0.0000E+00

Reusing previously generated solute cavity.
MG BCs: +ve charge blocks (gridpoints):     28701 (   19162954).
MG BCs: -ve charge blocks (gridpoints):      8363 (    1052319).
MG BCs:     Elided blocks (gridpoints):    165213 (  170755352).
MG BCs: Computational effort saved:  99.9806%.
MG BCs: Charge after coarse-graining:           -9.0009421.
MG DL_MG: Calling solver with defect correction order = 8
MG DL_MG: Solver finished
MG Hartree energy from (\int phi*rho dr):              1208.825482
MG Hartree energy from (\int eps (grad phi)^2 dr):     1208.638688
MG Discrepancy due to finite box and discretization:     -0.186794 (  -0.01545%)
MG Correction to account for finite box:                  0.006460
MG Remaining discrepancy, due to discretization:         -0.180334 (  -0.01492%)
      ideal mu1:      -0.481018448530
             Q0:  -11679.023523413925
             G0:      -0.000000001666
   RMS gradient:       0.000000003765

Reusing previously generated solute cavity.
MG BCs: +ve charge blocks (gridpoints):     28701 (   19162954).
MG BCs: -ve charge blocks (gridpoints):      8363 (    1052319).
MG BCs:     Elided blocks (gridpoints):    165213 (  170755352).
MG BCs: Computational effort saved:  99.9806%.
MG BCs: Charge after coarse-graining:           -9.0009421.
MG DL_MG: Calling solver with defect correction order = 8
MG DL_MG: Solver finished
MG Hartree energy from (\int phi*rho dr):              1208.825474
MG Hartree energy from (\int eps (grad phi)^2 dr):     1208.638680
MG Discrepancy due to finite box and discretization:     -0.186794 (  -0.01545%)
MG Correction to account for finite box:                  0.006460
MG Remaining discrepancy, due to discretization:         -0.180334 (  -0.01492%)
     Trial step:       0.068924952039
             Q1:  -11679.023523413693
 Quadratic coef:       0.000000000347
 Linear coef   :      -0.000000000115
           Qmin:  -11679.023523413935
Quadratic minimum step length (  0.011392736574) accepted
    Initial Ne1:    7192.00000000
      Final Ne1:    7192.00000000

=================== Penalty functional idempotency correction ==================
 RMS occupancy error at iteration   1:  0.000000 (step -0.5000 Ne1=   7192.0000)
            Final RMS occupancy error   :  0.000000 (Ne1=   7192.0000)
               Final occupancy bounds   : [ -0.0000,  1.0000]
================================================================================

    9        -1.167902352341E+04     3.7647E-09     3.4051E-09     0.0000E+00

Reusing previously generated solute cavity.
MG BCs: +ve charge blocks (gridpoints):     28701 (   19162954).
MG BCs: -ve charge blocks (gridpoints):      8363 (    1052319).
MG BCs:     Elided blocks (gridpoints):    165213 (  170755352).
MG BCs: Computational effort saved:  99.9806%.
MG BCs: Charge after coarse-graining:           -9.0009421.
MG DL_MG: Calling solver with defect correction order = 8
MG DL_MG: Solver finished
MG Hartree energy from (\int phi*rho dr):              1208.825481
MG Hartree energy from (\int eps (grad phi)^2 dr):     1208.638687
MG Discrepancy due to finite box and discretization:     -0.186794 (  -0.01545%)
MG Correction to account for finite box:                  0.006460
MG Remaining discrepancy, due to discretization:         -0.180334 (  -0.01492%)
      ideal mu1:      -0.481018447235
   10        -1.167902352341E+04     3.6435E-09     3.2955E-09     1.1642E-10
Finished density kernel iterations (  10)

Writing density kernel to file "host_14161.dkn" ... done


>>> Density kernel optimised for the current NGWF basis:
     ~~~~~~~~~~~~~~~~~~~~~~~~~~~~~~~~~~~~~~~~~~~~~~~~~~~~~~~~~~~
     Total energy                =  -1.16790235234138E+04  Eh
     Estimated bandgap           =   9.5995E-02  Eh
     RMS occupancy error         =   5.2847E-16
     [H,K] commutator            =   3.2955E-09
     Occupancy bounds            = [ -0.000:  1.000]
     ~~~~~~~~~~~~~~~~~~~~~~~~~~~~~~~~~~~~~~~~~~~~~~~~~~~~~~~~~~~




################################################################################
########################### NGWF CG iteration  005 #############################
################################################################################
****** Reciprocal space K.E. preconditioning with k_zero =  3.5000 a0^-1 *******

>>> Checking for convergence of NGWFs: 
           ........................................................
           |         *** NGWF optimisation converged ***          |
           | RMS NGWF gradient =    0.00000092799173              |
           | Criteria satisfied:                                  |
           | -> RMS NGWF gradient lower than set threshold.       |
           ========================================================

Reusing previously generated solute cavity.
MG BCs: +ve charge blocks (gridpoints):     28701 (   19162954).
MG BCs: -ve charge blocks (gridpoints):      8363 (    1052319).
MG BCs:     Elided blocks (gridpoints):    165213 (  170755352).
MG BCs: Computational effort saved:  99.9806%.
MG BCs: Charge after coarse-graining:           -9.0009421.
MG DL_MG: Calling solver with defect correction order = 8
MG DL_MG: Solver finished
MG Hartree energy from (\int phi*rho dr):              1208.825481
MG Hartree energy from (\int eps (grad phi)^2 dr):     1208.638687
MG Discrepancy due to finite box and discretization:     -0.186794 (  -0.01545%)
MG Correction to account for finite box:                  0.006460
MG Remaining discrepancy, due to discretization:         -0.180334 (  -0.01492%)

================================================================================
           ---------------- ENERGY COMPONENTS (Eh) ----------------
           | Kinetic                    :     8529.48206992496671 |
           | Pseudo. (local,OBC,corr'd) :    -5051.33899361540807 |
           | Pseudopotential (non-local):     1403.19635014282653 |
           | Hartree (molecular)        :     1208.82548052865445 |
           | Exchange-correlation       :    -3357.46114887513249 |
           | Ion-ion (open BC)          :   829393.56907223118469 |
           | Dispersion Correction      :       -3.25023291372690 |
           | Smeared ion non-self corr. :  -829345.53351761098020 |
           | Smeared ion self corr.     :   -14457.16956389741972 |
           | Solvent cavitation energy  :        2.33731449331955 |
           | Solute-solvent dis-rep en. :       -1.68035382210976 |
           | Total                      :   -11679.02352341386359 |
           --------------------------------------------------------
           ------ LOCAL ENERGY COMPONENTS FROM MATRIX TRACES ------
           | Pseudopotential (local)    :    -5051.33899361541353 |
           | Hartree                    :    -1989.86110544123176 |
           --------------------------------------------------------
           Integrated density           :     7191.99999999897500
           Integrated density tr(KS)    :     7192.00000000000000
================================================================================


                        <<<<< CALCULATION SUMMARY >>>>>                         
|ITER|    RMS GRADIENT   |     TOTAL ENERGY    |   step   |     Epredicted              
   0     0.00003980378324 -11678.96163750835694   0.618538 -11679.01514874047280        
   1     0.00001023945448 -11679.02287682075985   0.094063 -11679.02341533988692        
   2     0.00000458530858 -11679.02349926542956   0.017648 -11679.02351952678691        
   3     0.00000207461494 -11679.02352239761967   0.003670 -11679.02352326009895        
   4     0.00000092799173 -11679.02352341380902  <-- CG                                 

=================== Finished the calculation in solvent ========================
= Adjusting the following parameters: 
= read_denskern: F
= read_tightbox_ngwfs: F
= maxit_pen: 0 (restored to user-specified value)
= restart read filename prefix: ""
= restart write filename prefix: ""
================================================================================

================================================================================
IS: Calculation in solvent completed (NGWFs converged).      

Individual components of total energy in solvent:     hartree           kcal/mol
- Usual non-electrostatic DFT terms:    -12888.50596461367240    -8087659.423851
- Electrostatic fixed charge energy:      1208.82548052865445      758549.425064
- Apolar cavitation energy:                  2.33731449331955        1466.686957
- Apolar dispersion-repulsion energy:       -1.68035382210976       -1054.437920
 -------------------------------------------------------------------------------
- Total energy in solvent:              -11679.02352341380902    -7328697.749751

Components of total energy in solvent:                hartree           kcal/mol
- Usual non-electrostatic DFT terms:    -12888.50596461367240    -8087659.423851
- Electrostatic energy:                   1208.82548052865445      758549.425064
- Apolar energy terms:                       0.65696067120979         412.249036
 -------------------------------------------------------------------------------
- Total energy in solvent:              -11679.02352341380902    -7328697.749751

Calculation of free energy of solvation:              hartree           kcal/mol
- Total energy in solvent:         (+)  -11679.02352341380902    -7328697.749751
- Total energy in vacuum:          (-)  -11675.04176466469653    -7326199.158467
 -------------------------------------------------------------------------------
- Total free energy of solvation:           -3.98175874911249       -2498.591284

Components of polar term in f.e. of solvation:        hartree           kcal/mol
- Electrostatic:                            -4.81587091454185       -3022.004559
- Change in nonelectrostatic DFT terms:      0.17715149422111         111.164239
 -------------------------------------------------------------------------------
- Polar term in f.e. of solvation:          -4.63871942032074       -2910.840321

Components of free energy of solvation:               hartree           kcal/mol
- Polar term in f.e. of solvation: (+)      -4.63871942032074       -2910.840321
- Apolar (cavitation, dis., rep.): (+)       0.65696067120979         412.249036
 -------------------------------------------------------------------------------
- Total free energy of solvation:           -3.98175874911095       -2498.591284
================================================================================


------------------------------ TIMING INFORMATION ------------------------------
AVERAGE TIME:   36862.164s on     60 node(s)                                    
TOTAL TIME:     36862.166s on     60 node(s)                                    
================= AVERAGE TIMINGS FROM ALL NODES (CUMULATIVE) ==================
|| TAG                                    #calls    cpu time   %total  Gflops ||
|| work_imbalance                       :     1        0.00s   0.000%  ------ ||
|| sparse_set_to_garbage                :   218        0.04s   0.000%  ------ ||
|| parallel_prepare_fd_halos_request    :  2313        0.04s   0.000%  ------ ||
|| ngwfs_initialise_from_radial         :     1        0.11s   0.000%  ------ ||
|| basis_extract_function_from_box      :  4228        0.19s   0.001%  ------ ||
|| parallel_prepare_fd_halos_satisfy    :  2313        0.82s   0.002%  ------ ||
|| parallel_prepare_fd_halos_alloc      :  2313        1.96s   0.005%  ------ ||
|| pseudopotentials_nonlocal_mat        :    37        2.92s   0.008%  ------ ||
|| openbc_locps_radial                  :     1        3.14s   0.009%  ------ ||
|| density_init_guess_real              :     1        5.03s   0.014%  ------ ||
|| restart_kernel_read                  :     1        5.92s   0.016%  ------ ||
|| restart_ngwfs_tightbox_input         :     1        9.45s   0.026%  ------ ||
|| parallel_prepare_fd_halos_comms_imbal:  2313       10.25s   0.028%  ------ ||
|| sparse_init                          :     2       22.15s   0.060%  ------ ||
|| parallel_prepare_fd_halos_clear      :  2313       23.34s   0.063%  ------ ||
|| parallel_prepare_fd_halos_comms_wait :  2313       32.37s   0.088%  ------ ||
|| projectors_func_ovlp_box             :    37       33.20s   0.090%  ------ ||
|| function_ops_brappd_ketppd           :    37       35.51s   0.096%  ------ ||
|| palser_mano_kernel_optimise          :     1       35.83s   0.097%  ------ ||
|| projectors_init_fftbox_recip         :   170       41.38s   0.112%  ------ ||
|| pseudo_make_structure_factor         :     2       51.53s   0.140%  ------ ||
|| basis_copy_function_to_box           : 69061       53.66s   0.146%  ------ ||
|| ngwf_gradient_coeffs                 :    19       58.78s   0.159%  ------ ||
|| fourier_apply_box_pair               :  6133       64.33s   0.175% 587.867 ||
|| parallel_prepare_fd_halos            :  2313       68.81s   0.187%  ------ ||
|| sparse_embed_hotelling_invert_embed  :    37       88.93s   0.241%  ------ ||
|| restart_kernel_write                 :    20      131.26s   0.356%  ------ ||
|| finite_difference_derivative         :  2313      160.82s   0.436%  ------ ||
|| integrals_kinetic                    :    37      178.12s   0.483%  ------ ||
|| basis_dot_function_with_box          : 10.50M     211.08s   0.573%  ------ ||
|| projectors_gradient_batch            :   133      212.71s   0.577%  ------ ||
|| fourier_apply_cell_backward          :  1543      228.08s   0.619%  90.850 ||
|| sparse_trace                         :  6009      247.79s   0.672%  ------ ||
|| openbc_locps_on_grid                 :     2      260.64s   0.707%  ------ ||
|| fourier_apply_cell_forward           :  1541      294.13s   0.798%  70.356 ||
|| kernel_purify                        :   589      357.04s   0.969%  ------ ||
|| hamiltonian_energy_components        :     4      490.42s   1.330%  ------ ||
|| basis_add_function_to_box            : 21.99M     502.06s   1.362%  ------ ||
|| lnv_gradient_norm                    :   190      519.92s   1.410%  ------ ||
|| kernel_fix                           :   190      571.36s   1.550%  ------ ||
|| xc_energy_potential                  :   385      601.79s   1.633%  ------ ||
|| integrals_locpot_mat_els_batch       :  1393      858.15s   2.328%  ------ ||
|| ngwf_gradient_build_batch            :   133      929.95s   2.523%  ------ ||
|| ngwf_gradient_batch                  :   133     1275.36s   3.460%  ------ ||
|| density_batch_row_sums               :  2688     1283.91s   3.483%  ------ ||
|| ngwf_gradient_lnv                    :    19     1429.69s   3.878%  ------ ||
|| restart_ngwfs_tightbox_output        :    17     1591.79s   4.318%  ------ ||
|| cell_grid_deposit_box_real           : 44212     1614.20s   4.379%  ------ ||
|| cell_grid_extract_box_real           : 48216     1926.00s   5.225%  ------ ||
|| sparse_product                       :  7707     2163.46s   5.869%  ------ ||
|| density_fftbox_deposit_to_cell       : 41856     2326.44s   6.311%  ------ ||
|| potential_apply_to_ngwf_batch        :  1393     4415.10s  11.977%  ------ ||
|| density_fftbox_interpolate_multiply  : 41856     4720.82s  12.807%  ------ ||
|| integrals_locpot_dbl_grid            :   199     5297.40s  14.371%  ------ ||
|| multigrid_prepare_bound_cond         :   385     5469.41s  14.837%  ------ ||
|| fourier_apply_box                    : 143.8k    5772.39s  15.659% 744.245 ||
|| density_batch_interp_deposit         :  2688     8083.29s  21.928%  ------ ||
|| dl_mg_solver_calls                   :   385     8389.83s  22.760%  ------ ||
|| density_on_dbl_grid                  :   384     9735.58s  26.411%  ------ ||
|| multigrid_calculate_hartree          :   385    14081.44s  38.200%  ------ ||
|| hamiltonian_lhxc_calculate           :   380    24449.01s  66.325%  ------ ||
|| lnv_denskernel_optimise_cg           :    19    30787.93s  83.522%  ------ ||
|| ngwf_cg_optimise                     :     2    35946.85s  97.517%  ------ ||
|| total_time                           :     1    36862.16s 100.000%  ------ ||
================================================================================
Overhead of generating timer report: 
- 0 ms averaging over threads,
- 19 ms ensuring consistency across MPI ranks,
- 0 ms printing in order.

Job completed: 04-02-2020 20:02 (-0000)

Application 38843099 resources: utime ~7646009s, stime ~262974s, Rss ~3775608, inblocks ~396849917, outblocks ~80673724
