 +---------------------------------------------------------------+
 |                                                               |
 |        ####### #     # ####### ####### ####### ######         |
 |        #     # ##    # #          #    #       #     #        |
 |        #     # # #   # #          #    #       #     #        |
 |        #     # #  #  # #####      #    #####   ######         |
 |        #     # #   # # #          #    #       #              |
 |        #     # #    ## #          #    #       #              |
 |        ####### #     # #######    #    ####### #              |
 |                                                               |
 |        Linear-Scaling Ab Initio Total Energy Program          |
 |                                                               |
 |          Release for academic collaborators of ODG            |
 |                                             Version 5.3.2.6.  |
 |                                                               |
 +---------------------------------------------------------------+
 |                                                               |
 |  Authors:                                                     |
 |  Jacek Dziedzic, Peter D. Haynes, Nicholas D. M. Hine,        |
 |  Arash. A. Mostofi, Mike C. Payne and Chris-Kriton Skylaris   |
 |                                                               |
 |  Contributors:                                                |
 |  J. Aarons, L. Andrinopoulos, P. W. Avraam, R. A. Bell,       |
 |  A. Bhandari, G. A. Bramley, R. J. Charlton, S. J. Clark,     |
 |  R. J. Clements, G. C. Constantinescu, F. Corsetti,           |
 |  N. Corsini, O. Dieguez, S. M. M. Dubois, K. K. B. Duff,      |
 |  J. M. Escartin, A. Greco, H. Helal, Q. O. Hill, L. P. Lee,   |
 |  J.-H. Li, E. B. Linscott, G. Moynihan, D. D. O`Regan,        |
 |  O. K. Okan, M. J. S. Phipps, C. J. Pickard,                  |
 |  J. C. A. Prentice, M. I. J. Probert, L. E. Ratcliff,         |
 |  M. Robinson, A. Ruiz Serrano, J. S. Spencer, E. W. Tait,     |
 |  G. Teobaldi, D. Turban, V. Vitale, K. A. Wilkinson,          |
 |  C. Weber, J. C. Womack, N. Yeung and T. J. Zuehlsdorff       |
 |                                                               |
 |                                   Copyright (c) 2004-2019     |
 |                                                               |
 |  Please cite:                                                 |
 |  "Introducing ONETEP: Linear-scaling density functional       |
 |   simulations on parallel computers".                         |
 |   C.-K. Skylaris, P. D. Haynes, A. A. Mostofi, M. C. Payne.   |
 |   J. Chem. Phys. 122 084119 (2005).                           |
 |                                                               |
 |          in all publications arising from your use of ONETEP. |
 |                                                               |
 +---------------------------------------------------------------+
 |                                                               |
 |   ONETEP is based on developments described in the following  |
 |   publications:                                               |
 |                                                               |
 |  "Nonorthogonal generalized Wannier function pseudopotential  |
 |   plane-wave method".                                         |
 |   C.-K. Skylaris, A. A. Mostofi, P. D. Haynes, O. Dieguez,    |
 |   M. C. Payne.                                                |
 |   Phys. Rev. B 66 035119 (2002).                              |
 |                                                               |
 |  "Preconditioned iterative minimization for linear-scaling    |
 |   electronic structure calculations".                         |
 |   A. A. Mostofi, P. D. Haynes, C.-K. Skylaris, M. C. Payne.   |
 |   J. Chem. Phys. 119(17), pp.8842-8848 (2003).                |
 |                                                               |
 |  "Total-energy calculations on a real space grid with         |
 |   localized functions and a plane-wave basis".                |
 |   A. A. Mostofi, C.-K. Skylaris, P. D. Haynes, M. C. Payne.   |
 |   Comput. Phys. Commun. 147, pp.788-802 (2002).               |
 |                                                               |
 |  "Accurate kinetic energy evaluation in electronic structure  |
 |   calculations with localized functions on real space grids"  |
 |   C.-K. Skylaris, A. A. Mostofi, P. D. Haynes, C. J. Pickard, |
 |   M. C. Payne.                                                |
 |   Comput. Phys. Commun. 140, pp.315-322 (2001).               |
 |                                                               |
 |  "Accurate ionic forces and geometry optimization in linear-  |
 |   scaling density-functional theory with local orbitals"      |
 |   N. D. M. Hine, M. Robinson, P. D. Haynes, C.-K. Skylaris,   |
 |   M. C. Payne, and A. A. Mostofi.                             |
 |   Phys. Rev. B 83 195102 (2011).                              |
 |                                                               |
 +---------------------------------------------------------------+

Job started: 21-03-2020 07:45 (-0000)
 
Reading parameters from file "host_27081.dat" ...... done

If your calculation crashes here, before "Checking processes and threads..."
is displayed, then your stack size is insufficient.
If so, use "ulimit -s unlimited" at runtime.
You can disable this check with "check_stack_size F".

Checking processes and threads...
   Determining the default number of threads...
      No default threads set at compilation time: defaulting to 1.
      OpenMP library call suggests 4 threads.
      Hybrid MPI-OpenMP compilation detected.
      Number of MPI processes > 1.
      OMP_NUM_THREADS environment variable present and
      its value matches the one obtained from the OpenMP library call.
      Using this value as default.
      Default threads: 4
      Default applies to threads_max and threads_num_fftboxes.
      Settings in the input file override this default.
   ... done

   Running with 60 MPI processes.
   There are 6 MPI processes running on the same node as the root process.
   Each MPI process is using: 
               1 threads for simulation cell FFTs.
               1 threads for parallel FFT box operations.
               4 threads for loops over batched FFT box operations.
               4 threads in other parallel regions.
... done

Basic input checks...... done

Reading geometry and species blocks from file "host_27081.dat" ...
  <species_atomic_set> block not found: NGWF initialisation set to SOLVE
IS: Dielectric excluded regions:
    - NONE.
    
  Number of PPD points along a3 set to 1.  This is 
  the default value, it may have been provided also in the input file.
... done
 Writing xyz coordinates to file "host_27081.xyz" ... done


--------------------------------------------------------------------------------
---------------------------------- INPUT FILE ----------------------------------
--------------------------------------------------------------------------------

cutoff_energy       : 800 eV                                                    
xc_functional PBE                                                               
task SINGLEPOINT                                                                
write_xyz true                                                                  
output_detail VERBOSE                                                           
ngwf_threshold_orig : 0.000002                                                  
kernel_cutoff       : 1000                                                      
k_zero              : 3.5                                                       
elec_cg_max 0                                                                   
occ_mix 1.0                                                                     
dispersion 1                                                                    
maxit_ngwf_cg 40                                                                
minit_lnv 10                                                                    
maxit_lnv 10                                                                    
write_denskern T                                                                
write_tightbox_ngwfs T                                                          
charge 9                                                                        
is_implicit_solvent T                                                           
is_auto_solvation T                                                             
is_include_apolar T                                                             
is_smeared_ion_rep T                                                            
is_solvent_surf_tension 4.7624E-5 Ha/bohr**2                                    
is_apolar_scaling_factor 0.281075                                               
is_solvation_beta 1.3                                                           
is_density_threshold 0.00035                                                    
is_bulk_permittivity 78.54                                                      
is_dielectric_model fix_initial                                                 
is_smeared_ion_width 0.8                                                        
mg_defco_fd_order 8                                                             
is_bc_coarseness 10                                                             
is_bc_surface_coarseness 1                                                      
fine_grid_scale 2.0                                                             
%block species                                                                  
N   N   7 4 8.0                                                                 
H   H   1 1 8.0                                                                 
C   C   6 4 8.0                                                                 
S   S  16 9 8.0                                                                 
O   O   8 4 8.0                                                                 
%endblock species                                                               
%block species_pot                                                              
N   N_00.recpot                                                                 
H   H_04.recpot                                                                 
C   C_01.recpot                                                                 
S   S_00.recpot                                                                 
O   O_02.recpot                                                                 
%endblock species_pot                                                           
%block lattice_cart                                                             
135.996   0.000   0.000                                                         
0.000 142.663   0.000                                                           
0.000   0.000   160.158                                                         
%endblock lattice_cart                                                          
%block positions_abs                                                            
     Hash =   000003679875566179381775
%endblock positions_abs                                                         

--------------------------------------------------------------------------------
-------------------------------- END INPUT FILE --------------------------------
--------------------------------------------------------------------------------


 
 ESDF WARNING(1): "kernelcutoff" (esdf_physical) has no units. Assume "bohr".
 ESDF WARNING(2): "kzero" (esdf_physical) has no units. Assume "1/bohr".
 ESDF WARNING(3
 ): "issmearedionwidth" (esdf_physical) has no units. Assume "bohr".
<<<<<<<<<<<<<<<<<<<<<<<<<<<<<<<<< Full system >>>>>>>>>>>>>>>>>>>>>>>>>>>>>>>>>>
<<<<<<<<<<<<<<<<<<<<<<<<< Pseudopotential information >>>>>>>>>>>>>>>>>>>>>>>>>>
File: N_00.recpot [ 2001 points up to Gmax=  52.9 (1/bohr)]
  Atomic number:  7;  ionic charge:  5.000000
    Shell 1: l = 0; rc = 1.48 bohr
File: H_04.recpot [ 2001 points up to Gmax=  52.9 (1/bohr)]
  Atomic number:  1;  ionic charge:  1.000000
    Local potential
File: C_01.recpot [ 2001 points up to Gmax=  52.9 (1/bohr)]
  Atomic number:  6;  ionic charge:  4.000000
    Shell 1: l = 0; rc = 1.48 bohr
File: S_00.recpot [ 2001 points up to Gmax=  52.9 (1/bohr)]
  Atomic number: 16;  ionic charge:  6.000000
    Shell 1: l = 0; rc = 1.90 bohr
    Shell 2: l = 2; rc = 1.84 bohr
File: O_02.recpot [ 2001 points up to Gmax=  52.9 (1/bohr)]
  Atomic number:  8;  ionic charge:  6.000000
    Shell 1: l = 0; rc = 1.31 bohr
<<<<<<<<<<<<<<<<<<<<<<<<<<<<<<<<<<<<<<<<>>>>>>>>>>>>>>>>>>>>>>>>>>>>>>>>>>>>>>>>

-------------------------- Atom counting information ---------------------------
Symbol    Natoms    Nngwfs    Nprojs
  N        236       944       236
  H       1311      1311         0
  C        810      3240       810
  S          6        54        36
  O        239       956       239
.......   ......    ......    ......
Totals:   2602      6505      1321
--------------------------------------------------------------------------------

=============================== PSINC grid sizes ===============================
                      Simulation cell:  270 x 286 x 315
                              FFT-box:   99 x 105 x  99
                                  PPD:    5 x  11 x   1
Grid space d1=  0.503688888889a0 (KE cutoff=  29.94189Eh = 814.76038eV)
Grid space d2=  0.498821678322a0 (KE cutoff=  30.52906Eh = 830.73786eV)
Grid space d3=  0.508438095238a0 (KE cutoff=  29.38514Eh = 799.61048eV)
================================================================================

********************* Fourier parallelisation information **********************
       Coarse grid (whole simulation cell) dimensions:    270   286   315
          Real-space ('12') slabs/node (min max mean):      5     6     5
         Recip-space ('23') slabs/node (min max mean):      2     3     2
********************************************************************************

********************* Fourier parallelisation information **********************
       Double grid (whole simulation cell) dimensions:    540   572   630
          Real-space ('12') slabs/node (min max mean):     10    11    10
         Recip-space ('23') slabs/node (min max mean):      4     5     4
********************************************************************************
ONETEP fine grid is 540 x 572 x 630 gridpoints, 135.9960 x 142.6630 x 160.1580 bohr.
FD multigrid is     537 x 569 x 625 gridpoints, 135.2405 x 141.9148 x 158.8869 bohr.


Calculating local pseudopotential in open BC on a radial grid ...
Discrepancy between calculated realspace psloc and -Z/x on [5a0,253.965a0]:
max |rel. diff| # avg |rel. diff| #  avg rel. diff #  f # pseudopotential file
 0.000259282084    0.000004141996   0.000000074978   54  'N_00.recpot'
 0.000405386992    0.000016970607  -0.000000075982   54  'H_04.recpot'
 0.000371694516    0.000017434762   0.000000149329   54  'C_01.recpot'
 0.000461642895    0.000020341726   0.000000491514   54  'S_00.recpot'
 0.000682525123    0.000027368244   0.000000159803   54  'O_02.recpot'
... done

Atom SCF Calculation for N  : Z (AE atom) =   7 : Z (PS atom) =   5
Config String:
Orbitals (num,occ):  2     2.00 3.00
Orbitals   (num,l):  2        0    1
Real-space Grid (nr,dr,rmax): 1203    0.0066555740    8.0000000000
Spherical Bessel Basis (nsws,lmax,cutoff):   47    1  176.3951722778
Confining potential (l,width,scale):  0    3.0000000000  100.0000000000
Confining potential (l,width,scale):  1    3.0000000000  100.0000000000
  1         -4.7312375307   -3.4155304497    7.0523828109   -1.9351020946
  2         -9.7309464766   -2.0532547791    8.2966052865   -2.2494486027
  3         -9.6627394379   -2.1124926340    8.2327997121   -2.2369778124
  4         -9.6814993499   -2.1215521045    8.2229805960   -2.2365178421
  5         -9.6843326483   -2.1250939529    8.2191374534   -2.2362718126
  6         -9.6859628709   -2.1267894855    8.2172963573   -2.2362066344
  7         -9.6867347035   -2.1276425665    8.2163697352   -2.2361903369
  8         -9.6870802100   -2.1280764625    8.2158983890   -2.2361891460
  9         -9.6872290423   -2.1282977424    8.2156580222   -2.2361920435
 10         -9.6872901988   -2.1284107021    8.2155353368   -2.2361953393
 11         -9.6873135296   -2.1284684031    8.2154726809   -2.2361979819
 12         -9.6873212476   -2.1284978948    8.2154406648   -2.2361998431
 13         -9.6873229586   -2.1285129774    8.2154242957   -2.2362010676
 14         -9.6873226456   -2.1285206957    8.2154159216   -2.2362018403
 15         -9.6873218534   -2.1285246479    8.2154116349   -2.2362023142
 16         -9.6873212599   -2.1285262679    8.2154098784   -2.2362025420
 17         -9.6873207834   -2.1285272564    8.2154088068   -2.2362026955
 18         -9.6873204210   -2.1285278596    8.2154081529   -2.2362027982
 19         -9.6873201550   -2.1285282280    8.2154077538   -2.2362028667
 20         -9.6873199645   -2.1285284529    8.2154075102   -2.2362029121
 21         -9.6873198305   -2.1285285903    8.2154073614   -2.2362029421
 22         -9.6873197377   -2.1285286742    8.2154072705   -2.2362029618
Atom SCF converged after  22 iterations to a total energy of     -9.68731974

Atom SCF Calculation for H  : Z (AE atom) =   1 : Z (PS atom) =   1
Config String:
Orbitals (num,occ):  1     1.00
Orbitals   (num,l):  1        0
Real-space Grid (nr,dr,rmax): 1203    0.0066555740    8.0000000000
Spherical Bessel Basis (nsws,lmax,cutoff):   47    0  176.3951722778
Confining potential (l,width,scale):  0    3.0000000000  100.0000000000
  1         -0.3194257691   -0.2393854593    0.2820953124   -0.2424203209
  2         -0.3951823392   -0.2377116493    0.2886404059   -0.2475147891
  3         -0.4317044583   -0.2352244387    0.2921333887   -0.2514046172
  4         -0.4470703708   -0.2341892222    0.2934391879   -0.2531009782
  5         -0.4532132900   -0.2338556667    0.2938388426   -0.2537313520
  6         -0.4556579251   -0.2337612552    0.2939448584   -0.2539550462
  7         -0.4566418315   -0.2337377355    0.2939680120   -0.2540342273
  8         -0.4570437922   -0.2337331116    0.2939708287   -0.2540627372
  9         -0.4572102946   -0.2337328328    0.2939698291   -0.2540732650
 10         -0.4572800424   -0.2337332404    0.2939687193   -0.2540772588
 11         -0.4573095100   -0.2337335791    0.2939680317   -0.2540788122
 12         -0.4573220379   -0.2337337762    0.2939676699   -0.2540794294
 13         -0.4573273880   -0.2337338775    0.2939674931   -0.2540796787
 14         -0.4573296803   -0.2337339266    0.2939674099   -0.2540797808
 15         -0.4573306647   -0.2337339495    0.2939673718   -0.2540798230
 16         -0.4573310882   -0.2337339601    0.2939673545   -0.2540798406
 17         -0.4573312706   -0.2337339649    0.2939673467   -0.2540798479
 18         -0.4573313493   -0.2337339670    0.2939673433   -0.2540798510
Atom SCF converged after  18 iterations to a total energy of     -0.45733135

Atom SCF Calculation for C  : Z (AE atom) =   6 : Z (PS atom) =   4
Config String:
Orbitals (num,occ):  2     2.00 2.00
Orbitals   (num,l):  2        0    1
Real-space Grid (nr,dr,rmax): 1203    0.0066555740    8.0000000000
Spherical Bessel Basis (nsws,lmax,cutoff):   47    1  176.3951722778
Confining potential (l,width,scale):  0    3.0000000000  100.0000000000
Confining potential (l,width,scale):  1    3.0000000000  100.0000000000
  1         -5.2976922011   -1.3069684169    4.5135249990   -1.4493313817
  2         -5.3721716256   -1.3429755895    4.4750154450   -1.4361613026
  3         -5.3809959565   -1.3617365618    4.4541655428   -1.4305930207
  4         -5.3918938866   -1.3667928461    4.4484735100   -1.4294652294
  5         -5.3956096428   -1.3688539142    4.4461376126   -1.4290734646
  6         -5.3968271862   -1.3696852393    4.4451910874   -1.4289366866
  7         -5.3972028401   -1.3700178062    4.4448112275   -1.4288900460
  8         -5.3973067903   -1.3701500158    4.4446598370   -1.4288749220
  9         -5.3973286940   -1.3702023868    4.4445997329   -1.4288704293
 10         -5.3973289850   -1.3702230869    4.4445759233   -1.4288693188
 11         -5.3973254264   -1.3702312560    4.4445665049   -1.4288691775
 12         -5.3973224003   -1.3702344755    4.4445627836   -1.4288692549
 13         -5.3973208708   -1.3702354890    4.4445616088   -1.4288693270
 14         -5.3973198783   -1.3702360102    4.4445610034   -1.4288693814
 15         -5.3973192535   -1.3702362780    4.4445606917   -1.4288694190
 16         -5.3973188684   -1.3702364155    4.4445605313   -1.4288694437
 17         -5.3973186349   -1.3702364860    4.4445604489   -1.4288694595
 18         -5.3973184951   -1.3702365221    4.4445604065   -1.4288694693
 19         -5.3973184122   -1.3702365405    4.4445603848   -1.4288694753
Atom SCF converged after  19 iterations to a total energy of     -5.39731841

Atom SCF Calculation for S  : Z (AE atom) =  16 : Z (PS atom) =   6
Config String:
Orbitals (num,occ):  3     2.00 4.00 0.00
Orbitals   (num,l):  3        0    1    2
Real-space Grid (nr,dr,rmax): 1203    0.0066555740    8.0000000000
Spherical Bessel Basis (nsws,lmax,cutoff):   47    2  176.3951722778
Confining potential (l,width,scale):  0    3.0000000000  100.0000000000
Confining potential (l,width,scale):  1    3.0000000000  100.0000000000
Confining potential (l,width,scale):  2    3.0000000000  100.0000000000
  1        -12.4735062396   -1.0328741412   10.1554312477   -2.4512393157
  2         -9.9458301913   -2.4607392455    8.3041325857   -2.0306994528
  3        -10.1450417646   -2.2931184565    8.4831893826   -2.0812538287
  4        -10.1528335592   -2.2733105793    8.5050388867   -2.0896035179
  5        -10.1571940363   -2.2633716629    8.5160794258   -2.0939370707
  6        -10.1594380571   -2.2584938667    8.5215163935   -2.0961289008
  7        -10.1605856507   -2.2561081821    8.5241804044   -2.0972291378
  8        -10.1611799191   -2.2549395235    8.5254868240   -2.0977806248
  9        -10.1614918752   -2.2543658586    8.5261285885   -2.0980571586
 10        -10.1616572884   -2.2540839121    8.5264441898   -2.0981959233
 11        -10.1617455602   -2.2539453058    8.5265994231   -2.0982656006
 12        -10.1617928447   -2.2538772062    8.5266757320   -2.0983006047
 13        -10.1618182292   -2.2538437891    8.5267131983   -2.0983181961
 14        -10.1618318741   -2.2538274201    8.5267315620   -2.0983270391
 15        -10.1618392144   -2.2538194197    8.5267405433   -2.0983314852
 16        -10.1618431651   -2.2538155200    8.5267449245   -2.0983337210
 17        -10.1618452923   -2.2538136252    8.5267470551   -2.0983348455
 18        -10.1618464380   -2.2538127080    8.5267480875   -2.0983354110
 19        -10.1618470552   -2.2538122659    8.5267485856   -2.0983356955
 20        -10.1618473878   -2.2538120540    8.5267488248   -2.0983358386
 21        -10.1618475670   -2.2538119530    8.5267489389   -2.0983359106
 22        -10.1618476637   -2.2538119053    8.5267489929   -2.0983359468
Atom SCF converged after  22 iterations to a total energy of    -10.16184766

Atom SCF Calculation for O  : Z (AE atom) =   8 : Z (PS atom) =   6
Config String:
Orbitals (num,occ):  2     2.00 4.00
Orbitals   (num,l):  2        0    1
Real-space Grid (nr,dr,rmax): 1203    0.0066555740    8.0000000000
Spherical Bessel Basis (nsws,lmax,cutoff):   47    1  176.3951722778
Confining potential (l,width,scale):  0    3.0000000000  100.0000000000
Confining potential (l,width,scale):  1    3.0000000000  100.0000000000
  1         -1.8735052164   -7.5539365035   10.1554312477   -2.4512393157
  2        -16.0318313751   -3.1285771268   13.6395848164   -3.2358799643
  3        -15.9524020423   -3.0762819706   13.6967272503   -3.2536856837
  4        -15.8521515939   -3.0781493909   13.6951909330   -3.2561700440
  5        -15.8357139793   -3.0748501933   13.6988803334   -3.2580493133
  6        -15.8246052853   -3.0740779781   13.6997881576   -3.2588327446
  7        -15.8189019501   -3.0737449687   13.7001869911   -3.2592378801
  8        -15.8159785510   -3.0736026016   13.7003615168   -3.2594475790
  9        -15.8144776168   -3.0735437994   13.7004360379   -3.2595560735
 10        -15.8137058024   -3.0735207882   13.7004667348   -3.2596122456
 11        -15.8133083127   -3.0735125946   13.7004786868   -3.2596413656
 12        -15.8131032938   -3.0735102195   13.7004828997   -3.2596564858
 13        -15.8129973902   -3.0735099286   13.7004840891   -3.2596643505
 14        -15.8129426040   -3.0735102506   13.7004842061   -3.2596684489
 15        -15.8129142203   -3.0735106556   13.7004840157   -3.2596705887
 16        -15.8128994940   -3.0735109855   13.7004837906   -3.2596717080
 17        -15.8128918425   -3.0735112169   13.7004836103   -3.2596722946
 18        -15.8128878614   -3.0735113674   13.7004834848   -3.2596726026
 19        -15.8128857871   -3.0735114608   13.7004834035   -3.2596727646
 20        -15.8128847048   -3.0735115170   13.7004833533   -3.2596728500
 21        -15.8128841394   -3.0735115501   13.7004833231   -3.2596728951
 22        -15.8128838436   -3.0735115693   13.7004833054   -3.2596729190
 23        -15.8128836887   -3.0735115802   13.7004832951   -3.2596729316
 24        -15.8128836074   -3.0735115864   13.7004832893   -3.2596729383
Atom SCF converged after  24 iterations to a total energy of    -15.81288361

========================== Calculation in vacuum ==============================
= Adjusting the following parameters: 
= is_implicit_solvent: F
= is_include_apolar: F
= write_denskern: T
= write_tightbox_ngwfs: T
= restart read filename prefix: ""
= restart write filename prefix: "vacuum_"
===============================================================================

Determining parallel strategy ...
... using space-filling curve
... NGWF load balancing: max    109;  min    108;  average    108
... Projector load balancing: max     25;  min     21;  average     22
... done
Calculating direct Ion-Ion energy ...
Ion-Ion Energy        :    826532.81702045165002
======================= Empirical dispersion information =======================
Model : Elstner
Dispersion Correction Energy: -0.32380368E+01 Hartree
================================================================================
Basis initialisation ...... NGWF spheres initialised
... Projector spheres initialised
... NGWF tight boxes initialised
... Tight-boxes gathered
... NGWF basis size (local,global):    1031260  62159139
... Nonlocal pseudopotential projector initialisation
... done

========================== Sparse matrix information ===========================
                        Overlap matrix filling:   6.71%
                        Density kernel filling: 100.00%
              NGWF-Proj overlap matrix filling:   1.77%
                    Hamiltonian matrix filling:   7.59%
                  NGWF diagonal matrix filling:   0.05%
                             KS matrix filling: 100.00% 
                           KSKS matrix filling: 100.00% 
================================================================================

Sparse matrix initialisation ... done

Generating smeared ion density ... done
Smeared ion self correction:     -14457.169564
Smeared ion non-self correction: -826484.708150
NGWF initialisation ...... done
============ Calculation of NGWF S^-1 using Hotelling algorithm ================ 
         Iteration  |  Frobenius norm and Maximum abs value    (of I-S*S_n^-1)   
               1       0.78467618E+02     0.98231984E+00
               2       0.76607605E+02     0.96513162E+00
               3       0.73598626E+02     0.93213800E+00
               4       0.69326520E+02     0.87111566E+00
               5       0.64010382E+02     0.76721124E+00
               6       0.58041840E+02     0.70413186E+00
               7       0.52047629E+02     0.67142903E+00
               8       0.46505442E+02     0.64110243E+00
               9       0.40429767E+02     0.60033515E+00
              10       0.32146007E+02     0.52900076E+00
              11       0.21564735E+02     0.43009635E+00
              12       0.10981613E+02     0.29075520E+00
              13       0.35991145E+01     0.13496806E+00
              14       0.56824410E+00     0.35830868E-01
              15       0.28131265E-01     0.34911235E-02
              16       0.17076527E-03     0.35302826E-04
              17       0.12482984E-07     0.36728194E-08
              18       0.93444316E-13     0.73274720E-14
================================================================================
Calculating local pseudopotential in open BC on the fine real space grid ...
... done

MG BCs: +ve charge blocks (gridpoints):     20563 (   16142822).
MG BCs: -ve charge blocks (gridpoints):      7998 (    1084181).
MG BCs:     Elided blocks (gridpoints):    173351 (  173743622).
MG BCs: Computational effort saved:  99.9850%.
MG BCs: Charge after coarse-graining:           -9.0002282.
MG DL_MG: Calling solver with defect correction order = 8
MG DL_MG: Solver finished
MG Hartree energy from (\int phi*rho dr):              1462.602415
MG Hartree energy from (\int eps (grad phi)^2 dr):     1461.985238
MG Discrepancy due to finite box and discretization:     -0.617177 (  -0.04220%)
MG Correction to account for finite box:                  0.466632
MG Remaining discrepancy, due to discretization:         -0.150545 (  -0.01029%)
Up spin density kernel initialisation ... 
======= Optimisation of K by Palser-Manolopoulos canonical purification ======== 
         Iteration  |  Band structure energy |    c_n   
               1       -2582.14845273701303    0.5268258
               2       -2757.85845555773585    0.5170706
               3       -2937.81382700506401    0.5155057
               4       -3087.96517970182185    0.5290086
               5       -3180.25888294061406    0.5648160
               6       -3218.83722572124680    0.6095159
               7       -3231.93007815960436    0.6203185
               8       -3237.62133851590215    0.6159526
               9       -3240.39571944275713    0.6234257
              10       -3241.55510848863923    0.6406031
              11       -3241.99875234813999    0.6574038
              12       -3242.17527535046065    0.6535477
              13       -3242.25681352555921    0.6008816
              14       -3242.30419936782164    0.5089282
              15       -3242.32898542642897    0.3781541
              16       -3242.33156733220585    0.3014993
              17       -3242.33205275970249    0.2947689
              18       -3242.33223840506616    0.3208250
              19       -3242.33241914628070    0.3584890
              20       -3242.33259160108901    0.4070424
              21       -3242.33272962302408    0.4578972
              22       -3242.33280694786617    0.4911263
              23       -3242.33283255911556    0.4996042
              24       -3242.33284653461033    0.4999992
              25       -3242.33286470211124    0.5000000
              26       -3242.33288708445798    0.5000000
              27       -3242.33290888359488    0.5000000
              28       -3242.33292188677069    0.5000000
              29       -3242.33292487372410    0.5000000
              30       -3242.33292499347954    0.5000000
Termination criterion satisfied: band energy change below threshold.
Final occupancy bounds: [    0.00000000000074:    0.99999999995059]
Closest occupancy to 0.5:     0.99999999999255
================================================================================
... done

Writing density kernel to file "host_27081.vacuum_dkn" ... done

>>> Optimising kernel for current NGWFs:
   Initial electron number for spin 1:    7192.00000000
     Final electron number for spin 1:    7192.00000000

=================== Penalty functional idempotency correction ==================
 RMS occupancy error at iteration   1:  0.000000 (step -0.5000 Ne1=   7192.0000)
            Final RMS occupancy error   :  0.000000 (Ne1=   7192.0000)
               Final occupancy bounds   : [  0.0000,  1.0000]
================================================================================

................................................................................
<<<<<<<<<<<<<< LNV (Original version) density kernel optimisation >>>>>>>>>>>>>>
~~~~~~~~~~~~~~~~~~~~~~~~~~~~~~~~~~~~~~~~~~~~~~~~~~~~~~~~~~~~~~~~~~~~~~~~~~~~~~~~
   iter  |      energy (Eh)       | rms gradient |  commutator  |   dE (Eh)
MG BCs: +ve charge blocks (gridpoints):     30895 (   17283437).
MG BCs: -ve charge blocks (gridpoints):      8342 (    1117067).
MG BCs:     Elided blocks (gridpoints):    163011 (  172570121).
MG BCs: Computational effort saved:  99.9795%.
MG BCs: Charge after coarse-graining:           -9.0009679.
MG DL_MG: Calling solver with defect correction order = 8
MG DL_MG: Solver finished
MG Hartree energy from (\int phi*rho dr):              1418.277630
MG Hartree energy from (\int eps (grad phi)^2 dr):     1417.600145
MG Discrepancy due to finite box and discretization:     -0.677485 (  -0.04777%)
MG Correction to account for finite box:                  0.484097
MG Remaining discrepancy, due to discretization:         -0.193389 (  -0.01364%)
      ideal mu1:      -0.691979589795
             Q0:  -11506.772888892912
             G0:    -145.389354825389
   RMS gradient:       0.001853612732
MG BCs: +ve charge blocks (gridpoints):     30841 (   17365823).
MG BCs: -ve charge blocks (gridpoints):      8249 (    1097071).
MG BCs:     Elided blocks (gridpoints):    163067 (  172507731).
MG BCs: Computational effort saved:  99.9795%.
MG BCs: Charge after coarse-graining:           -9.0009885.
MG DL_MG: Calling solver with defect correction order = 8
MG DL_MG: Solver finished
MG Hartree energy from (\int phi*rho dr):              1443.073275
MG Hartree energy from (\int eps (grad phi)^2 dr):     1442.412609
MG Discrepancy due to finite box and discretization:     -0.660666 (  -0.04578%)
MG Correction to account for finite box:                  0.483066
MG Remaining discrepancy, due to discretization:         -0.177600 (  -0.01231%)
     Trial step:       0.500000000000
             Q1:  -11518.321401126217
 Quadratic coef:      61.146165179391
 Linear coef   :     -72.694677412695
           Qmin:  -11528.378970437978
Quadratic minimum step length (  0.297216829540) accepted
    Initial Ne1:    7192.00000000
      Final Ne1:    7192.00000000

=================== Penalty functional idempotency correction ==================
 RMS occupancy error at iteration   1:  0.003425 (step -0.4884 Ne1=   7192.0000)
 RMS occupancy error at iteration   2:  0.000027 (step -0.5001 Ne1=   7192.0000)
            Final RMS occupancy error   :  0.000000 (Ne1=   7192.0000)
               Final occupancy bounds   : [  0.0000,  1.0000]
================================================================================

    1        -1.150677288889E+04     1.8536E-03     1.6766E-03
MG BCs: +ve charge blocks (gridpoints):     30869 (   17333616).
MG BCs: -ve charge blocks (gridpoints):      8279 (    1105754).
MG BCs:     Elided blocks (gridpoints):    163038 (  172531255).
MG BCs: Computational effort saved:  99.9795%.
MG BCs: Charge after coarse-graining:           -9.0009802.
MG DL_MG: Calling solver with defect correction order = 8
MG DL_MG: Solver finished
MG Hartree energy from (\int phi*rho dr):              1425.057119
MG Hartree energy from (\int eps (grad phi)^2 dr):     1424.390557
MG Discrepancy due to finite box and discretization:     -0.666562 (  -0.04677%)
MG Correction to account for finite box:                  0.483385
MG Remaining discrepancy, due to discretization:         -0.183177 (  -0.01285%)
      ideal mu1:      -0.739205398520
             Q0:  -11528.785569831962
             G0:     -12.215259272828
   RMS gradient:       0.000533644648
MG BCs: +ve charge blocks (gridpoints):     30861 (   17350482).
MG BCs: -ve charge blocks (gridpoints):      8255 (    1100650).
MG BCs:     Elided blocks (gridpoints):    163046 (  172519493).
MG BCs: Computational effort saved:  99.9795%.
MG BCs: Charge after coarse-graining:           -9.0009838.
MG DL_MG: Calling solver with defect correction order = 8
MG DL_MG: Solver finished
MG Hartree energy from (\int phi*rho dr):              1430.156655
MG Hartree energy from (\int eps (grad phi)^2 dr):     1429.494414
MG Discrepancy due to finite box and discretization:     -0.662241 (  -0.04631%)
MG Correction to account for finite box:                  0.482289
MG Remaining discrepancy, due to discretization:         -0.179952 (  -0.01258%)
     Trial step:       0.385497619669
             Q1:  -11531.646916889120
 Quadratic coef:       1.847606316152
 Linear coef   :      -4.708953373311
           Qmin:  -11531.785971172627
Quadratic minimum step length (  0.491254630565) accepted
    Initial Ne1:    7191.99989076
      Final Ne1:    7192.00000000

=================== Penalty functional idempotency correction ==================
 RMS occupancy error at iteration   1:  0.001821 (step -0.4930 Ne1=   7192.0000)
 RMS occupancy error at iteration   2:  0.000011 (step -0.5001 Ne1=   7192.0000)
            Final RMS occupancy error   :  0.000000 (Ne1=   7192.0000)
               Final occupancy bounds   : [  0.0000,  1.0000]
================================================================================

    2        -1.152878556983E+04     5.3364E-04     4.8267E-04    -2.2013E+01
MG BCs: +ve charge blocks (gridpoints):     30857 (   17355263).
MG BCs: -ve charge blocks (gridpoints):      8257 (    1099179).
MG BCs:     Elided blocks (gridpoints):    163050 (  172516183).
MG BCs: Computational effort saved:  99.9795%.
MG BCs: Charge after coarse-graining:           -9.0009847.
MG DL_MG: Calling solver with defect correction order = 8
MG DL_MG: Solver finished
MG Hartree energy from (\int phi*rho dr):              1431.604910
MG Hartree energy from (\int eps (grad phi)^2 dr):     1430.943778
MG Discrepancy due to finite box and discretization:     -0.661132 (  -0.04618%)
MG Correction to account for finite box:                  0.482002
MG Remaining discrepancy, due to discretization:         -0.179130 (  -0.01251%)
      ideal mu1:      -0.764787981550
             Q0:  -11531.823403567891
             G0:      -1.952583661209
   RMS gradient:       0.000213445213
MG BCs: +ve charge blocks (gridpoints):     30860 (   17354733).
MG BCs: -ve charge blocks (gridpoints):      8261 (    1100112).
MG BCs:     Elided blocks (gridpoints):    163047 (  172515780).
MG BCs: Computational effort saved:  99.9795%.
MG BCs: Charge after coarse-graining:           -9.0009845.
MG DL_MG: Calling solver with defect correction order = 8
MG DL_MG: Solver finished
MG Hartree energy from (\int phi*rho dr):              1429.431890
MG Hartree energy from (\int eps (grad phi)^2 dr):     1428.771589
MG Discrepancy due to finite box and discretization:     -0.660301 (  -0.04619%)
MG Correction to account for finite box:                  0.481392
MG Remaining discrepancy, due to discretization:         -0.178908 (  -0.01252%)
     Trial step:       0.435175241407
             Q1:  -11532.324347327813
 Quadratic coef:       0.348772306214
 Linear coef   :      -0.849716066135
           Qmin:  -11532.340945657805
Quadratic minimum step length (  0.530110028262) accepted
    Initial Ne1:    7191.99993595
      Final Ne1:    7192.00000000

=================== Penalty functional idempotency correction ==================
 RMS occupancy error at iteration   1:  0.000653 (step -0.4968 Ne1=   7192.0000)
 RMS occupancy error at iteration   2:  0.000004 (step -0.5000 Ne1=   7192.0000)
            Final RMS occupancy error   :  0.000000 (Ne1=   7192.0000)
               Final occupancy bounds   : [  0.0000,  1.0000]
================================================================================

    3        -1.153182340357E+04     2.1345E-04     1.9306E-04    -3.0378E+00
MG BCs: +ve charge blocks (gridpoints):     30863 (   17354675).
MG BCs: -ve charge blocks (gridpoints):      8261 (    1100296).
MG BCs:     Elided blocks (gridpoints):    163044 (  172515654).
MG BCs: Computational effort saved:  99.9795%.
MG BCs: Charge after coarse-graining:           -9.0009844.
MG DL_MG: Calling solver with defect correction order = 8
MG DL_MG: Solver finished
MG Hartree energy from (\int phi*rho dr):              1428.967370
MG Hartree energy from (\int eps (grad phi)^2 dr):     1428.307239
MG Discrepancy due to finite box and discretization:     -0.660131 (  -0.04620%)
MG Correction to account for finite box:                  0.481261
MG Remaining discrepancy, due to discretization:         -0.178870 (  -0.01252%)
      ideal mu1:      -0.765879418407
             Q0:  -11532.345835064654
             G0:      -0.522420346539
   RMS gradient:       0.000110538356
MG BCs: +ve charge blocks (gridpoints):     30862 (   17355431).
MG BCs: -ve charge blocks (gridpoints):      8262 (    1100120).
MG BCs:     Elided blocks (gridpoints):    163045 (  172515074).
MG BCs: Computational effort saved:  99.9795%.
MG BCs: Charge after coarse-graining:           -9.0009846.
MG DL_MG: Calling solver with defect correction order = 8
MG DL_MG: Solver finished
MG Hartree energy from (\int phi*rho dr):              1430.239240
MG Hartree energy from (\int eps (grad phi)^2 dr):     1429.579197
MG Discrepancy due to finite box and discretization:     -0.660043 (  -0.04615%)
MG Correction to account for finite box:                  0.481092
MG Remaining discrepancy, due to discretization:         -0.178951 (  -0.01251%)
     Trial step:       0.480302779007
             Q1:  -11532.478603025898
 Quadratic coef:       0.118151983008
 Linear coef   :      -0.250919944252
           Qmin:  -11532.479055042899
Quadratic minimum step length (  0.510010680585) accepted
    Initial Ne1:    7191.99998356
      Final Ne1:    7192.00000000

=================== Penalty functional idempotency correction ==================
 RMS occupancy error at iteration   1:  0.000321 (step -0.4940 Ne1=   7192.0000)
 RMS occupancy error at iteration   2:  0.000004 (step -0.5000 Ne1=   7192.0000)
            Final RMS occupancy error   :  0.000000 (Ne1=   7192.0000)
               Final occupancy bounds   : [  0.0000,  1.0000]
================================================================================

    4        -1.153234583506E+04     1.1054E-04     9.9979E-05    -5.2243E-01
MG BCs: +ve charge blocks (gridpoints):     30862 (   17355465).
MG BCs: -ve charge blocks (gridpoints):      8261 (    1100109).
MG BCs:     Elided blocks (gridpoints):    163045 (  172515051).
MG BCs: Computational effort saved:  99.9795%.
MG BCs: Charge after coarse-graining:           -9.0009847.
MG DL_MG: Calling solver with defect correction order = 8
MG DL_MG: Solver finished
MG Hartree energy from (\int phi*rho dr):              1430.318653
MG Hartree energy from (\int eps (grad phi)^2 dr):     1429.658615
MG Discrepancy due to finite box and discretization:     -0.660038 (  -0.04615%)
MG Correction to account for finite box:                  0.481082
MG Remaining discrepancy, due to discretization:         -0.178957 (  -0.01251%)
      ideal mu1:      -0.766149045427
             Q0:  -11532.479690931970
             G0:      -0.217424480419
   RMS gradient:       0.000071530934
MG BCs: +ve charge blocks (gridpoints):     30858 (   17355729).
MG BCs: -ve charge blocks (gridpoints):      8258 (    1099806).
MG BCs:     Elided blocks (gridpoints):    163049 (  172515090).
MG BCs: Computational effort saved:  99.9795%.
MG BCs: Charge after coarse-graining:           -9.0009847.
MG DL_MG: Calling solver with defect correction order = 8
MG DL_MG: Solver finished
MG Hartree energy from (\int phi*rho dr):              1430.783299
MG Hartree energy from (\int eps (grad phi)^2 dr):     1430.123228
MG Discrepancy due to finite box and discretization:     -0.660071 (  -0.04613%)
MG Correction to account for finite box:                  0.480947
MG Remaining discrepancy, due to discretization:         -0.179124 (  -0.01252%)
     Trial step:       0.494933881653
             Q1:  -11532.552661633701
 Quadratic coef:       0.034640040329
 Linear coef   :      -0.107610742060
           Qmin:  -11532.563265255909
Quadratic minimum step length (  0.768766458844) accepted
    Initial Ne1:    7191.99998914
      Final Ne1:    7192.00000000

=================== Penalty functional idempotency correction ==================
 RMS occupancy error at iteration   1:  0.000731 (step -0.4602 Ne1=   7192.0000)
 RMS occupancy error at iteration   2:  0.000022 (step -0.5000 Ne1=   7192.0000)
            Final RMS occupancy error   :  0.000000 (Ne1=   7192.0000)
               Final occupancy bounds   : [  0.0000,  1.0000]
================================================================================

    5        -1.153247969093E+04     7.1531E-05     6.4698E-05    -1.3386E-01
MG BCs: +ve charge blocks (gridpoints):     30860 (   17355848).
MG BCs: -ve charge blocks (gridpoints):      8258 (    1099684).
MG BCs:     Elided blocks (gridpoints):    163047 (  172515093).
MG BCs: Computational effort saved:  99.9795%.
MG BCs: Charge after coarse-graining:           -9.0009847.
MG DL_MG: Calling solver with defect correction order = 8
MG DL_MG: Solver finished
MG Hartree energy from (\int phi*rho dr):              1431.038781
MG Hartree energy from (\int eps (grad phi)^2 dr):     1430.378693
MG Discrepancy due to finite box and discretization:     -0.660088 (  -0.04613%)
MG Correction to account for finite box:                  0.480872
MG Remaining discrepancy, due to discretization:         -0.179217 (  -0.01252%)
      ideal mu1:      -0.766011382265
             Q0:  -11532.561267879442
             G0:      -0.238471115655
   RMS gradient:       0.000076322729
MG BCs: +ve charge blocks (gridpoints):     30864 (   17354937).
MG BCs: -ve charge blocks (gridpoints):      8260 (    1100248).
MG BCs:     Elided blocks (gridpoints):    163043 (  172515440).
MG BCs: Computational effort saved:  99.9795%.
MG BCs: Charge after coarse-graining:           -9.0009845.
MG DL_MG: Calling solver with defect correction order = 8
MG DL_MG: Solver finished
MG Hartree energy from (\int phi*rho dr):              1429.465806
MG Hartree energy from (\int eps (grad phi)^2 dr):     1428.805880
MG Discrepancy due to finite box and discretization:     -0.659926 (  -0.04617%)
MG Correction to account for finite box:                  0.480716
MG Remaining discrepancy, due to discretization:         -0.179210 (  -0.01254%)
     Trial step:       0.616837553623
             Q1:  -11532.659702173085
 Quadratic coef:       0.048663645948
 Linear coef   :      -0.147097939591
           Qmin:  -11532.672427880971
Quadratic minimum step length (  0.932272247919) accepted
    Initial Ne1:    7191.99990783
      Final Ne1:    7192.00000000

=================== Penalty functional idempotency correction ==================
 RMS occupancy error at iteration   1:  0.004140 (step -0.3277 Ne1=   7192.0000)
 RMS occupancy error at iteration   2:  0.000316 (step -0.4899 Ne1=   7192.0000)
 RMS occupancy error at iteration   3:  0.000008 (step -0.5004 Ne1=   7192.0000)
            Final RMS occupancy error   :  0.000000 (Ne1=   7192.0000)
               Final occupancy bounds   : [  0.0000,  1.0000]
================================================================================

    6        -1.153256126788E+04     7.6323E-05     6.9032E-05    -8.1577E-02
MG BCs: +ve charge blocks (gridpoints):     30865 (   17354591).
MG BCs: -ve charge blocks (gridpoints):      8260 (    1100474).
MG BCs:     Elided blocks (gridpoints):    163042 (  172515560).
MG BCs: Computational effort saved:  99.9795%.
MG BCs: Charge after coarse-graining:           -9.0009843.
MG DL_MG: Calling solver with defect correction order = 8
MG DL_MG: Solver finished
MG Hartree energy from (\int phi*rho dr):              1428.692411
MG Hartree energy from (\int eps (grad phi)^2 dr):     1428.032539
MG Discrepancy due to finite box and discretization:     -0.659872 (  -0.04619%)
MG Correction to account for finite box:                  0.480663
MG Remaining discrepancy, due to discretization:         -0.179209 (  -0.01254%)
      ideal mu1:      -0.765387085392
             Q0:  -11532.662356713903
             G0:      -0.314246035969
   RMS gradient:       0.000086176252
MG BCs: +ve charge blocks (gridpoints):     30857 (   17356202).
MG BCs: -ve charge blocks (gridpoints):      8259 (    1099665).
MG BCs:     Elided blocks (gridpoints):    163050 (  172514758).
MG BCs: Computational effort saved:  99.9795%.
MG BCs: Charge after coarse-graining:           -9.0009848.
MG DL_MG: Calling solver with defect correction order = 8
MG DL_MG: Solver finished
MG Hartree energy from (\int phi*rho dr):              1430.622819
MG Hartree energy from (\int eps (grad phi)^2 dr):     1429.963205
MG Discrepancy due to finite box and discretization:     -0.659614 (  -0.04611%)
MG Correction to account for finite box:                  0.480657
MG Remaining discrepancy, due to discretization:         -0.178957 (  -0.01251%)
     Trial step:       0.758327457447
             Q1:  -11532.766489336384
 Quadratic coef:       0.134168774988
 Linear coef   :      -0.238301397469
           Qmin:  -11532.768170372932
Quadratic minimum step length (  0.673444670209) accepted
    Initial Ne1:    7191.99994977
      Final Ne1:    7192.00000000

=================== Penalty functional idempotency correction ==================
 RMS occupancy error at iteration   1:  0.000177 (step -0.4903 Ne1=   7192.0000)
 RMS occupancy error at iteration   2:  0.000001 (step -0.5000 Ne1=   7192.0000)
            Final RMS occupancy error   :  0.000000 (Ne1=   7192.0000)
               Final occupancy bounds   : [  0.0000,  1.0000]
================================================================================

    7        -1.153266235671E+04     8.6176E-05     7.7944E-05    -1.0109E-01
MG BCs: +ve charge blocks (gridpoints):     30858 (   17355980).
MG BCs: -ve charge blocks (gridpoints):      8259 (    1099777).
MG BCs:     Elided blocks (gridpoints):    163049 (  172514868).
MG BCs: Computational effort saved:  99.9795%.
MG BCs: Charge after coarse-graining:           -9.0009848.
MG DL_MG: Calling solver with defect correction order = 8
MG DL_MG: Solver finished
MG Hartree energy from (\int phi*rho dr):              1430.406286
MG Hartree energy from (\int eps (grad phi)^2 dr):     1429.746644
MG Discrepancy due to finite box and discretization:     -0.659642 (  -0.04612%)
MG Correction to account for finite box:                  0.480657
MG Remaining discrepancy, due to discretization:         -0.178985 (  -0.01251%)
      ideal mu1:      -0.766466708802
             Q0:  -11532.768253647606
             G0:      -0.223969745694
   RMS gradient:       0.000072735337
MG BCs: +ve charge blocks (gridpoints):     30856 (   17356068).
MG BCs: -ve charge blocks (gridpoints):      8257 (    1099720).
MG BCs:     Elided blocks (gridpoints):    163051 (  172514837).
MG BCs: Computational effort saved:  99.9795%.
MG BCs: Charge after coarse-graining:           -9.0009848.
MG DL_MG: Calling solver with defect correction order = 8
MG DL_MG: Solver finished
MG Hartree energy from (\int phi*rho dr):              1430.342095
MG Hartree energy from (\int eps (grad phi)^2 dr):     1429.682507
MG Discrepancy due to finite box and discretization:     -0.659588 (  -0.04611%)
MG Correction to account for finite box:                  0.480721
MG Remaining discrepancy, due to discretization:         -0.178867 (  -0.01251%)
     Trial step:       0.714626884808
             Q1:  -11532.853725871420
 Quadratic coef:       0.074582577841
 Linear coef   :      -0.160054801657
           Qmin:  -11532.854123365021
Quadratic minimum step length (  0.766797472125) accepted
    Initial Ne1:    7191.99995917
      Final Ne1:    7192.00000000

=================== Penalty functional idempotency correction ==================
 RMS occupancy error at iteration   1:  0.000974 (step -0.4490 Ne1=   7192.0000)
 RMS occupancy error at iteration   2:  0.000012 (step -0.4998 Ne1=   7192.0000)
            Final RMS occupancy error   :  0.000000 (Ne1=   7192.0000)
               Final occupancy bounds   : [ -0.0000,  1.0000]
================================================================================

    8        -1.153276825365E+04     7.2735E-05     6.5787E-05    -1.0590E-01
MG BCs: +ve charge blocks (gridpoints):     30856 (   17356076).
MG BCs: -ve charge blocks (gridpoints):      8257 (    1099702).
MG BCs:     Elided blocks (gridpoints):    163051 (  172514847).
MG BCs: Computational effort saved:  99.9795%.
MG BCs: Charge after coarse-graining:           -9.0009848.
MG DL_MG: Calling solver with defect correction order = 8
MG DL_MG: Solver finished
MG Hartree energy from (\int phi*rho dr):              1430.339370
MG Hartree energy from (\int eps (grad phi)^2 dr):     1429.679787
MG Discrepancy due to finite box and discretization:     -0.659583 (  -0.04611%)
MG Correction to account for finite box:                  0.480724
MG Remaining discrepancy, due to discretization:         -0.178859 (  -0.01250%)
      ideal mu1:      -0.766213165910
             Q0:  -11532.853881613002
             G0:      -0.183862782257
   RMS gradient:       0.000065873516
MG BCs: +ve charge blocks (gridpoints):     30861 (   17355434).
MG BCs: -ve charge blocks (gridpoints):      8255 (    1100005).
MG BCs:     Elided blocks (gridpoints):    163046 (  172515186).
MG BCs: Computational effort saved:  99.9795%.
MG BCs: Charge after coarse-graining:           -9.0009846.
MG DL_MG: Calling solver with defect correction order = 8
MG DL_MG: Solver finished
MG Hartree energy from (\int phi*rho dr):              1429.449269
MG Hartree energy from (\int eps (grad phi)^2 dr):     1428.789545
MG Discrepancy due to finite box and discretization:     -0.659724 (  -0.04615%)
MG Correction to account for finite box:                  0.480902
MG Remaining discrepancy, due to discretization:         -0.178822 (  -0.01251%)
     Trial step:       0.740252719538
             Q1:  -11532.923397765146
 Quadratic coef:       0.066588772444
 Linear coef   :      -0.136104924587
           Qmin:  -11532.923429938557
Quadratic minimum step length (  0.756524237269) accepted
    Initial Ne1:    7192.00004961
      Final Ne1:    7192.00000000

=================== Penalty functional idempotency correction ==================
 RMS occupancy error at iteration   1:  0.002396 (step -0.3895 Ne1=   7192.0000)
 RMS occupancy error at iteration   2:  0.000067 (step -0.4992 Ne1=   7192.0000)
 RMS occupancy error at iteration   3:  0.000000 (step -0.5000 Ne1=   7192.0000)
            Final RMS occupancy error   :  0.000000 (Ne1=   7192.0000)
               Final occupancy bounds   : [  0.0000,  1.0000]
================================================================================

    9        -1.153285388161E+04     6.5874E-05     5.9581E-05    -8.5628E-02
MG BCs: +ve charge blocks (gridpoints):     30861 (   17355424).
MG BCs: -ve charge blocks (gridpoints):      8255 (    1100017).
MG BCs:     Elided blocks (gridpoints):    163046 (  172515184).
MG BCs: Computational effort saved:  99.9795%.
MG BCs: Charge after coarse-graining:           -9.0009846.
MG DL_MG: Calling solver with defect correction order = 8
MG DL_MG: Solver finished
MG Hartree energy from (\int phi*rho dr):              1429.432914
MG Hartree energy from (\int eps (grad phi)^2 dr):     1428.773185
MG Discrepancy due to finite box and discretization:     -0.659729 (  -0.04615%)
MG Correction to account for finite box:                  0.480907
MG Remaining discrepancy, due to discretization:         -0.178822 (  -0.01251%)
      ideal mu1:      -0.765502083221
   10        -1.153292517011E+04     5.6745E-05     5.1324E-05    -7.1288E-02
Finished density kernel iterations (  10)

Writing density kernel to file "host_27081.vacuum_dkn" ... done


>>> Density kernel optimised for the current NGWF basis:
     ~~~~~~~~~~~~~~~~~~~~~~~~~~~~~~~~~~~~~~~~~~~~~~~~~~~~~~~~~~~
     Total energy                =  -1.15329251701084E+04  Eh
     Estimated bandgap           =  -4.9305E-01  Eh
     RMS occupancy error         =   1.2073E-11
     [H,K] commutator            =   5.1324E-05
     Occupancy bounds            = [  0.000:  1.000]
     ~~~~~~~~~~~~~~~~~~~~~~~~~~~~~~~~~~~~~~~~~~~~~~~~~~~~~~~~~~~




################################################################################
########################### NGWF CG iteration  001 #############################
################################################################################
****** Reciprocal space K.E. preconditioning with k_zero =  3.5000 a0^-1 *******

>>> Checking for convergence of NGWFs:   NOT CONVERGED
  ========================================================================
         NGWF RMS gradient =  1.5842E-03 >  2.0000E-06  | above tolerance
  ========================================================================

>>> Improving NGWFs using line search:
============ Calculation of NGWF S^-1 using Hotelling algorithm ================ 
         Iteration  |  Frobenius norm and Maximum abs value    (of I-S*S_n^-1)   
               1       0.19467409E+00     0.50932553E-02
               2       0.87742960E-03     0.42269300E-04
               3       0.30655366E-07     0.31128263E-08
               4       0.12325941E-12     0.49960036E-14
================================================================================
MG BCs: +ve charge blocks (gridpoints):     30409 (   17297430).
MG BCs: -ve charge blocks (gridpoints):      8273 (    1100027).
MG BCs:     Elided blocks (gridpoints):    163500 (  172573168).
MG BCs: Computational effort saved:  99.9797%.
MG BCs: Charge after coarse-graining:           -9.0009880.
MG DL_MG: Calling solver with defect correction order = 8
MG DL_MG: Solver finished
MG Hartree energy from (\int phi*rho dr):              1397.871228
MG Hartree energy from (\int eps (grad phi)^2 dr):     1397.212385
MG Discrepancy due to finite box and discretization:     -0.658843 (  -0.04713%)
MG Correction to account for finite box:                  0.480766
MG Remaining discrepancy, due to discretization:         -0.178077 (  -0.01274%)
============ Calculation of NGWF S^-1 using Hotelling algorithm ================ 
         Iteration  |  Frobenius norm and Maximum abs value    (of I-S*S_n^-1)   
               1       0.18412800E+01     0.41563269E-01
               2       0.70377121E-01     0.26068122E-02
               3       0.13966481E-03     0.11960534E-04
               4       0.11155652E-08     0.26390878E-09
               5       0.10879410E-12     0.58841820E-14
================================================================================
------------------------------- NGWF line search -------------------------------
RMS gradient                =       0.00158418181464
Trial step length           =               0.122474
Gradient along search dir.  =       -274.07545500733
Functional at step 0        =  -11532.92517010844313
Functional at step 1        =  -11563.94207558990456
Functional predicted        =  -11643.37691188150711
Selected quadratic step     =               0.805995
--------------------------- NGWF line search finished --------------------------
                                               
Writing NGWFs to file "host_27081.vacuum_tightbox_ngwfs"....  done

>>> Optimising kernel for current NGWFs:
   Initial electron number for spin 1:    7226.44438302
     Final electron number for spin 1:    7192.00000000

=================== Penalty functional idempotency correction ==================
 RMS occupancy error at iteration   1:  0.004279 (step -0.4860 Ne1=   7192.0000)
 RMS occupancy error at iteration   2:  0.000071 (step -0.5003 Ne1=   7192.0000)
            Final RMS occupancy error   :  0.000000 (Ne1=   7192.0000)
               Final occupancy bounds   : [  0.0000,  1.0000]
================================================================================

................................................................................
<<<<<<<<<<<<<< LNV (Original version) density kernel optimisation >>>>>>>>>>>>>>
~~~~~~~~~~~~~~~~~~~~~~~~~~~~~~~~~~~~~~~~~~~~~~~~~~~~~~~~~~~~~~~~~~~~~~~~~~~~~~~~
   iter  |      energy (Eh)       | rms gradient |  commutator  |   dE (Eh)
MG BCs: +ve charge blocks (gridpoints):     24609 (   17021688).
MG BCs: -ve charge blocks (gridpoints):      8391 (    1083385).
MG BCs:     Elided blocks (gridpoints):    169305 (  172865552).
MG BCs: Computational effort saved:  99.9827%.
MG BCs: Charge after coarse-graining:           -9.0006643.
MG DL_MG: Calling solver with defect correction order = 8
MG DL_MG: Solver finished
MG Hartree energy from (\int phi*rho dr):              1243.875889
MG Hartree energy from (\int eps (grad phi)^2 dr):     1243.217305
MG Discrepancy due to finite box and discretization:     -0.658584 (  -0.05295%)
MG Correction to account for finite box:                  0.480080
MG Remaining discrepancy, due to discretization:         -0.178504 (  -0.01435%)
      ideal mu1:      -0.706693226150
             Q0:  -11642.575854617986
             G0:     -10.147806749994
   RMS gradient:       0.000489709798
MG BCs: +ve charge blocks (gridpoints):     24673 (   17036539).
MG BCs: -ve charge blocks (gridpoints):      8386 (    1080028).
MG BCs:     Elided blocks (gridpoints):    169241 (  172854058).
MG BCs: Computational effort saved:  99.9827%.
MG BCs: Charge after coarse-graining:           -9.0006607.
MG DL_MG: Calling solver with defect correction order = 8
MG DL_MG: Solver finished
MG Hartree energy from (\int phi*rho dr):              1260.132684
MG Hartree energy from (\int eps (grad phi)^2 dr):     1259.469200
MG Discrepancy due to finite box and discretization:     -0.663483 (  -0.05265%)
MG Correction to account for finite box:                  0.478800
MG Remaining discrepancy, due to discretization:         -0.184684 (  -0.01466%)
     Trial step:       0.748344255029
             Q1:  -11641.561096130288
 Quadratic coef:       8.608811370199
 Linear coef   :      -7.594052882501
           Qmin:  -11644.250581729033
Quadratic minimum step length (  0.330066811934) accepted
    Initial Ne1:    7191.99956758
      Final Ne1:    7192.00000000

=================== Penalty functional idempotency correction ==================
 RMS occupancy error at iteration   1:  0.000366 (step -0.4985 Ne1=   7192.0000)
 RMS occupancy error at iteration   2:  0.000000 (step -0.5000 Ne1=   7192.0000)
            Final RMS occupancy error   :  0.000000 (Ne1=   7192.0000)
               Final occupancy bounds   : [  0.0000,  1.0000]
================================================================================

    1        -1.164257585462E+04     4.8971E-04     4.4293E-04
MG BCs: +ve charge blocks (gridpoints):     24628 (   17028404).
MG BCs: -ve charge blocks (gridpoints):      8387 (    1081806).
MG BCs:     Elided blocks (gridpoints):    169286 (  172860415).
MG BCs: Computational effort saved:  99.9827%.
MG BCs: Charge after coarse-graining:           -9.0006627.
MG DL_MG: Calling solver with defect correction order = 8
MG DL_MG: Solver finished
MG Hartree energy from (\int phi*rho dr):              1250.010399
MG Hartree energy from (\int eps (grad phi)^2 dr):     1249.349768
MG Discrepancy due to finite box and discretization:     -0.660631 (  -0.05285%)
MG Correction to account for finite box:                  0.479484
MG Remaining discrepancy, due to discretization:         -0.181147 (  -0.01449%)
      ideal mu1:      -0.712452007433
             Q0:  -11644.222287958837
             G0:      -1.011206777813
   RMS gradient:       0.000155351595
MG BCs: +ve charge blocks (gridpoints):     24629 (   17028184).
MG BCs: -ve charge blocks (gridpoints):      8391 (    1082663).
MG BCs:     Elided blocks (gridpoints):    169285 (  172859778).
MG BCs: Computational effort saved:  99.9827%.
MG BCs: Charge after coarse-graining:           -9.0006626.
MG DL_MG: Calling solver with defect correction order = 8
MG DL_MG: Solver finished
MG Hartree energy from (\int phi*rho dr):              1251.112787
MG Hartree energy from (\int eps (grad phi)^2 dr):     1250.451972
MG Discrepancy due to finite box and discretization:     -0.660814 (  -0.05282%)
MG Correction to account for finite box:                  0.479282
MG Remaining discrepancy, due to discretization:         -0.181533 (  -0.01451%)
     Trial step:       0.496994569876
             Q1:  -11644.433723905706
 Quadratic coef:       0.291128330726
 Linear coef   :      -0.502564277595
           Qmin:  -11644.439177579718
Quadratic minimum step length (  0.428971849555) accepted
    Initial Ne1:    7191.99994343
      Final Ne1:    7192.00000000

=================== Penalty functional idempotency correction ==================
 RMS occupancy error at iteration   1:  0.000155 (step -0.4990 Ne1=   7192.0000)
 RMS occupancy error at iteration   2:  0.000000 (step -0.5000 Ne1=   7192.0000)
            Final RMS occupancy error   :  0.000000 (Ne1=   7192.0000)
               Final occupancy bounds   : [  0.0000,  1.0000]
================================================================================

    2        -1.164422228796E+04     1.5535E-04     1.4051E-04    -1.6464E+00
MG BCs: +ve charge blocks (gridpoints):     24629 (   17028178).
MG BCs: -ve charge blocks (gridpoints):      8391 (    1082562).
MG BCs:     Elided blocks (gridpoints):    169285 (  172859885).
MG BCs: Computational effort saved:  99.9827%.
MG BCs: Charge after coarse-graining:           -9.0006626.
MG DL_MG: Calling solver with defect correction order = 8
MG DL_MG: Solver finished
MG Hartree energy from (\int phi*rho dr):              1250.961785
MG Hartree energy from (\int eps (grad phi)^2 dr):     1250.300996
MG Discrepancy due to finite box and discretization:     -0.660789 (  -0.05282%)
MG Correction to account for finite box:                  0.479310
MG Remaining discrepancy, due to discretization:         -0.181478 (  -0.01451%)
      ideal mu1:      -0.713622024888
             Q0:  -11644.439662015531
             G0:      -0.177677477671
   RMS gradient:       0.000064727337
MG BCs: +ve charge blocks (gridpoints):     24631 (   17027603).
MG BCs: -ve charge blocks (gridpoints):      8392 (    1082950).
MG BCs:     Elided blocks (gridpoints):    169283 (  172860072).
MG BCs: Computational effort saved:  99.9827%.
MG BCs: Charge after coarse-graining:           -9.0006627.
MG DL_MG: Calling solver with defect correction order = 8
MG DL_MG: Solver finished
MG Hartree energy from (\int phi*rho dr):              1250.510624
MG Hartree energy from (\int eps (grad phi)^2 dr):     1249.850047
MG Discrepancy due to finite box and discretization:     -0.660576 (  -0.05282%)
MG Correction to account for finite box:                  0.479110
MG Remaining discrepancy, due to discretization:         -0.181466 (  -0.01451%)
     Trial step:       0.461732259928
             Q1:  -11644.497656131862
 Quadratic coef:       0.024045306973
 Linear coef   :      -0.082039423303
           Qmin:  -11644.509638944746
Quadratic minimum step length (  0.787684856091) accepted
    Initial Ne1:    7191.99998195
      Final Ne1:    7192.00000000

=================== Penalty functional idempotency correction ==================
 RMS occupancy error at iteration   1:  0.000235 (step -0.4864 Ne1=   7192.0000)
 RMS occupancy error at iteration   2:  0.000003 (step -0.5000 Ne1=   7192.0000)
            Final RMS occupancy error   :  0.000000 (Ne1=   7192.0000)
               Final occupancy bounds   : [  0.0000,  1.0000]
================================================================================

    3        -1.164443966202E+04     6.4727E-05     5.8544E-05    -2.1737E-01
MG BCs: +ve charge blocks (gridpoints):     24634 (   17027281).
MG BCs: -ve charge blocks (gridpoints):      8393 (    1083183).
MG BCs:     Elided blocks (gridpoints):    169280 (  172860161).
MG BCs: Computational effort saved:  99.9827%.
MG BCs: Charge after coarse-graining:           -9.0006626.
MG DL_MG: Calling solver with defect correction order = 8
MG DL_MG: Solver finished
MG Hartree energy from (\int phi*rho dr):              1250.192243
MG Hartree energy from (\int eps (grad phi)^2 dr):     1249.531824
MG Discrepancy due to finite box and discretization:     -0.660418 (  -0.05283%)
MG Correction to account for finite box:                  0.478959
MG Remaining discrepancy, due to discretization:         -0.181459 (  -0.01451%)
      ideal mu1:      -0.712983807888
             Q0:  -11644.509575879201
             G0:      -0.089809478856
   RMS gradient:       0.000046067792
MG BCs: +ve charge blocks (gridpoints):     24632 (   17027159).
MG BCs: -ve charge blocks (gridpoints):      8392 (    1083251).
MG BCs:     Elided blocks (gridpoints):    169282 (  172860215).
MG BCs: Computational effort saved:  99.9827%.
MG BCs: Charge after coarse-graining:           -9.0006627.
MG DL_MG: Calling solver with defect correction order = 8
MG DL_MG: Solver finished
MG Hartree energy from (\int phi*rho dr):              1250.143819
MG Hartree energy from (\int eps (grad phi)^2 dr):     1249.483898
MG Discrepancy due to finite box and discretization:     -0.659921 (  -0.05279%)
MG Correction to account for finite box:                  0.478606
MG Remaining discrepancy, due to discretization:         -0.181315 (  -0.01450%)
     Trial step:       0.603075044016
             Q1:  -11644.544842822710
 Quadratic coef:       0.018894911906
 Linear coef   :      -0.054161855414
           Qmin:  -11644.548389325337
Quadratic minimum step length (  0.864350770755) accepted
    Initial Ne1:    7191.99998861
      Final Ne1:    7192.00000000

=================== Penalty functional idempotency correction ==================
 RMS occupancy error at iteration   1:  0.000615 (step -0.4596 Ne1=   7192.0000)
 RMS occupancy error at iteration   2:  0.000013 (step -0.4995 Ne1=   7192.0000)
            Final RMS occupancy error   :  0.000000 (Ne1=   7192.0000)
               Final occupancy bounds   : [ -0.0000,  1.0000]
================================================================================

    4        -1.164450957588E+04     4.6068E-05     4.1667E-05    -6.9914E-02
MG BCs: +ve charge blocks (gridpoints):     24631 (   17027112).
MG BCs: -ve charge blocks (gridpoints):      8393 (    1083281).
MG BCs:     Elided blocks (gridpoints):    169283 (  172860232).
MG BCs: Computational effort saved:  99.9827%.
MG BCs: Charge after coarse-graining:           -9.0006627.
MG DL_MG: Calling solver with defect correction order = 8
MG DL_MG: Solver finished
MG Hartree energy from (\int phi*rho dr):              1250.125514
MG Hartree energy from (\int eps (grad phi)^2 dr):     1249.465813
MG Discrepancy due to finite box and discretization:     -0.659701 (  -0.05277%)
MG Correction to account for finite box:                  0.478448
MG Remaining discrepancy, due to discretization:         -0.181253 (  -0.01450%)
      ideal mu1:      -0.713758028750
             Q0:  -11644.547887120163
             G0:      -0.112765517033
   RMS gradient:       0.000051816311
MG BCs: +ve charge blocks (gridpoints):     24634 (   17028761).
MG BCs: -ve charge blocks (gridpoints):      8392 (    1082648).
MG BCs:     Elided blocks (gridpoints):    169280 (  172859216).
MG BCs: Computational effort saved:  99.9827%.
MG BCs: Charge after coarse-graining:           -9.0006624.
MG DL_MG: Calling solver with defect correction order = 8
MG DL_MG: Solver finished
MG Hartree energy from (\int phi*rho dr):              1251.200616
MG Hartree energy from (\int eps (grad phi)^2 dr):     1250.541903
MG Discrepancy due to finite box and discretization:     -0.658713 (  -0.05265%)
MG Correction to account for finite box:                  0.477574
MG Remaining discrepancy, due to discretization:         -0.181139 (  -0.01448%)
     Trial step:       0.721989182134
             Q1:  -11644.594252886949
 Quadratic coef:       0.035049716629
 Linear coef   :      -0.081415483415
           Qmin:  -11644.595166253757
Quadratic minimum step length (  0.838538851913) accepted
    Initial Ne1:    7192.00015076
      Final Ne1:    7192.00000000

=================== Penalty functional idempotency correction ==================
 RMS occupancy error at iteration   1:  0.002391 (step -0.3744 Ne1=   7192.0000)
 RMS occupancy error at iteration   2:  0.000131 (step -0.4923 Ne1=   7192.0000)
 RMS occupancy error at iteration   3:  0.000001 (step -0.5000 Ne1=   7192.0000)
            Final RMS occupancy error   :  0.000000 (Ne1=   7192.0000)
               Final occupancy bounds   : [  0.0000,  1.0000]
================================================================================

    5        -1.164454788712E+04     5.1816E-05     4.6867E-05    -3.8311E-02
MG BCs: +ve charge blocks (gridpoints):     24634 (   17029004).
MG BCs: -ve charge blocks (gridpoints):      8392 (    1082568).
MG BCs:     Elided blocks (gridpoints):    169280 (  172859053).
MG BCs: Computational effort saved:  99.9827%.
MG BCs: Charge after coarse-graining:           -9.0006624.
MG DL_MG: Calling solver with defect correction order = 8
MG DL_MG: Solver finished
MG Hartree energy from (\int phi*rho dr):              1251.376986
MG Hartree energy from (\int eps (grad phi)^2 dr):     1250.718377
MG Discrepancy due to finite box and discretization:     -0.658609 (  -0.05263%)
MG Correction to account for finite box:                  0.477488
MG Remaining discrepancy, due to discretization:         -0.181121 (  -0.01447%)
      ideal mu1:      -0.715637425575
             Q0:  -11644.595218020491
             G0:      -0.109002277702
   RMS gradient:       0.000049306262
MG BCs: +ve charge blocks (gridpoints):     24636 (   17029354).
MG BCs: -ve charge blocks (gridpoints):      8389 (    1082548).
MG BCs:     Elided blocks (gridpoints):    169278 (  172858723).
MG BCs: Computational effort saved:  99.9827%.
MG BCs: Charge after coarse-graining:           -9.0006622.
MG DL_MG: Calling solver with defect correction order = 8
MG DL_MG: Solver finished
MG Hartree energy from (\int phi*rho dr):              1251.249811
MG Hartree energy from (\int eps (grad phi)^2 dr):     1250.592015
MG Discrepancy due to finite box and discretization:     -0.657796 (  -0.05257%)
MG Correction to account for finite box:                  0.476627
MG Remaining discrepancy, due to discretization:         -0.181169 (  -0.01448%)
     Trial step:       0.778084815351
             Q1:  -11644.637755408417
 Quadratic coef:       0.042275629192
 Linear coef   :      -0.084813017118
           Qmin:  -11644.637755813601
Quadratic minimum step length (  0.780493655865) accepted
    Initial Ne1:    7192.00012678
      Final Ne1:    7192.00000000

=================== Penalty functional idempotency correction ==================
 RMS occupancy error at iteration   1:  0.003861 (step -0.3294 Ne1=   7192.0000)
 RMS occupancy error at iteration   2:  0.000274 (step -0.4844 Ne1=   7192.0000)
 RMS occupancy error at iteration   3:  0.000006 (step -0.5004 Ne1=   7192.0000)
            Final RMS occupancy error   :  0.000000 (Ne1=   7192.0000)
               Final occupancy bounds   : [  0.0000,  1.0000]
================================================================================

    6        -1.164459521802E+04     4.9306E-05     4.4596E-05    -4.7331E-02
MG BCs: +ve charge blocks (gridpoints):     24636 (   17029367).
MG BCs: -ve charge blocks (gridpoints):      8389 (    1082540).
MG BCs:     Elided blocks (gridpoints):    169278 (  172858718).
MG BCs: Computational effort saved:  99.9827%.
MG BCs: Charge after coarse-graining:           -9.0006622.
MG DL_MG: Calling solver with defect correction order = 8
MG DL_MG: Solver finished
MG Hartree energy from (\int phi*rho dr):              1251.244752
MG Hartree energy from (\int eps (grad phi)^2 dr):     1250.586974
MG Discrepancy due to finite box and discretization:     -0.657778 (  -0.05257%)
MG Correction to account for finite box:                  0.476608
MG Remaining discrepancy, due to discretization:         -0.181170 (  -0.01448%)
      ideal mu1:      -0.716071743725
             Q0:  -11644.642030758085
             G0:      -0.076516406713
   RMS gradient:       0.000042523596
MG BCs: +ve charge blocks (gridpoints):     24631 (   17027069).
MG BCs: -ve charge blocks (gridpoints):      8391 (    1083305).
MG BCs:     Elided blocks (gridpoints):    169283 (  172860251).
MG BCs: Computational effort saved:  99.9827%.
MG BCs: Charge after coarse-graining:           -9.0006627.
MG DL_MG: Calling solver with defect correction order = 8
MG DL_MG: Solver finished
MG Hartree energy from (\int phi*rho dr):              1249.970844
MG Hartree energy from (\int eps (grad phi)^2 dr):     1249.313112
MG Discrepancy due to finite box and discretization:     -0.657732 (  -0.05262%)
MG Correction to account for finite box:                  0.476509
MG Remaining discrepancy, due to discretization:         -0.181223 (  -0.01450%)
     Trial step:       0.779288304870
             Q1:  -11644.665822813986
 Quadratic coef:       0.035836284982
 Linear coef   :      -0.059628340882
           Qmin:  -11644.666834801237
Quadratic minimum step length (  0.648332670527) accepted
    Initial Ne1:    7191.99997602
      Final Ne1:    7192.00000000

=================== Penalty functional idempotency correction ==================
 RMS occupancy error at iteration   1:  0.000044 (step -0.4975 Ne1=   7192.0000)
            Final RMS occupancy error   :  0.000000 (Ne1=   7192.0000)
               Final occupancy bounds   : [ -0.0000,  1.0000]
================================================================================

    7        -1.164464203076E+04     4.2524E-05     3.8462E-05    -4.6813E-02
MG BCs: +ve charge blocks (gridpoints):     24632 (   17027447).
MG BCs: -ve charge blocks (gridpoints):      8390 (    1083179).
MG BCs:     Elided blocks (gridpoints):    169282 (  172859999).
MG BCs: Computational effort saved:  99.9827%.
MG BCs: Charge after coarse-graining:           -9.0006626.
MG DL_MG: Calling solver with defect correction order = 8
MG DL_MG: Solver finished
MG Hartree energy from (\int phi*rho dr):              1250.183438
MG Hartree energy from (\int eps (grad phi)^2 dr):     1249.525698
MG Discrepancy due to finite box and discretization:     -0.657740 (  -0.05261%)
MG Correction to account for finite box:                  0.476526
MG Remaining discrepancy, due to discretization:         -0.181214 (  -0.01450%)
      ideal mu1:      -0.715134438512
             Q0:  -11644.666844150634
             G0:      -0.062693837809
   RMS gradient:       0.000038488741
MG BCs: +ve charge blocks (gridpoints):     24634 (   17027524).
MG BCs: -ve charge blocks (gridpoints):      8394 (    1083085).
MG BCs:     Elided blocks (gridpoints):    169280 (  172860016).
MG BCs: Computational effort saved:  99.9827%.
MG BCs: Charge after coarse-graining:           -9.0006626.
MG DL_MG: Calling solver with defect correction order = 8
MG DL_MG: Solver finished
MG Hartree energy from (\int phi*rho dr):              1250.068737
[...]
MG Correction to account for finite box:                  0.006452
MG Remaining discrepancy, due to discretization:         -0.180645 (  -0.01495%)
     Trial step:       0.277367144940
             Q1:  -11679.126766716130
 Quadratic coef:       0.000000001928
 Linear coef   :      -0.000000002509
           Qmin:  -11679.126766716365
Quadratic minimum step length (  0.180497364970) accepted
    Initial Ne1:    7192.00000000
      Final Ne1:    7192.00000000

=================== Penalty functional idempotency correction ==================
 RMS occupancy error at iteration   1:  0.000000 (step -0.5000 Ne1=   7192.0000)
            Final RMS occupancy error   :  0.000000 (Ne1=   7192.0000)
               Final occupancy bounds   : [ -0.0000,  1.0000]
================================================================================

    7        -1.167912676672E+04     1.4622E-08     1.3226E-08    -1.2806E-09

Reusing previously generated solute cavity.
MG BCs: +ve charge blocks (gridpoints):     28831 (   19238077).
MG BCs: -ve charge blocks (gridpoints):      8386 (    1051911).
MG BCs:     Elided blocks (gridpoints):    165083 (  170680637).
MG BCs: Computational effort saved:  99.9805%.
MG BCs: Charge after coarse-graining:           -9.0009555.
MG DL_MG: Calling solver with defect correction order = 8
MG DL_MG: Solver finished
MG Hartree energy from (\int phi*rho dr):              1208.510050
MG Hartree energy from (\int eps (grad phi)^2 dr):     1208.322953
MG Discrepancy due to finite box and discretization:     -0.187096 (  -0.01548%)
MG Correction to account for finite box:                  0.006452
MG Remaining discrepancy, due to discretization:         -0.180645 (  -0.01495%)
      ideal mu1:      -0.480823153480
             Q0:  -11679.126766716014
             G0:      -0.000000007646
   RMS gradient:       0.000000010378

Reusing previously generated solute cavity.
MG BCs: +ve charge blocks (gridpoints):     28831 (   19238077).
MG BCs: -ve charge blocks (gridpoints):      8386 (    1051911).
MG BCs:     Elided blocks (gridpoints):    165083 (  170680637).
MG BCs: Computational effort saved:  99.9805%.
MG BCs: Charge after coarse-graining:           -9.0009555.
MG DL_MG: Calling solver with defect correction order = 8
MG DL_MG: Solver finished
MG Hartree energy from (\int phi*rho dr):              1208.510062
MG Hartree energy from (\int eps (grad phi)^2 dr):     1208.322965
MG Discrepancy due to finite box and discretization:     -0.187096 (  -0.01548%)
MG Correction to account for finite box:                  0.006452
MG Remaining discrepancy, due to discretization:         -0.180645 (  -0.01495%)
     Trial step:       0.223749947019
             Q1:  -11679.126766715897
 Quadratic coef:       0.000000001828
 Linear coef   :      -0.000000001711
           Qmin:  -11679.126766716414
Quadratic minimum step length (  0.104697992220) accepted
    Initial Ne1:    7192.00000000
      Final Ne1:    7192.00000000

=================== Penalty functional idempotency correction ==================
 RMS occupancy error at iteration   1:  0.000000 (step -0.5000 Ne1=   7192.0000)
            Final RMS occupancy error   :  0.000000 (Ne1=   7192.0000)
               Final occupancy bounds   : [ -0.0000,  1.0000]
================================================================================

    8        -1.167912676672E+04     1.0378E-08     9.3867E-09    -4.6566E-10

Reusing previously generated solute cavity.
MG BCs: +ve charge blocks (gridpoints):     28831 (   19238077).
MG BCs: -ve charge blocks (gridpoints):      8386 (    1051911).
MG BCs:     Elided blocks (gridpoints):    165083 (  170680637).
MG BCs: Computational effort saved:  99.9805%.
MG BCs: Charge after coarse-graining:           -9.0009555.
MG DL_MG: Calling solver with defect correction order = 8
MG DL_MG: Solver finished
MG Hartree energy from (\int phi*rho dr):              1208.510055
MG Hartree energy from (\int eps (grad phi)^2 dr):     1208.322959
MG Discrepancy due to finite box and discretization:     -0.187096 (  -0.01548%)
MG Correction to account for finite box:                  0.006452
MG Remaining discrepancy, due to discretization:         -0.180645 (  -0.01495%)
      ideal mu1:      -0.480823154834
             Q0:  -11679.126766716130
             G0:      -0.000000006594
   RMS gradient:       0.000000008308

Reusing previously generated solute cavity.
MG BCs: +ve charge blocks (gridpoints):     28831 (   19238076).
MG BCs: -ve charge blocks (gridpoints):      8386 (    1051911).
MG BCs:     Elided blocks (gridpoints):    165083 (  170680638).
MG BCs: Computational effort saved:  99.9805%.
MG BCs: Charge after coarse-graining:           -9.0009555.
MG DL_MG: Calling solver with defect correction order = 8
MG DL_MG: Solver finished
MG Hartree energy from (\int phi*rho dr):              1208.510061
MG Hartree energy from (\int eps (grad phi)^2 dr):     1208.322965
MG Discrepancy due to finite box and discretization:     -0.187096 (  -0.01548%)
MG Correction to account for finite box:                  0.006452
MG Remaining discrepancy, due to discretization:         -0.180645 (  -0.01495%)
     Trial step:       0.153056101519
             Q1:  -11679.126766715897
 Quadratic coef:       0.000000001242
 Linear coef   :      -0.000000001009
           Qmin:  -11679.126766716336
Quadratic minimum step length (  0.062165711793) accepted
    Initial Ne1:    7192.00000000
      Final Ne1:    7192.00000000

=================== Penalty functional idempotency correction ==================
 RMS occupancy error at iteration   1:  0.000000 (step -0.5000 Ne1=   7192.0000)
            Final RMS occupancy error   :  0.000000 (Ne1=   7192.0000)
               Final occupancy bounds   : [ -0.0000,  1.0000]
================================================================================

    9        -1.167912676672E+04     8.3085E-09     7.5148E-09    -1.1642E-10

Reusing previously generated solute cavity.
MG BCs: +ve charge blocks (gridpoints):     28831 (   19238077).
MG BCs: -ve charge blocks (gridpoints):      8386 (    1051911).
MG BCs:     Elided blocks (gridpoints):    165083 (  170680637).
MG BCs: Computational effort saved:  99.9805%.
MG BCs: Charge after coarse-graining:           -9.0009555.
MG DL_MG: Calling solver with defect correction order = 8
MG DL_MG: Solver finished
MG Hartree energy from (\int phi*rho dr):              1208.510058
MG Hartree energy from (\int eps (grad phi)^2 dr):     1208.322961
MG Discrepancy due to finite box and discretization:     -0.187096 (  -0.01548%)
MG Correction to account for finite box:                  0.006452
MG Remaining discrepancy, due to discretization:         -0.180645 (  -0.01495%)
      ideal mu1:      -0.480823153445
   10        -1.167912676672E+04     7.2540E-09     6.5611E-09     1.1642E-10
Finished density kernel iterations (  10)

Writing density kernel to file "host_27081.dkn" ... done


>>> Density kernel optimised for the current NGWF basis:
     ~~~~~~~~~~~~~~~~~~~~~~~~~~~~~~~~~~~~~~~~~~~~~~~~~~~~~~~~~~~
     Total energy                =  -1.16791267667160E+04  Eh
     Estimated bandgap           =   9.2909E-02  Eh
     RMS occupancy error         =   4.4364E-16
     [H,K] commutator            =   6.5611E-09
     Occupancy bounds            = [ -0.000:  1.000]
     ~~~~~~~~~~~~~~~~~~~~~~~~~~~~~~~~~~~~~~~~~~~~~~~~~~~~~~~~~~~




################################################################################
########################### NGWF CG iteration  005 #############################
################################################################################
****** Reciprocal space K.E. preconditioning with k_zero =  3.5000 a0^-1 *******

>>> Checking for convergence of NGWFs: 
           ........................................................
           |         *** NGWF optimisation converged ***          |
           | RMS NGWF gradient =    0.00000089871988              |
           | Criteria satisfied:                                  |
           | -> RMS NGWF gradient lower than set threshold.       |
           ========================================================

Reusing previously generated solute cavity.
MG BCs: +ve charge blocks (gridpoints):     28831 (   19238077).
MG BCs: -ve charge blocks (gridpoints):      8386 (    1051911).
MG BCs:     Elided blocks (gridpoints):    165083 (  170680637).
MG BCs: Computational effort saved:  99.9805%.
MG BCs: Charge after coarse-graining:           -9.0009555.
MG DL_MG: Calling solver with defect correction order = 8
MG DL_MG: Solver finished
MG Hartree energy from (\int phi*rho dr):              1208.510058
MG Hartree energy from (\int eps (grad phi)^2 dr):     1208.322961
MG Discrepancy due to finite box and discretization:     -0.187096 (  -0.01548%)
MG Correction to account for finite box:                  0.006452
MG Remaining discrepancy, due to discretization:         -0.180645 (  -0.01495%)

================================================================================
           ---------------- ENERGY COMPONENTS (Eh) ----------------
           | Kinetic                    :     8531.01698877708623 |
           | Pseudo. (local,OBC,corr'd) :    -5052.35842773034710 |
           | Pseudopotential (non-local):     1403.15860401527493 |
           | Hartree (molecular)        :     1208.51005757879147 |
           | Exchange-correlation       :    -3357.81275317445761 |
           | Ion-ion (open BC)          :   826532.81702045165002 |
           | Dispersion Correction      :       -3.23803678098679 |
           | Smeared ion non-self corr. :  -826484.70815037307329 |
           | Smeared ion self corr.     :   -14457.16956389741972 |
           | Solvent cavitation energy  :        2.33921343935968 |
           | Solute-solvent dis-rep en. :       -1.68171902189166 |
           | Total                      :   -11679.12676671595727 |
           --------------------------------------------------------
           ------ LOCAL ENERGY COMPONENTS FROM MATRIX TRACES ------
           | Pseudopotential (local)    :    -5052.35842773036165 |
           | Hartree                    :    -1989.16243420314186 |
           --------------------------------------------------------
           Integrated density           :     7191.99999999897318
           Integrated density tr(KS)    :     7192.00000000000000
================================================================================


                        <<<<< CALCULATION SUMMARY >>>>>                         
|ITER|    RMS GRADIENT   |     TOTAL ENERGY    |   step   |     Epredicted              
   0     0.00003836097998 -11679.07015964994207   0.606120 -11679.11886400962794        
   1     0.00001058482286 -11679.12602071184665   0.101459 -11679.12664141969617        
   2     0.00000464711797 -11679.12674108881038   0.018258 -11679.12676261865818        
   3     0.00000206362059 -11679.12676570320036   0.003659 -11679.12676655397263        
   4     0.00000089871988 -11679.12676671601366  <-- CG                                 

=================== Finished the calculation in solvent ========================
= Adjusting the following parameters: 
= read_denskern: F
= read_tightbox_ngwfs: F
= maxit_pen: 0 (restored to user-specified value)
= restart read filename prefix: ""
= restart write filename prefix: ""
================================================================================

================================================================================
IS: Calculation in solvent completed (NGWFs converged).      

Individual components of total energy in solvent:     hartree           kcal/mol
- Usual non-electrostatic DFT terms:    -12888.29431871227280    -8087526.614046
- Electrostatic fixed charge energy:      1208.51005757879147      758351.494179
- Apolar cavitation energy:                  2.33921343935968        1467.878563
- Apolar dispersion-repulsion energy:       -1.68171902189166       -1055.294596
 -------------------------------------------------------------------------------
- Total energy in solvent:              -11679.12676671601366    -7328762.535900

Components of total energy in solvent:                hartree           kcal/mol
- Usual non-electrostatic DFT terms:    -12888.29431871227280    -8087526.614046
- Electrostatic energy:                   1208.51005757879147      758351.494179
- Apolar energy terms:                       0.65749441746802         412.583967
 -------------------------------------------------------------------------------
- Total energy in solvent:              -11679.12676671601366    -7328762.535900

Calculation of free energy of solvation:              hartree           kcal/mol
- Total energy in solvent:         (+)  -11679.12676671601366    -7328762.535900
- Total energy in vacuum:          (-)  -11675.34395613928791    -7326388.786476
 -------------------------------------------------------------------------------
- Total free energy of solvation:           -3.78281057672575       -2373.749424

Components of polar term in f.e. of solvation:        hartree           kcal/mol
- Electrostatic:                            -4.71038489088505       -2955.811081
- Change in nonelectrostatic DFT terms:      0.27007989669073         169.477690
 -------------------------------------------------------------------------------
- Polar term in f.e. of solvation:          -4.44030499419432       -2786.333391

Components of free energy of solvation:               hartree           kcal/mol
- Polar term in f.e. of solvation: (+)      -4.44030499419432       -2786.333391
- Apolar (cavitation, dis., rep.): (+)       0.65749441746802         412.583967
 -------------------------------------------------------------------------------
- Total free energy of solvation:           -3.78281057672630       -2373.749424
================================================================================


------------------------------ TIMING INFORMATION ------------------------------
AVERAGE TIME:   32182.218s on     60 node(s)                                    
TOTAL TIME:     32182.218s on     60 node(s)                                    
================= AVERAGE TIMINGS FROM ALL NODES (CUMULATIVE) ==================
|| TAG                                    #calls    cpu time   %total  Gflops ||
|| work_imbalance                       :     1        0.00s   0.000%  ------ ||
|| sparse_set_to_garbage                :   176        0.03s   0.000%  ------ ||
|| parallel_prepare_fd_halos_request    :  1947        0.03s   0.000%  ------ ||
|| ngwfs_initialise_from_radial         :     1        0.11s   0.000%  ------ ||
|| basis_extract_function_from_box      :  3577        0.17s   0.001%  ------ ||
|| parallel_prepare_fd_halos_satisfy    :  1947        0.69s   0.002%  ------ ||
|| parallel_prepare_fd_halos_alloc      :  1947        1.69s   0.005%  ------ ||
|| pseudopotentials_nonlocal_mat        :    30        2.32s   0.007%  ------ ||
|| openbc_locps_radial                  :     1        4.74s   0.015%  ------ ||
|| restart_ngwfs_tightbox_input         :     1        9.42s   0.029%  ------ ||
|| parallel_prepare_fd_halos_comms_imbal:  1947        9.93s   0.031%  ------ ||
|| restart_kernel_read                  :     1       12.84s   0.040%  ------ ||
|| density_init_guess_real              :     1       13.62s   0.042%  ------ ||
|| parallel_prepare_fd_halos_clear      :  1947       20.24s   0.063%  ------ ||
|| sparse_init                          :     2       22.27s   0.069%  ------ ||
|| projectors_func_ovlp_box             :    30       27.22s   0.085%  ------ ||
|| parallel_prepare_fd_halos_comms_wait :  1947       27.71s   0.086%  ------ ||
|| function_ops_brappd_ketppd           :    30       29.62s   0.092%  ------ ||
|| projectors_init_fftbox_recip         :   142       34.38s   0.107%  ------ ||
|| palser_mano_kernel_optimise          :     1       41.27s   0.128%  ------ ||
|| basis_copy_function_to_box           : 58111       45.63s   0.142%  ------ ||
|| ngwf_gradient_coeffs                 :    16       52.64s   0.164%  ------ ||
|| fourier_apply_box_pair               :  5101       54.50s   0.169% 577.245 ||
|| pseudo_make_structure_factor         :     2       58.79s   0.183%  ------ ||
|| parallel_prepare_fd_halos            :  1947       60.32s   0.187%  ------ ||
|| sparse_embed_hotelling_invert_embed  :    30       80.77s   0.251%  ------ ||
|| restart_kernel_write                 :    17      100.29s   0.312%  ------ ||
|| finite_difference_derivative         :  1947      146.42s   0.455%  ------ ||
|| integrals_kinetic                    :    30      151.87s   0.472%  ------ ||
|| projectors_gradient_batch            :   112      158.93s   0.494%  ------ ||
|| basis_dot_function_with_box          : 8.782M     177.53s   0.552%  ------ ||
|| fourier_apply_cell_backward          :  1299      182.44s   0.567%  95.620 ||
|| sparse_trace                         :  5495      208.99s   0.649%  ------ ||
|| fourier_apply_cell_forward           :  1297      240.89s   0.749%  72.305 ||
|| openbc_locps_on_grid                 :     2      267.04s   0.830%  ------ ||
|| kernel_purify                        :   495      314.39s   0.977%  ------ ||
|| basis_add_function_to_box            : 18.31M     429.16s   1.334%  ------ ||
|| lnv_gradient_norm                    :   160      473.06s   1.470%  ------ ||
|| xc_energy_potential                  :   324      487.88s   1.516%  ------ ||
|| hamiltonian_energy_components        :     4      489.10s   1.520%  ------ ||
|| kernel_fix                           :   160      585.70s   1.820%  ------ ||
|| integrals_locpot_mat_els_batch       :  1183      785.63s   2.441%  ------ ||
|| ngwf_gradient_build_batch            :   112      818.44s   2.543%  ------ ||
|| density_batch_row_sums               :  2261     1100.11s   3.418%  ------ ||
|| ngwf_gradient_batch                  :   112     1125.06s   3.496%  ------ ||
|| ngwf_gradient_lnv                    :    16     1287.77s   4.001%  ------ ||
|| restart_ngwfs_tightbox_output        :    14     1295.11s   4.024%  ------ ||
|| cell_grid_deposit_box_real           : 37197     1361.17s   4.230%  ------ ||
|| cell_grid_extract_box_real           : 40746     1555.68s   4.834%  ------ ||
|| sparse_product                       :  6782     1999.90s   6.214%  ------ ||
|| density_fftbox_deposit_to_cell       : 35207     2030.13s   6.308%  ------ ||
|| potential_apply_to_ngwf_batch        :  1183     3816.60s  11.859%  ------ ||
|| density_fftbox_interpolate_multiply  : 35207     4003.94s  12.441%  ------ ||
|| multigrid_prepare_bound_cond         :   324     4455.54s  13.845%  ------ ||
|| integrals_locpot_dbl_grid            :   169     4622.77s  14.364%  ------ ||
|| fourier_apply_box                    : 121.3k    4899.27s  15.224% 739.787 ||
|| density_batch_interp_deposit         :  2261     6974.76s  21.673%  ------ ||
|| dl_mg_solver_calls                   :   324     7486.84s  23.264%  ------ ||
|| density_on_dbl_grid                  :   323     8503.51s  26.423%  ------ ||
|| multigrid_calculate_hartree          :   324    12145.71s  37.740%  ------ ||
|| hamiltonian_lhxc_calculate           :   319    21110.21s  65.596%  ------ ||
|| lnv_denskernel_optimise_cg           :    16    26780.57s  83.215%  ------ ||
|| ngwf_cg_optimise                     :     2    31192.07s  96.923%  ------ ||
|| total_time                           :     1    32182.22s 100.000%  ------ ||
================================================================================
Overhead of generating timer report: 
- 0 ms averaging over threads,
- 15 ms ensuring consistency across MPI ranks,
- 1 ms printing in order.

Job completed: 21-03-2020 16:42 (-0000)

Application 39890138 resources: utime ~6698607s, stime ~223274s, Rss ~3786080, inblocks ~320663615, outblocks ~67278955
