 +---------------------------------------------------------------+
 |                                                               |
 |        ####### #     # ####### ####### ####### ######         |
 |        #     # ##    # #          #    #       #     #        |
 |        #     # # #   # #          #    #       #     #        |
 |        #     # #  #  # #####      #    #####   ######         |
 |        #     # #   # # #          #    #       #              |
 |        #     # #    ## #          #    #       #              |
 |        ####### #     # #######    #    ####### #              |
 |                                                               |
 |        Linear-Scaling Ab Initio Total Energy Program          |
 |                                                               |
 |          Release for academic collaborators of ODG            |
 |                                             Version 5.3.2.6.  |
 |                                                               |
 +---------------------------------------------------------------+
 |                                                               |
 |  Authors:                                                     |
 |  Jacek Dziedzic, Peter D. Haynes, Nicholas D. M. Hine,        |
 |  Arash. A. Mostofi, Mike C. Payne and Chris-Kriton Skylaris   |
 |                                                               |
 |  Contributors:                                                |
 |  J. Aarons, L. Andrinopoulos, P. W. Avraam, R. A. Bell,       |
 |  A. Bhandari, G. A. Bramley, R. J. Charlton, S. J. Clark,     |
 |  R. J. Clements, G. C. Constantinescu, F. Corsetti,           |
 |  N. Corsini, O. Dieguez, S. M. M. Dubois, K. K. B. Duff,      |
 |  J. M. Escartin, A. Greco, H. Helal, Q. O. Hill, L. P. Lee,   |
 |  J.-H. Li, E. B. Linscott, G. Moynihan, D. D. O`Regan,        |
 |  O. K. Okan, M. J. S. Phipps, C. J. Pickard,                  |
 |  J. C. A. Prentice, M. I. J. Probert, L. E. Ratcliff,         |
 |  M. Robinson, A. Ruiz Serrano, J. S. Spencer, E. W. Tait,     |
 |  G. Teobaldi, D. Turban, V. Vitale, K. A. Wilkinson,          |
 |  C. Weber, J. C. Womack, N. Yeung and T. J. Zuehlsdorff       |
 |                                                               |
 |                                   Copyright (c) 2004-2019     |
 |                                                               |
 |  Please cite:                                                 |
 |  "Introducing ONETEP: Linear-scaling density functional       |
 |   simulations on parallel computers".                         |
 |   C.-K. Skylaris, P. D. Haynes, A. A. Mostofi, M. C. Payne.   |
 |   J. Chem. Phys. 122 084119 (2005).                           |
 |                                                               |
 |          in all publications arising from your use of ONETEP. |
 |                                                               |
 +---------------------------------------------------------------+
 |                                                               |
 |   ONETEP is based on developments described in the following  |
 |   publications:                                               |
 |                                                               |
 |  "Nonorthogonal generalized Wannier function pseudopotential  |
 |   plane-wave method".                                         |
 |   C.-K. Skylaris, A. A. Mostofi, P. D. Haynes, O. Dieguez,    |
 |   M. C. Payne.                                                |
 |   Phys. Rev. B 66 035119 (2002).                              |
 |                                                               |
 |  "Preconditioned iterative minimization for linear-scaling    |
 |   electronic structure calculations".                         |
 |   A. A. Mostofi, P. D. Haynes, C.-K. Skylaris, M. C. Payne.   |
 |   J. Chem. Phys. 119(17), pp.8842-8848 (2003).                |
 |                                                               |
 |  "Total-energy calculations on a real space grid with         |
 |   localized functions and a plane-wave basis".                |
 |   A. A. Mostofi, C.-K. Skylaris, P. D. Haynes, M. C. Payne.   |
 |   Comput. Phys. Commun. 147, pp.788-802 (2002).               |
 |                                                               |
 |  "Accurate kinetic energy evaluation in electronic structure  |
 |   calculations with localized functions on real space grids"  |
 |   C.-K. Skylaris, A. A. Mostofi, P. D. Haynes, C. J. Pickard, |
 |   M. C. Payne.                                                |
 |   Comput. Phys. Commun. 140, pp.315-322 (2001).               |
 |                                                               |
 |  "Accurate ionic forces and geometry optimization in linear-  |
 |   scaling density-functional theory with local orbitals"      |
 |   N. D. M. Hine, M. Robinson, P. D. Haynes, C.-K. Skylaris,   |
 |   M. C. Payne, and A. A. Mostofi.                             |
 |   Phys. Rev. B 83 195102 (2011).                              |
 |                                                               |
 +---------------------------------------------------------------+

Job started: 23-04-2020 07:05 (+0100)
 
Reading parameters from file "host_11501.dat" ...... done

If your calculation crashes here, before "Checking processes and threads..."
is displayed, then your stack size is insufficient.
If so, use "ulimit -s unlimited" at runtime.
You can disable this check with "check_stack_size F".

Checking processes and threads...
   Determining the default number of threads...
      No default threads set at compilation time: defaulting to 1.
      OpenMP library call suggests 4 threads.
      Hybrid MPI-OpenMP compilation detected.
      Number of MPI processes > 1.
      OMP_NUM_THREADS environment variable present and
      its value matches the one obtained from the OpenMP library call.
      Using this value as default.
      Default threads: 4
      Default applies to threads_max and threads_num_fftboxes.
      Settings in the input file override this default.
   ... done

   Running with 60 MPI processes.
   There are 6 MPI processes running on the same node as the root process.
   Each MPI process is using: 
               1 threads for simulation cell FFTs.
               1 threads for parallel FFT box operations.
               4 threads for loops over batched FFT box operations.
               4 threads in other parallel regions.
... done

Basic input checks...... done

Reading geometry and species blocks from file "host_11501.dat" ...
  <species_atomic_set> block not found: NGWF initialisation set to SOLVE
IS: Dielectric excluded regions:
    - NONE.
    
  Number of PPD points along a3 set to 1.  This is 
  the default value, it may have been provided also in the input file.
... done
 Writing xyz coordinates to file "host_11501.xyz" ... done


--------------------------------------------------------------------------------
---------------------------------- INPUT FILE ----------------------------------
--------------------------------------------------------------------------------

cutoff_energy       : 800 eV                                                    
xc_functional PBE                                                               
task SINGLEPOINT                                                                
write_xyz true                                                                  
output_detail VERBOSE                                                           
ngwf_threshold_orig : 0.000002                                                  
kernel_cutoff       : 1000                                                      
k_zero              : 3.5                                                       
elec_cg_max 0                                                                   
occ_mix 1.0                                                                     
dispersion 1                                                                    
maxit_ngwf_cg 40                                                                
minit_lnv 10                                                                    
maxit_lnv 10                                                                    
write_denskern T                                                                
write_tightbox_ngwfs T                                                          
charge 9                                                                        
is_implicit_solvent T                                                           
is_auto_solvation T                                                             
is_include_apolar T                                                             
is_smeared_ion_rep T                                                            
is_solvent_surf_tension 4.7624E-5 Ha/bohr**2                                    
is_apolar_scaling_factor 0.281075                                               
is_solvation_beta 1.3                                                           
is_density_threshold 0.00035                                                    
is_bulk_permittivity 78.54                                                      
is_dielectric_model fix_initial                                                 
is_smeared_ion_width 0.8                                                        
mg_defco_fd_order 8                                                             
is_bc_coarseness 10                                                             
is_bc_surface_coarseness 1                                                      
fine_grid_scale 2.0                                                             
%block species                                                                  
N   N   7 4 8.0                                                                 
H   H   1 1 8.0                                                                 
C   C   6 4 8.0                                                                 
S   S  16 9 8.0                                                                 
O   O   8 4 8.0                                                                 
%endblock species                                                               
%block species_pot                                                              
N   N_00.recpot                                                                 
H   H_04.recpot                                                                 
C   C_01.recpot                                                                 
S   S_00.recpot                                                                 
O   O_02.recpot                                                                 
%endblock species_pot                                                           
%block lattice_cart                                                             
135.996   0.000   0.000                                                         
0.000 142.663   0.000                                                           
0.000   0.000   160.158                                                         
%endblock lattice_cart                                                          
%block positions_abs                                                            
     Hash =   000004557519096454955640
%endblock positions_abs                                                         

--------------------------------------------------------------------------------
-------------------------------- END INPUT FILE --------------------------------
--------------------------------------------------------------------------------


 
 ESDF WARNING(1): "kernelcutoff" (esdf_physical) has no units. Assume "bohr".
 ESDF WARNING(2): "kzero" (esdf_physical) has no units. Assume "1/bohr".
 ESDF WARNING(3
 ): "issmearedionwidth" (esdf_physical) has no units. Assume "bohr".
<<<<<<<<<<<<<<<<<<<<<<<<<<<<<<<<< Full system >>>>>>>>>>>>>>>>>>>>>>>>>>>>>>>>>>
<<<<<<<<<<<<<<<<<<<<<<<<< Pseudopotential information >>>>>>>>>>>>>>>>>>>>>>>>>>
File: N_00.recpot [ 2001 points up to Gmax=  52.9 (1/bohr)]
  Atomic number:  7;  ionic charge:  5.000000
    Shell 1: l = 0; rc = 1.48 bohr
File: H_04.recpot [ 2001 points up to Gmax=  52.9 (1/bohr)]
  Atomic number:  1;  ionic charge:  1.000000
    Local potential
File: C_01.recpot [ 2001 points up to Gmax=  52.9 (1/bohr)]
  Atomic number:  6;  ionic charge:  4.000000
    Shell 1: l = 0; rc = 1.48 bohr
File: S_00.recpot [ 2001 points up to Gmax=  52.9 (1/bohr)]
  Atomic number: 16;  ionic charge:  6.000000
    Shell 1: l = 0; rc = 1.90 bohr
    Shell 2: l = 2; rc = 1.84 bohr
File: O_02.recpot [ 2001 points up to Gmax=  52.9 (1/bohr)]
  Atomic number:  8;  ionic charge:  6.000000
    Shell 1: l = 0; rc = 1.31 bohr
<<<<<<<<<<<<<<<<<<<<<<<<<<<<<<<<<<<<<<<<>>>>>>>>>>>>>>>>>>>>>>>>>>>>>>>>>>>>>>>>

-------------------------- Atom counting information ---------------------------
Symbol    Natoms    Nngwfs    Nprojs
  N        236       944       236
  H       1311      1311         0
  C        810      3240       810
  S          6        54        36
  O        239       956       239
.......   ......    ......    ......
Totals:   2602      6505      1321
--------------------------------------------------------------------------------

=============================== PSINC grid sizes ===============================
                      Simulation cell:  270 x 286 x 315
                              FFT-box:   99 x 105 x  99
                                  PPD:    5 x  11 x   1
Grid space d1=  0.503688888889a0 (KE cutoff=  29.94189Eh = 814.76038eV)
Grid space d2=  0.498821678322a0 (KE cutoff=  30.52906Eh = 830.73786eV)
Grid space d3=  0.508438095238a0 (KE cutoff=  29.38514Eh = 799.61048eV)
================================================================================

********************* Fourier parallelisation information **********************
       Coarse grid (whole simulation cell) dimensions:    270   286   315
          Real-space ('12') slabs/node (min max mean):      5     6     5
         Recip-space ('23') slabs/node (min max mean):      2     3     2
********************************************************************************

********************* Fourier parallelisation information **********************
       Double grid (whole simulation cell) dimensions:    540   572   630
          Real-space ('12') slabs/node (min max mean):     10    11    10
         Recip-space ('23') slabs/node (min max mean):      4     5     4
********************************************************************************
ONETEP fine grid is 540 x 572 x 630 gridpoints, 135.9960 x 142.6630 x 160.1580 bohr.
FD multigrid is     537 x 569 x 625 gridpoints, 135.2405 x 141.9148 x 158.8869 bohr.


Calculating local pseudopotential in open BC on a radial grid ...
Discrepancy between calculated realspace psloc and -Z/x on [5a0,253.965a0]:
max |rel. diff| # avg |rel. diff| #  avg rel. diff #  f # pseudopotential file
 0.000259282084    0.000004141996   0.000000074978   54  'N_00.recpot'
 0.000405386992    0.000016970607  -0.000000075982   54  'H_04.recpot'
 0.000371694516    0.000017434762   0.000000149329   54  'C_01.recpot'
 0.000461642895    0.000020341726   0.000000491514   54  'S_00.recpot'
 0.000682525123    0.000027368244   0.000000159803   54  'O_02.recpot'
... done

Atom SCF Calculation for N  : Z (AE atom) =   7 : Z (PS atom) =   5
Config String:
Orbitals (num,occ):  2     2.00 3.00
Orbitals   (num,l):  2        0    1
Real-space Grid (nr,dr,rmax): 1203    0.0066555740    8.0000000000
Spherical Bessel Basis (nsws,lmax,cutoff):   47    1  176.3951722778
Confining potential (l,width,scale):  0    3.0000000000  100.0000000000
Confining potential (l,width,scale):  1    3.0000000000  100.0000000000
  1         -4.7312375307   -3.4155304497    7.0523828109   -1.9351020946
  2         -9.7309464766   -2.0532547791    8.2966052865   -2.2494486027
  3         -9.6627394379   -2.1124926340    8.2327997121   -2.2369778124
  4         -9.6814993499   -2.1215521045    8.2229805960   -2.2365178421
  5         -9.6843326483   -2.1250939529    8.2191374534   -2.2362718126
  6         -9.6859628709   -2.1267894855    8.2172963573   -2.2362066344
  7         -9.6867347035   -2.1276425665    8.2163697352   -2.2361903369
  8         -9.6870802100   -2.1280764625    8.2158983890   -2.2361891460
  9         -9.6872290423   -2.1282977424    8.2156580222   -2.2361920435
 10         -9.6872901988   -2.1284107021    8.2155353368   -2.2361953393
 11         -9.6873135296   -2.1284684031    8.2154726809   -2.2361979819
 12         -9.6873212476   -2.1284978948    8.2154406648   -2.2361998431
 13         -9.6873229586   -2.1285129774    8.2154242957   -2.2362010676
 14         -9.6873226456   -2.1285206957    8.2154159216   -2.2362018403
 15         -9.6873218534   -2.1285246479    8.2154116349   -2.2362023142
 16         -9.6873212599   -2.1285262679    8.2154098784   -2.2362025420
 17         -9.6873207834   -2.1285272564    8.2154088068   -2.2362026955
 18         -9.6873204210   -2.1285278596    8.2154081529   -2.2362027982
 19         -9.6873201550   -2.1285282280    8.2154077538   -2.2362028667
 20         -9.6873199645   -2.1285284529    8.2154075102   -2.2362029121
 21         -9.6873198305   -2.1285285903    8.2154073614   -2.2362029421
 22         -9.6873197377   -2.1285286742    8.2154072705   -2.2362029618
Atom SCF converged after  22 iterations to a total energy of     -9.68731974

Atom SCF Calculation for H  : Z (AE atom) =   1 : Z (PS atom) =   1
Config String:
Orbitals (num,occ):  1     1.00
Orbitals   (num,l):  1        0
Real-space Grid (nr,dr,rmax): 1203    0.0066555740    8.0000000000
Spherical Bessel Basis (nsws,lmax,cutoff):   47    0  176.3951722778
Confining potential (l,width,scale):  0    3.0000000000  100.0000000000
  1         -0.3194257691   -0.2393854593    0.2820953124   -0.2424203209
  2         -0.3951823392   -0.2377116493    0.2886404059   -0.2475147891
  3         -0.4317044583   -0.2352244387    0.2921333887   -0.2514046172
  4         -0.4470703708   -0.2341892222    0.2934391879   -0.2531009782
  5         -0.4532132900   -0.2338556667    0.2938388426   -0.2537313520
  6         -0.4556579251   -0.2337612552    0.2939448584   -0.2539550462
  7         -0.4566418315   -0.2337377355    0.2939680120   -0.2540342273
  8         -0.4570437922   -0.2337331116    0.2939708287   -0.2540627372
  9         -0.4572102946   -0.2337328328    0.2939698291   -0.2540732650
 10         -0.4572800424   -0.2337332404    0.2939687193   -0.2540772588
 11         -0.4573095100   -0.2337335791    0.2939680317   -0.2540788122
 12         -0.4573220379   -0.2337337762    0.2939676699   -0.2540794294
 13         -0.4573273880   -0.2337338775    0.2939674931   -0.2540796787
 14         -0.4573296803   -0.2337339266    0.2939674099   -0.2540797808
 15         -0.4573306647   -0.2337339495    0.2939673718   -0.2540798230
 16         -0.4573310882   -0.2337339601    0.2939673545   -0.2540798406
 17         -0.4573312706   -0.2337339649    0.2939673467   -0.2540798479
 18         -0.4573313493   -0.2337339670    0.2939673433   -0.2540798510
Atom SCF converged after  18 iterations to a total energy of     -0.45733135

Atom SCF Calculation for C  : Z (AE atom) =   6 : Z (PS atom) =   4
Config String:
Orbitals (num,occ):  2     2.00 2.00
Orbitals   (num,l):  2        0    1
Real-space Grid (nr,dr,rmax): 1203    0.0066555740    8.0000000000
Spherical Bessel Basis (nsws,lmax,cutoff):   47    1  176.3951722778
Confining potential (l,width,scale):  0    3.0000000000  100.0000000000
Confining potential (l,width,scale):  1    3.0000000000  100.0000000000
  1         -5.2976922011   -1.3069684169    4.5135249990   -1.4493313817
  2         -5.3721716256   -1.3429755895    4.4750154450   -1.4361613026
  3         -5.3809959565   -1.3617365618    4.4541655428   -1.4305930207
  4         -5.3918938866   -1.3667928461    4.4484735100   -1.4294652294
  5         -5.3956096428   -1.3688539142    4.4461376126   -1.4290734646
  6         -5.3968271862   -1.3696852393    4.4451910874   -1.4289366866
  7         -5.3972028401   -1.3700178062    4.4448112275   -1.4288900460
  8         -5.3973067903   -1.3701500158    4.4446598370   -1.4288749220
  9         -5.3973286940   -1.3702023868    4.4445997329   -1.4288704293
 10         -5.3973289850   -1.3702230869    4.4445759233   -1.4288693188
 11         -5.3973254264   -1.3702312560    4.4445665049   -1.4288691775
 12         -5.3973224003   -1.3702344755    4.4445627836   -1.4288692549
 13         -5.3973208708   -1.3702354890    4.4445616088   -1.4288693270
 14         -5.3973198783   -1.3702360102    4.4445610034   -1.4288693814
 15         -5.3973192535   -1.3702362780    4.4445606917   -1.4288694190
 16         -5.3973188684   -1.3702364155    4.4445605313   -1.4288694437
 17         -5.3973186349   -1.3702364860    4.4445604489   -1.4288694595
 18         -5.3973184951   -1.3702365221    4.4445604065   -1.4288694693
 19         -5.3973184122   -1.3702365405    4.4445603848   -1.4288694753
Atom SCF converged after  19 iterations to a total energy of     -5.39731841

Atom SCF Calculation for S  : Z (AE atom) =  16 : Z (PS atom) =   6
Config String:
Orbitals (num,occ):  3     2.00 4.00 0.00
Orbitals   (num,l):  3        0    1    2
Real-space Grid (nr,dr,rmax): 1203    0.0066555740    8.0000000000
Spherical Bessel Basis (nsws,lmax,cutoff):   47    2  176.3951722778
Confining potential (l,width,scale):  0    3.0000000000  100.0000000000
Confining potential (l,width,scale):  1    3.0000000000  100.0000000000
Confining potential (l,width,scale):  2    3.0000000000  100.0000000000
  1        -12.4735062396   -1.0328741412   10.1554312477   -2.4512393157
  2         -9.9458301913   -2.4607392455    8.3041325857   -2.0306994528
  3        -10.1450417646   -2.2931184565    8.4831893826   -2.0812538287
  4        -10.1528335592   -2.2733105793    8.5050388867   -2.0896035179
  5        -10.1571940363   -2.2633716629    8.5160794258   -2.0939370707
  6        -10.1594380571   -2.2584938667    8.5215163935   -2.0961289008
  7        -10.1605856507   -2.2561081821    8.5241804044   -2.0972291378
  8        -10.1611799191   -2.2549395235    8.5254868240   -2.0977806248
  9        -10.1614918752   -2.2543658586    8.5261285885   -2.0980571586
 10        -10.1616572884   -2.2540839121    8.5264441898   -2.0981959233
 11        -10.1617455602   -2.2539453058    8.5265994231   -2.0982656006
 12        -10.1617928447   -2.2538772062    8.5266757320   -2.0983006047
 13        -10.1618182292   -2.2538437891    8.5267131983   -2.0983181961
 14        -10.1618318741   -2.2538274201    8.5267315620   -2.0983270391
 15        -10.1618392144   -2.2538194197    8.5267405433   -2.0983314852
 16        -10.1618431651   -2.2538155200    8.5267449245   -2.0983337210
 17        -10.1618452923   -2.2538136252    8.5267470551   -2.0983348455
 18        -10.1618464380   -2.2538127080    8.5267480875   -2.0983354110
 19        -10.1618470552   -2.2538122659    8.5267485856   -2.0983356955
 20        -10.1618473878   -2.2538120540    8.5267488248   -2.0983358386
 21        -10.1618475670   -2.2538119530    8.5267489389   -2.0983359106
 22        -10.1618476637   -2.2538119053    8.5267489929   -2.0983359468
Atom SCF converged after  22 iterations to a total energy of    -10.16184766

Atom SCF Calculation for O  : Z (AE atom) =   8 : Z (PS atom) =   6
Config String:
Orbitals (num,occ):  2     2.00 4.00
Orbitals   (num,l):  2        0    1
Real-space Grid (nr,dr,rmax): 1203    0.0066555740    8.0000000000
Spherical Bessel Basis (nsws,lmax,cutoff):   47    1  176.3951722778
Confining potential (l,width,scale):  0    3.0000000000  100.0000000000
Confining potential (l,width,scale):  1    3.0000000000  100.0000000000
  1         -1.8735052164   -7.5539365035   10.1554312477   -2.4512393157
  2        -16.0318313751   -3.1285771268   13.6395848164   -3.2358799643
  3        -15.9524020423   -3.0762819706   13.6967272503   -3.2536856837
  4        -15.8521515939   -3.0781493909   13.6951909330   -3.2561700440
  5        -15.8357139793   -3.0748501933   13.6988803334   -3.2580493133
  6        -15.8246052853   -3.0740779781   13.6997881576   -3.2588327446
  7        -15.8189019501   -3.0737449687   13.7001869911   -3.2592378801
  8        -15.8159785510   -3.0736026016   13.7003615168   -3.2594475790
  9        -15.8144776168   -3.0735437994   13.7004360379   -3.2595560735
 10        -15.8137058024   -3.0735207882   13.7004667348   -3.2596122456
 11        -15.8133083127   -3.0735125946   13.7004786868   -3.2596413656
 12        -15.8131032938   -3.0735102195   13.7004828997   -3.2596564858
 13        -15.8129973902   -3.0735099286   13.7004840891   -3.2596643505
 14        -15.8129426040   -3.0735102506   13.7004842061   -3.2596684489
 15        -15.8129142203   -3.0735106556   13.7004840157   -3.2596705887
 16        -15.8128994940   -3.0735109855   13.7004837906   -3.2596717080
 17        -15.8128918425   -3.0735112169   13.7004836103   -3.2596722946
 18        -15.8128878614   -3.0735113674   13.7004834848   -3.2596726026
 19        -15.8128857871   -3.0735114608   13.7004834035   -3.2596727646
 20        -15.8128847048   -3.0735115170   13.7004833533   -3.2596728500
 21        -15.8128841394   -3.0735115501   13.7004833231   -3.2596728951
 22        -15.8128838436   -3.0735115693   13.7004833054   -3.2596729190
 23        -15.8128836887   -3.0735115802   13.7004832951   -3.2596729316
 24        -15.8128836074   -3.0735115864   13.7004832893   -3.2596729383
Atom SCF converged after  24 iterations to a total energy of    -15.81288361

========================== Calculation in vacuum ==============================
= Adjusting the following parameters: 
= is_implicit_solvent: F
= is_include_apolar: F
= write_denskern: T
= write_tightbox_ngwfs: T
= restart read filename prefix: ""
= restart write filename prefix: "vacuum_"
===============================================================================

Determining parallel strategy ...
... using space-filling curve
... NGWF load balancing: max    109;  min    108;  average    108
... Projector load balancing: max     25;  min     21;  average     22
... done
Calculating direct Ion-Ion energy ...
Ion-Ion Energy        :    823657.45251520746388
======================= Empirical dispersion information =======================
Model : Elstner
Dispersion Correction Energy: -0.32512898E+01 Hartree
================================================================================
Basis initialisation ...... NGWF spheres initialised
... Projector spheres initialised
... NGWF tight boxes initialised
... Tight-boxes gathered
... NGWF basis size (local,global):    1034884  62195747
... Nonlocal pseudopotential projector initialisation
... done

========================== Sparse matrix information ===========================
                        Overlap matrix filling:   6.71%
                        Density kernel filling: 100.00%
              NGWF-Proj overlap matrix filling:   1.79%
                    Hamiltonian matrix filling:   7.61%
                  NGWF diagonal matrix filling:   0.05%
                             KS matrix filling: 100.00% 
                           KSKS matrix filling: 100.00% 
================================================================================

Sparse matrix initialisation ... done

Generating smeared ion density ... done
Smeared ion self correction:     -14457.169564
Smeared ion non-self correction: -823609.366560
NGWF initialisation ...... done
============ Calculation of NGWF S^-1 using Hotelling algorithm ================ 
         Iteration  |  Frobenius norm and Maximum abs value    (of I-S*S_n^-1)   
               1       0.78501456E+02     0.98278394E+00
               2       0.76665837E+02     0.96603784E+00
               3       0.73688570E+02     0.93385952E+00
               4       0.69448491E+02     0.87419193E+00
               5       0.64158410E+02     0.77027692E+00
               6       0.58203348E+02     0.70041524E+00
               7       0.52200731E+02     0.66910462E+00
               8       0.46651727E+02     0.64246186E+00
               9       0.40617909E+02     0.60151736E+00
              10       0.32407381E+02     0.53280287E+00
              11       0.21866919E+02     0.43288764E+00
              12       0.11232158E+02     0.29386639E+00
              13       0.37212751E+01     0.13709691E+00
              14       0.58738530E+00     0.35659536E-01
              15       0.27597307E-01     0.32764773E-02
              16       0.15047275E-03     0.29857793E-04
              17       0.88272571E-08     0.25521887E-08
              18       0.94400618E-13     0.35527137E-14
================================================================================
Calculating local pseudopotential in open BC on the fine real space grid ...
... done

MG BCs: +ve charge blocks (gridpoints):     20421 (   16039535).
MG BCs: -ve charge blocks (gridpoints):      8017 (    1083039).
MG BCs:     Elided blocks (gridpoints):    173493 (  173848051).
MG BCs: Computational effort saved:  99.9851%.
MG BCs: Charge after coarse-graining:           -9.0002275.
MG DL_MG: Calling solver with defect correction order = 8
MG DL_MG: Solver finished
MG Hartree energy from (\int phi*rho dr):              1462.248951
MG Hartree energy from (\int eps (grad phi)^2 dr):     1461.631328
MG Discrepancy due to finite box and discretization:     -0.617623 (  -0.04224%)
MG Correction to account for finite box:                  0.466970
MG Remaining discrepancy, due to discretization:         -0.150653 (  -0.01030%)
Up spin density kernel initialisation ... 
======= Optimisation of K by Palser-Manolopoulos canonical purification ======== 
         Iteration  |  Band structure energy |    c_n   
               1       -2582.10181494672179    0.5264719
               2       -2758.01595053843994    0.5167986
               3       -2937.69933940830879    0.5154513
               4       -3087.08619396953145    0.5292716
               5       -3178.41815538448145    0.5655308
               6       -3216.35570903795224    0.6098512
               7       -3229.25206750460075    0.6198119
               8       -3234.89801677015748    0.6161611
               9       -3237.63707776174579    0.6271514
              10       -3238.76580720300535    0.6558171
              11       -3239.18329368657578    0.6899903
              12       -3239.34582266559846    0.6999844
              13       -3239.42490270801318    0.6512670
              14       -3239.48043989184998    0.5773783
              15       -3239.51754341699097    0.5168851
              16       -3239.53254705059544    0.4912257
              17       -3239.53561232684569    0.4977694
              18       -3239.53652905626313    0.5009216
              19       -3239.53667746055771    0.5000566
              20       -3239.53668194017519    0.5000015
              21       -3239.53668194564261    0.5000015
Termination criterion satisfied: band energy change below threshold.
Final occupancy bounds: [    0.00000000000000:    1.00000000000000]
Closest occupancy to 0.5:     1.00000000000000
================================================================================
... done

Writing density kernel to file "host_11501.vacuum_dkn" ... done

>>> Optimising kernel for current NGWFs:
   Initial electron number for spin 1:    7192.00000000
     Final electron number for spin 1:    7192.00000000

=================== Penalty functional idempotency correction ==================
 RMS occupancy error at iteration   1:  0.000000 (step -0.5000 Ne1=   7192.0000)
            Final RMS occupancy error   :  0.000000 (Ne1=   7192.0000)
               Final occupancy bounds   : [ -0.0000,  1.0000]
================================================================================

................................................................................
<<<<<<<<<<<<<< LNV (Original version) density kernel optimisation >>>>>>>>>>>>>>
~~~~~~~~~~~~~~~~~~~~~~~~~~~~~~~~~~~~~~~~~~~~~~~~~~~~~~~~~~~~~~~~~~~~~~~~~~~~~~~~
   iter  |      energy (Eh)       | rms gradient |  commutator  |   dE (Eh)
MG BCs: +ve charge blocks (gridpoints):     30998 (   17208274).
MG BCs: -ve charge blocks (gridpoints):      8352 (    1116123).
MG BCs:     Elided blocks (gridpoints):    162906 (  172646228).
MG BCs: Computational effort saved:  99.9794%.
MG BCs: Charge after coarse-graining:           -9.0009663.
MG DL_MG: Calling solver with defect correction order = 8
MG DL_MG: Solver finished
MG Hartree energy from (\int phi*rho dr):              1415.413171
MG Hartree energy from (\int eps (grad phi)^2 dr):     1414.747757
MG Discrepancy due to finite box and discretization:     -0.665414 (  -0.04701%)
MG Correction to account for finite box:                  0.472753
MG Remaining discrepancy, due to discretization:         -0.192661 (  -0.01361%)
      ideal mu1:      -0.727621175984
             Q0:  -11508.726561866002
             G0:    -142.150738520679
   RMS gradient:       0.001832851416
MG BCs: +ve charge blocks (gridpoints):     30963 (   17286141).
MG BCs: -ve charge blocks (gridpoints):      8243 (    1095839).
MG BCs:     Elided blocks (gridpoints):    162939 (  172588645).
MG BCs: Computational effort saved:  99.9795%.
MG BCs: Charge after coarse-graining:           -9.0009889.
MG DL_MG: Calling solver with defect correction order = 8
MG DL_MG: Solver finished
MG Hartree energy from (\int phi*rho dr):              1441.240502
MG Hartree energy from (\int eps (grad phi)^2 dr):     1440.591530
MG Discrepancy due to finite box and discretization:     -0.648972 (  -0.04503%)
MG Correction to account for finite box:                  0.471816
MG Remaining discrepancy, due to discretization:         -0.177156 (  -0.01229%)
     Trial step:       0.500000000000
             Q1:  -11519.692826170241
 Quadratic coef:      60.109104956100
 Linear coef   :     -71.075369260340
           Qmin:  -11529.737139711002
Quadratic minimum step length (  0.295609830292) accepted
    Initial Ne1:    7192.00000000
      Final Ne1:    7192.00000000

=================== Penalty functional idempotency correction ==================
 RMS occupancy error at iteration   1:  0.003318 (step -0.4888 Ne1=   7192.0000)
 RMS occupancy error at iteration   2:  0.000024 (step -0.5000 Ne1=   7192.0000)
            Final RMS occupancy error   :  0.000000 (Ne1=   7192.0000)
               Final occupancy bounds   : [  0.0000,  1.0000]
================================================================================

    1        -1.150872656187E+04     1.8329E-03     1.6578E-03
MG BCs: +ve charge blocks (gridpoints):     30960 (   17255736).
MG BCs: -ve charge blocks (gridpoints):      8280 (    1104683).
MG BCs:     Elided blocks (gridpoints):    162944 (  172610206).
MG BCs: Computational effort saved:  99.9795%.
MG BCs: Charge after coarse-graining:           -9.0009794.
MG DL_MG: Calling solver with defect correction order = 8
MG DL_MG: Solver finished
MG Hartree energy from (\int phi*rho dr):              1422.817262
MG Hartree energy from (\int eps (grad phi)^2 dr):     1422.162481
MG Discrepancy due to finite box and discretization:     -0.654781 (  -0.04602%)
MG Correction to account for finite box:                  0.472101
MG Remaining discrepancy, due to discretization:         -0.182680 (  -0.01284%)
      ideal mu1:      -0.767513998137
             Q0:  -11530.125191882020
             G0:     -11.585601539786
   RMS gradient:       0.000519791716
MG BCs: +ve charge blocks (gridpoints):     30964 (   17272468).
MG BCs: -ve charge blocks (gridpoints):      8261 (    1099285).
MG BCs:     Elided blocks (gridpoints):    162939 (  172598872).
MG BCs: Computational effort saved:  99.9795%.
MG BCs: Charge after coarse-graining:           -9.0009832.
MG DL_MG: Calling solver with defect correction order = 8
MG DL_MG: Solver finished
MG Hartree energy from (\int phi*rho dr):              1428.243656
MG Hartree energy from (\int eps (grad phi)^2 dr):     1427.592618
MG Discrepancy due to finite box and discretization:     -0.651038 (  -0.04558%)
MG Correction to account for finite box:                  0.471570
MG Remaining discrepancy, due to discretization:         -0.179468 (  -0.01257%)
     Trial step:       0.384454048159
             Q1:  -11532.843365000212
 Quadratic coef:       1.735958294139
 Linear coef   :      -4.454131412331
           Qmin:  -11532.982300648011
Quadratic minimum step length (  0.493217163766) accepted
    Initial Ne1:    7191.99992784
      Final Ne1:    7192.00000000

=================== Penalty functional idempotency correction ==================
 RMS occupancy error at iteration   1:  0.001732 (step -0.4935 Ne1=   7192.0000)
 RMS occupancy error at iteration   2:  0.000009 (step -0.5000 Ne1=   7192.0000)
            Final RMS occupancy error   :  0.000000 (Ne1=   7192.0000)
               Final occupancy bounds   : [  0.0000,  1.0000]
================================================================================

    2        -1.153012519188E+04     5.1979E-04     4.7014E-04    -2.1399E+01
MG BCs: +ve charge blocks (gridpoints):     30964 (   17277176).
MG BCs: -ve charge blocks (gridpoints):      8256 (    1097714).
MG BCs:     Elided blocks (gridpoints):    162939 (  172595735).
MG BCs: Computational effort saved:  99.9795%.
MG BCs: Charge after coarse-graining:           -9.0009843.
MG DL_MG: Calling solver with defect correction order = 8
MG DL_MG: Solver finished
MG Hartree energy from (\int phi*rho dr):              1429.820464
MG Hartree energy from (\int eps (grad phi)^2 dr):     1429.170410
MG Discrepancy due to finite box and discretization:     -0.650053 (  -0.04546%)
MG Correction to account for finite box:                  0.471431
MG Remaining discrepancy, due to discretization:         -0.178622 (  -0.01249%)
      ideal mu1:      -0.788395541026
             Q0:  -11533.015860622283
             G0:      -1.836742031950
   RMS gradient:       0.000207123976
MG BCs: +ve charge blocks (gridpoints):     30962 (   17276828).
MG BCs: -ve charge blocks (gridpoints):      8260 (    1098660).
MG BCs:     Elided blocks (gridpoints):    162941 (  172595137).
MG BCs: Computational effort saved:  99.9795%.
MG BCs: Charge after coarse-graining:           -9.0009839.
MG DL_MG: Calling solver with defect correction order = 8
MG DL_MG: Solver finished
MG Hartree energy from (\int phi*rho dr):              1427.769434
MG Hartree energy from (\int eps (grad phi)^2 dr):     1427.119833
MG Discrepancy due to finite box and discretization:     -0.649601 (  -0.04550%)
MG Correction to account for finite box:                  0.471198
MG Remaining discrepancy, due to discretization:         -0.178403 (  -0.01250%)
     Trial step:       0.435453022991
             Q1:  -11533.474861365627
 Quadratic coef:       0.340814126923
 Linear coef   :      -0.799814870266
           Qmin:  -11533.485107475748
Quadratic minimum step length (  0.510955643528) accepted
    Initial Ne1:    7191.99997154
      Final Ne1:    7192.00000000

=================== Penalty functional idempotency correction ==================
 RMS occupancy error at iteration   1:  0.000576 (step -0.4977 Ne1=   7192.0000)
 RMS occupancy error at iteration   2:  0.000001 (step -0.5000 Ne1=   7192.0000)
            Final RMS occupancy error   :  0.000000 (Ne1=   7192.0000)
               Final occupancy bounds   : [  0.0000,  1.0000]
================================================================================

    3        -1.153301586062E+04     2.0712E-04     1.8734E-04    -2.8907E+00
MG BCs: +ve charge blocks (gridpoints):     30962 (   17276806).
MG BCs: -ve charge blocks (gridpoints):      8262 (    1098774).
MG BCs:     Elided blocks (gridpoints):    162942 (  172595045).
MG BCs: Computational effort saved:  99.9795%.
MG BCs: Charge after coarse-graining:           -9.0009839.
MG DL_MG: Calling solver with defect correction order = 8
MG DL_MG: Solver finished
MG Hartree energy from (\int phi*rho dr):              1427.422015
MG Hartree energy from (\int eps (grad phi)^2 dr):     1426.772484
MG Discrepancy due to finite box and discretization:     -0.649531 (  -0.04550%)
MG Correction to account for finite box:                  0.471158
MG Remaining discrepancy, due to discretization:         -0.178373 (  -0.01250%)
      ideal mu1:      -0.788839356928
             Q0:  -11533.489294021158
             G0:      -0.433063157100
   RMS gradient:       0.000100666178
MG BCs: +ve charge blocks (gridpoints):     30963 (   17277454).
MG BCs: -ve charge blocks (gridpoints):      8262 (    1098671).
MG BCs:     Elided blocks (gridpoints):    162940 (  172594500).
MG BCs: Computational effort saved:  99.9795%.
MG BCs: Charge after coarse-graining:           -9.0009840.
MG DL_MG: Calling solver with defect correction order = 8
MG DL_MG: Solver finished
MG Hartree energy from (\int phi*rho dr):              1428.498272
MG Hartree energy from (\int eps (grad phi)^2 dr):     1427.848677
MG Discrepancy due to finite box and discretization:     -0.649594 (  -0.04547%)
MG Correction to account for finite box:                  0.471124
MG Remaining discrepancy, due to discretization:         -0.178470 (  -0.01249%)
     Trial step:       0.471696066963
             Q1:  -11533.588362432551
 Quadratic coef:       0.105205776557
 Linear coef   :      -0.204274187951
           Qmin:  -11533.588451941065
Quadratic minimum step length (  0.457937454536) accepted
    Initial Ne1:    7191.99999386
      Final Ne1:    7192.00000000

=================== Penalty functional idempotency correction ==================
 RMS occupancy error at iteration   1:  0.000188 (step -0.4992 Ne1=   7192.0000)
            Final RMS occupancy error   :  0.000000 (Ne1=   7192.0000)
               Final occupancy bounds   : [ -0.0000,  1.0000]
================================================================================

    4        -1.153348929402E+04     1.0067E-04     9.1050E-05    -4.7343E-01
MG BCs: +ve charge blocks (gridpoints):     30963 (   17277435).
MG BCs: -ve charge blocks (gridpoints):      8262 (    1098658).
MG BCs:     Elided blocks (gridpoints):    162940 (  172594532).
MG BCs: Computational effort saved:  99.9795%.
MG BCs: Charge after coarse-graining:           -9.0009840.
MG DL_MG: Calling solver with defect correction order = 8
MG DL_MG: Solver finished
MG Hartree energy from (\int phi*rho dr):              1428.466904
MG Hartree energy from (\int eps (grad phi)^2 dr):     1427.817311
MG Discrepancy due to finite box and discretization:     -0.649592 (  -0.04547%)
MG Correction to account for finite box:                  0.471125
MG Remaining discrepancy, due to discretization:         -0.178467 (  -0.01249%)
      ideal mu1:      -0.789147294186
             Q0:  -11533.588880565134
             G0:      -0.105696907051
   RMS gradient:       0.000049876423
MG BCs: +ve charge blocks (gridpoints):     30962 (   17277695).
MG BCs: -ve charge blocks (gridpoints):      8260 (    1098507).
MG BCs:     Elided blocks (gridpoints):    162941 (  172594423).
MG BCs: Computational effort saved:  99.9795%.
MG BCs: Charge after coarse-graining:           -9.0009839.
MG DL_MG: Calling solver with defect correction order = 8
MG DL_MG: Solver finished
MG Hartree energy from (\int phi*rho dr):              1428.881322
MG Hartree energy from (\int eps (grad phi)^2 dr):     1428.231608
MG Discrepancy due to finite box and discretization:     -0.649714 (  -0.04547%)
MG Correction to account for finite box:                  0.471112
MG Remaining discrepancy, due to discretization:         -0.178602 (  -0.01250%)
     Trial step:       0.464765850961
             Q1:  -11533.614921475761
 Quadratic coef:       0.023083402322
 Linear coef   :      -0.049124312950
           Qmin:  -11533.615016206764
Quadratic minimum step length (  0.494539383583) accepted
    Initial Ne1:    7192.00167509
      Final Ne1:    7192.00000000

=================== Penalty functional idempotency correction ==================
 RMS occupancy error at iteration   1:  0.000067 (step -0.4997 Ne1=   7192.0000)
            Final RMS occupancy error   :  0.000000 (Ne1=   7192.0000)
               Final occupancy bounds   : [ -0.0000,  1.0000]
================================================================================

    5        -1.153358888057E+04     4.9876E-05     4.5112E-05    -9.9587E-02
MG BCs: +ve charge blocks (gridpoints):     30962 (   17277706).
MG BCs: -ve charge blocks (gridpoints):      8259 (    1098500).
MG BCs:     Elided blocks (gridpoints):    162942 (  172594419).
MG BCs: Computational effort saved:  99.9795%.
MG BCs: Charge after coarse-graining:           -9.0009839.
MG DL_MG: Calling solver with defect correction order = 8
MG DL_MG: Solver finished
MG Hartree energy from (\int phi*rho dr):              1428.907911
MG Hartree energy from (\int eps (grad phi)^2 dr):     1428.258189
MG Discrepancy due to finite box and discretization:     -0.649722 (  -0.04547%)
MG Correction to account for finite box:                  0.471111
MG Remaining discrepancy, due to discretization:         -0.178611 (  -0.01250%)
      ideal mu1:      -0.789118603614
             Q0:  -11533.615067683160
             G0:      -0.031723134430
   RMS gradient:       0.000027345675
MG BCs: +ve charge blocks (gridpoints):     30963 (   17277358).
MG BCs: -ve charge blocks (gridpoints):      8260 (    1098724).
MG BCs:     Elided blocks (gridpoints):    162941 (  172594543).
MG BCs: Computational effort saved:  99.9795%.
MG BCs: Charge after coarse-graining:           -9.0009838.
MG DL_MG: Calling solver with defect correction order = 8
MG DL_MG: Solver finished
MG Hartree energy from (\int phi*rho dr):              1428.285682
MG Hartree energy from (\int eps (grad phi)^2 dr):     1427.635967
MG Discrepancy due to finite box and discretization:     -0.649715 (  -0.04549%)
MG Correction to account for finite box:                  0.471112
MG Remaining discrepancy, due to discretization:         -0.178603 (  -0.01250%)
     Trial step:       0.479421544619
             Q1:  -11533.625005353708
 Quadratic coef:       0.005271083561
 Linear coef   :      -0.015208754109
           Qmin:  -11533.626038207478
Quadratic minimum step length (  0.691641889431) accepted
    Initial Ne1:    7192.00103461
      Final Ne1:    7192.00000000

=================== Penalty functional idempotency correction ==================
 RMS occupancy error at iteration   1:  0.000040 (step -0.4998 Ne1=   7192.0000)
            Final RMS occupancy error   :  0.000000 (Ne1=   7192.0000)
               Final occupancy bounds   : [ -0.0000,  1.0000]
================================================================================

    6        -1.153361506768E+04     2.7346E-05     2.4734E-05    -2.6187E-02
MG BCs: +ve charge blocks (gridpoints):     30963 (   17277200).
MG BCs: -ve charge blocks (gridpoints):      8261 (    1098829).
MG BCs:     Elided blocks (gridpoints):    162941 (  172594596).
MG BCs: Computational effort saved:  99.9795%.
MG BCs: Charge after coarse-graining:           -9.0009837.
MG DL_MG: Calling solver with defect correction order = 8
MG DL_MG: Solver finished
MG Hartree energy from (\int phi*rho dr):              1428.009539
MG Hartree energy from (\int eps (grad phi)^2 dr):     1427.359827
MG Discrepancy due to finite box and discretization:     -0.649712 (  -0.04550%)
MG Correction to account for finite box:                  0.471112
MG Remaining discrepancy, due to discretization:         -0.178600 (  -0.01251%)
      ideal mu1:      -0.788808076608
             Q0:  -11533.626048022532
             G0:      -0.016514552157
   RMS gradient:       0.000019755412
MG BCs: +ve charge blocks (gridpoints):     30964 (   17277658).
MG BCs: -ve charge blocks (gridpoints):      8260 (    1098555).
MG BCs:     Elided blocks (gridpoints):    162940 (  172594412).
MG BCs: Computational effort saved:  99.9795%.
MG BCs: Charge after coarse-graining:           -9.0009838.
MG DL_MG: Calling solver with defect correction order = 8
MG DL_MG: Solver finished
MG Hartree energy from (\int phi*rho dr):              1428.586653
MG Hartree energy from (\int eps (grad phi)^2 dr):     1427.936966
MG Discrepancy due to finite box and discretization:     -0.649687 (  -0.04548%)
MG Correction to account for finite box:                  0.471106
MG Remaining discrepancy, due to discretization:         -0.178581 (  -0.01250%)
     Trial step:       0.575836802362
             Q1:  -11533.630186479422
 Quadratic coef:       0.005371230016
 Linear coef   :      -0.009509686907
           Qmin:  -11533.630257214132
Quadratic minimum step length (  0.509755464153) accepted
    Initial Ne1:    7192.00015782
      Final Ne1:    7192.00000000

=================== Penalty functional idempotency correction ==================
 RMS occupancy error at iteration   1:  0.000002 (step -0.5000 Ne1=   7192.0000)
            Final RMS occupancy error   :  0.000000 (Ne1=   7192.0000)
               Final occupancy bounds   : [  0.0000,  1.0000]
================================================================================

    7        -1.153362604802E+04     1.9755E-05     1.7868E-05    -1.0980E-02
MG BCs: +ve charge blocks (gridpoints):     30964 (   17277607).
MG BCs: -ve charge blocks (gridpoints):      8260 (    1098603).
MG BCs:     Elided blocks (gridpoints):    162940 (  172594415).
MG BCs: Computational effort saved:  99.9795%.
MG BCs: Charge after coarse-graining:           -9.0009838.
MG DL_MG: Calling solver with defect correction order = 8
MG DL_MG: Solver finished
MG Hartree energy from (\int phi*rho dr):              1428.520317
MG Hartree energy from (\int eps (grad phi)^2 dr):     1427.870628
MG Discrepancy due to finite box and discretization:     -0.649690 (  -0.04548%)
MG Correction to account for finite box:                  0.471107
MG Remaining discrepancy, due to discretization:         -0.178583 (  -0.01250%)
      ideal mu1:      -0.789142321986
             Q0:  -11533.630257408950
             G0:      -0.009487858906
   RMS gradient:       0.000014974683
MG BCs: +ve charge blocks (gridpoints):     30964 (   17277702).
MG BCs: -ve charge blocks (gridpoints):      8260 (    1098552).
MG BCs:     Elided blocks (gridpoints):    162940 (  172594371).
MG BCs: Computational effort saved:  99.9795%.
MG BCs: Charge after coarse-graining:           -9.0009839.
MG DL_MG: Calling solver with defect correction order = 8
MG DL_MG: Solver finished
MG Hartree energy from (\int phi*rho dr):              1428.590583
MG Hartree energy from (\int eps (grad phi)^2 dr):     1427.940933
MG Discrepancy due to finite box and discretization:     -0.649650 (  -0.04547%)
MG Correction to account for finite box:                  0.471095
MG Remaining discrepancy, due to discretization:         -0.178555 (  -0.01250%)
     Trial step:       0.541789586892
             Q1:  -11533.634024499333
 Quadratic coef:       0.001373332774
 Linear coef   :      -0.005140423157
           Qmin:  -11533.635067596024
Quadratic minimum step length (  1.013966822631) accepted
    Initial Ne1:    7192.00017927
      Final Ne1:    7192.00000000

=================== Penalty functional idempotency correction ==================
 RMS occupancy error at iteration   1:  0.000023 (step -0.4993 Ne1=   7192.0000)
            Final RMS occupancy error   :  0.000000 (Ne1=   7192.0000)
               Final occupancy bounds   : [ -0.0000,  1.0000]
================================================================================

    8        -1.153363025741E+04     1.4975E-05     1.3544E-05    -4.2094E-03
MG BCs: +ve charge blocks (gridpoints):     30965 (   17277775).
MG BCs: -ve charge blocks (gridpoints):      8259 (    1098513).
MG BCs:     Elided blocks (gridpoints):    162939 (  172594337).
MG BCs: Computational effort saved:  99.9795%.
MG BCs: Charge after coarse-graining:           -9.0009839.
MG DL_MG: Calling solver with defect correction order = 8
MG DL_MG: Solver finished
MG Hartree energy from (\int phi*rho dr):              1428.650293
MG Hartree energy from (\int eps (grad phi)^2 dr):     1428.000677
MG Discrepancy due to finite box and discretization:     -0.649616 (  -0.04547%)
MG Correction to account for finite box:                  0.471085
MG Remaining discrepancy, due to discretization:         -0.178531 (  -0.01250%)
      ideal mu1:      -0.789175369302
             Q0:  -11533.635057102772
             G0:      -0.013268299277
   RMS gradient:       0.000017746064
MG BCs: +ve charge blocks (gridpoints):     30965 (   17277668).
MG BCs: -ve charge blocks (gridpoints):      8259 (    1098660).
MG BCs:     Elided blocks (gridpoints):    162939 (  172594297).
MG BCs: Computational effort saved:  99.9795%.
MG BCs: Charge after coarse-graining:           -9.0009838.
MG DL_MG: Calling solver with defect correction order = 8
MG DL_MG: Solver finished
MG Hartree energy from (\int phi*rho dr):              1428.329103
MG Hartree energy from (\int eps (grad phi)^2 dr):     1427.679541
MG Discrepancy due to finite box and discretization:     -0.649562 (  -0.04548%)
MG Correction to account for finite box:                  0.471077
MG Remaining discrepancy, due to discretization:         -0.178485 (  -0.01250%)
     Trial step:       0.741185986076
             Q1:  -11533.641182750231
 Quadratic coef:       0.003708630025
 Linear coef   :      -0.009834277483
           Qmin:  -11533.641576559618
Quadratic minimum step length (  0.982711756629) accepted
    Initial Ne1:    7192.00049456
      Final Ne1:    7192.00000000

=================== Penalty functional idempotency correction ==================
 RMS occupancy error at iteration   1:  0.000126 (step -0.4955 Ne1=   7192.0000)
 RMS occupancy error at iteration   2:  0.000001 (step -0.5000 Ne1=   7192.0000)
            Final RMS occupancy error   :  0.000000 (Ne1=   7192.0000)
               Final occupancy bounds   : [  0.0000,  1.0000]
================================================================================

    9        -1.153363505710E+04     1.7746E-05     1.6051E-05    -4.7997E-03
MG BCs: +ve charge blocks (gridpoints):     30965 (   17277665).
MG BCs: -ve charge blocks (gridpoints):      8259 (    1098678).
MG BCs:     Elided blocks (gridpoints):    162939 (  172594282).
MG BCs: Computational effort saved:  99.9795%.
MG BCs: Charge after coarse-graining:           -9.0009838.
MG DL_MG: Calling solver with defect correction order = 8
MG DL_MG: Solver finished
MG Hartree energy from (\int phi*rho dr):              1428.221724
MG Hartree energy from (\int eps (grad phi)^2 dr):     1427.572179
MG Discrepancy due to finite box and discretization:     -0.649544 (  -0.04548%)
MG Correction to account for finite box:                  0.471074
MG Remaining discrepancy, due to discretization:         -0.178470 (  -0.01250%)
      ideal mu1:      -0.788779126436
   10        -1.153364153193E+04     1.9700E-05     1.7818E-05    -6.4748E-03
Finished density kernel iterations (  10)

Writing density kernel to file "host_11501.vacuum_dkn" ... done


>>> Density kernel optimised for the current NGWF basis:
     ~~~~~~~~~~~~~~~~~~~~~~~~~~~~~~~~~~~~~~~~~~~~~~~~~~~~~~~~~~~
     Total energy                =  -1.15336415319346E+04  Eh
     Estimated bandgap           =  -2.4729E-01  Eh
     RMS occupancy error         =   3.7231E-11
     [H,K] commutator            =   1.7818E-05
     Occupancy bounds            = [  0.000:  1.000]
     ~~~~~~~~~~~~~~~~~~~~~~~~~~~~~~~~~~~~~~~~~~~~~~~~~~~~~~~~~~~




################################################################################
########################### NGWF CG iteration  001 #############################
################################################################################
****** Reciprocal space K.E. preconditioning with k_zero =  3.5000 a0^-1 *******

>>> Checking for convergence of NGWFs:   NOT CONVERGED
  ========================================================================
         NGWF RMS gradient =  1.5833E-03 >  2.0000E-06  | above tolerance
  ========================================================================

>>> Improving NGWFs using line search:
============ Calculation of NGWF S^-1 using Hotelling algorithm ================ 
         Iteration  |  Frobenius norm and Maximum abs value    (of I-S*S_n^-1)   
               1       0.19394980E+00     0.49100345E-02
               2       0.86364501E-03     0.35167390E-04
               3       0.28808531E-07     0.20272217E-08
               4       0.12627126E-12     0.62172489E-14
================================================================================
MG BCs: +ve charge blocks (gridpoints):     30482 (   17223105).
MG BCs: -ve charge blocks (gridpoints):      8267 (    1098668).
MG BCs:     Elided blocks (gridpoints):    163422 (  172648852).
MG BCs: Computational effort saved:  99.9797%.
MG BCs: Charge after coarse-graining:           -9.0009854.
MG DL_MG: Calling solver with defect correction order = 8
MG DL_MG: Solver finished
MG Hartree energy from (\int phi*rho dr):              1396.677021
MG Hartree energy from (\int eps (grad phi)^2 dr):     1396.028161
MG Discrepancy due to finite box and discretization:     -0.648860 (  -0.04646%)
MG Correction to account for finite box:                  0.471020
MG Remaining discrepancy, due to discretization:         -0.177840 (  -0.01273%)
============ Calculation of NGWF S^-1 using Hotelling algorithm ================ 
         Iteration  |  Frobenius norm and Maximum abs value    (of I-S*S_n^-1)   
               1       0.18392833E+01     0.40801216E-01
               2       0.70045097E-01     0.21372207E-02
               3       0.13589176E-03     0.77311025E-05
               4       0.92025425E-09     0.12452398E-09
               5       0.10778033E-12     0.55511151E-14
================================================================================
------------------------------- NGWF line search -------------------------------
RMS gradient                =       0.00158331879764
Trial step length           =               0.122474
Gradient along search dir.  =       -273.77691938990
Functional at step 0        =  -11533.64153193461243
Functional at step 1        =  -11564.62474752846174
Functional predicted        =  -11643.97708577452977
Selected quadratic step     =               0.806025
--------------------------- NGWF line search finished --------------------------
                                               
Writing NGWFs to file "host_11501.vacuum_tightbox_ngwfs"....  done

>>> Optimising kernel for current NGWFs:
   Initial electron number for spin 1:    7226.12522413
     Final electron number for spin 1:    7192.00000000

=================== Penalty functional idempotency correction ==================
 RMS occupancy error at iteration   1:  0.004218 (step -0.4863 Ne1=   7192.0000)
 RMS occupancy error at iteration   2:  0.000069 (step -0.5003 Ne1=   7192.0000)
            Final RMS occupancy error   :  0.000000 (Ne1=   7192.0000)
               Final occupancy bounds   : [  0.0000,  1.0000]
================================================================================

................................................................................
<<<<<<<<<<<<<< LNV (Original version) density kernel optimisation >>>>>>>>>>>>>>
~~~~~~~~~~~~~~~~~~~~~~~~~~~~~~~~~~~~~~~~~~~~~~~~~~~~~~~~~~~~~~~~~~~~~~~~~~~~~~~~
   iter  |      energy (Eh)       | rms gradient |  commutator  |   dE (Eh)
MG BCs: +ve charge blocks (gridpoints):     24607 (   16926610).
MG BCs: -ve charge blocks (gridpoints):      8405 (    1082720).
MG BCs:     Elided blocks (gridpoints):    169307 (  172961295).
MG BCs: Computational effort saved:  99.9827%.
MG BCs: Charge after coarse-graining:           -9.0006724.
MG DL_MG: Calling solver with defect correction order = 8
MG DL_MG: Solver finished
MG Hartree energy from (\int phi*rho dr):              1242.773558
MG Hartree energy from (\int eps (grad phi)^2 dr):     1242.123977
MG Discrepancy due to finite box and discretization:     -0.649581 (  -0.05227%)
MG Correction to account for finite box:                  0.470759
MG Remaining discrepancy, due to discretization:         -0.178822 (  -0.01439%)
      ideal mu1:      -0.727663682434
             Q0:  -11643.176875574049
             G0:      -9.817500015804
   RMS gradient:       0.000481673945
MG BCs: +ve charge blocks (gridpoints):     24678 (   16945257).
MG BCs: -ve charge blocks (gridpoints):      8390 (    1078242).
MG BCs:     Elided blocks (gridpoints):    169236 (  172947126).
MG BCs: Computational effort saved:  99.9827%.
MG BCs: Charge after coarse-graining:           -9.0006678.
MG DL_MG: Calling solver with defect correction order = 8
MG DL_MG: Solver finished
MG Hartree energy from (\int phi*rho dr):              1262.052018
MG Hartree energy from (\int eps (grad phi)^2 dr):     1261.395869
MG Discrepancy due to finite box and discretization:     -0.656150 (  -0.05199%)
MG Correction to account for finite box:                  0.470388
MG Remaining discrepancy, due to discretization:         -0.185762 (  -0.01472%)
     Trial step:       0.853447234670
             Q1:  -11640.705351507524
 Quadratic coef:      10.850242306382
 Linear coef   :      -8.378718239858
           Qmin:  -11644.794418237167
Quadratic minimum step length (  0.329522314339) accepted
    Initial Ne1:    7191.99959967
      Final Ne1:    7192.00000000

=================== Penalty functional idempotency correction ==================
 RMS occupancy error at iteration   1:  0.000355 (step -0.4986 Ne1=   7192.0000)
 RMS occupancy error at iteration   2:  0.000000 (step -0.5000 Ne1=   7192.0000)
            Final RMS occupancy error   :  0.000000 (Ne1=   7192.0000)
               Final occupancy bounds   : [  0.0000,  1.0000]
================================================================================

    1        -1.164317687557E+04     4.8167E-04     4.3566E-04
MG BCs: +ve charge blocks (gridpoints):     24640 (   16933892).
MG BCs: -ve charge blocks (gridpoints):      8396 (    1081014).
MG BCs:     Elided blocks (gridpoints):    169274 (  172955719).
MG BCs: Computational effort saved:  99.9827%.
MG BCs: Charge after coarse-graining:           -9.0006706.
MG DL_MG: Calling solver with defect correction order = 8
MG DL_MG: Solver finished
MG Hartree energy from (\int phi*rho dr):              1248.940661
MG Hartree energy from (\int eps (grad phi)^2 dr):     1248.288671
MG Discrepancy due to finite box and discretization:     -0.651991 (  -0.05220%)
MG Correction to account for finite box:                  0.470592
MG Remaining discrepancy, due to discretization:         -0.181398 (  -0.01452%)
      ideal mu1:      -0.734233266075
             Q0:  -11644.760043909424
             G0:      -0.986574507470
   RMS gradient:       0.000153815368
MG BCs: +ve charge blocks (gridpoints):     24641 (   16933782).
MG BCs: -ve charge blocks (gridpoints):      8394 (    1081805).
MG BCs:     Elided blocks (gridpoints):    169273 (  172955038).
MG BCs: Computational effort saved:  99.9827%.
MG BCs: Charge after coarse-graining:           -9.0006704.
MG DL_MG: Calling solver with defect correction order = 8
MG DL_MG: Solver finished
MG Hartree energy from (\int phi*rho dr):              1250.144932
MG Hartree energy from (\int eps (grad phi)^2 dr):     1249.492557
MG Discrepancy due to finite box and discretization:     -0.652375 (  -0.05218%)
MG Correction to account for finite box:                  0.470583
MG Remaining discrepancy, due to discretization:         -0.181793 (  -0.01454%)
     Trial step:       0.530311142571
             Q1:  -11644.957123242319
 Quadratic coef:       0.326112121393
 Linear coef   :      -0.523191454288
           Qmin:  -11644.969886843712
Quadratic minimum step length (  0.425397033268) accepted
    Initial Ne1:    7191.99994729
      Final Ne1:    7192.00000000

=================== Penalty functional idempotency correction ==================
 RMS occupancy error at iteration   1:  0.000143 (step -0.4994 Ne1=   7192.0000)
            Final RMS occupancy error   :  0.000000 (Ne1=   7192.0000)
               Final occupancy bounds   : [ -0.0000,  1.0000]
================================================================================

    2        -1.164476004391E+04     1.5382E-04     1.3912E-04    -1.5832E+00
MG BCs: +ve charge blocks (gridpoints):     24641 (   16933821).
MG BCs: -ve charge blocks (gridpoints):      8396 (    1081623).
MG BCs:     Elided blocks (gridpoints):    169273 (  172955181).
MG BCs: Computational effort saved:  99.9827%.
MG BCs: Charge after coarse-graining:           -9.0006705.
MG DL_MG: Calling solver with defect correction order = 8
MG DL_MG: Solver finished
MG Hartree energy from (\int phi*rho dr):              1249.906363
MG Hartree energy from (\int eps (grad phi)^2 dr):     1249.254067
MG Discrepancy due to finite box and discretization:     -0.652297 (  -0.05219%)
MG Correction to account for finite box:                  0.470584
MG Remaining discrepancy, due to discretization:         -0.181712 (  -0.01454%)
      ideal mu1:      -0.735218035778
             Q0:  -11644.970362539636
             G0:      -0.147385220377
   RMS gradient:       0.000058950272
MG BCs: +ve charge blocks (gridpoints):     24642 (   16933097).
MG BCs: -ve charge blocks (gridpoints):      8397 (    1082078).
MG BCs:     Elided blocks (gridpoints):    169272 (  172955450).
MG BCs: Computational effort saved:  99.9827%.
MG BCs: Charge after coarse-graining:           -9.0006705.
MG DL_MG: Calling solver with defect correction order = 8
MG DL_MG: Solver finished
MG Hartree energy from (\int phi*rho dr):              1249.420338
MG Hartree energy from (\int eps (grad phi)^2 dr):     1248.768069
MG Discrepancy due to finite box and discretization:     -0.652269 (  -0.05221%)
MG Correction to account for finite box:                  0.470580
MG Remaining discrepancy, due to discretization:         -0.181689 (  -0.01454%)
     Trial step:       0.474966090115
             Q1:  -11645.015035035671
 Quadratic coef:       0.025330485829
 Linear coef   :      -0.070002981863
           Qmin:  -11645.018727358838
Quadratic minimum step length (  0.656304873435) accepted
    Initial Ne1:    7192.00060796
      Final Ne1:    7192.00000000

=================== Penalty functional idempotency correction ==================
 RMS occupancy error at iteration   1:  0.000062 (step -0.4998 Ne1=   7192.0000)
            Final RMS occupancy error   :  0.000000 (Ne1=   7192.0000)
               Final occupancy bounds   : [ -0.0000,  1.0000]
================================================================================

    3        -1.164497036254E+04     5.8950E-05     5.3319E-05    -2.1032E-01
MG BCs: +ve charge blocks (gridpoints):     24641 (   16932902).
MG BCs: -ve charge blocks (gridpoints):      8396 (    1082176).
MG BCs:     Elided blocks (gridpoints):    169273 (  172955547).
MG BCs: Computational effort saved:  99.9827%.
MG BCs: Charge after coarse-graining:           -9.0006705.
MG DL_MG: Calling solver with defect correction order = 8
MG DL_MG: Solver finished
MG Hartree energy from (\int phi*rho dr):              1249.234876
MG Hartree energy from (\int eps (grad phi)^2 dr):     1248.582617
MG Discrepancy due to finite box and discretization:     -0.652259 (  -0.05221%)
MG Correction to account for finite box:                  0.470578
MG Remaining discrepancy, due to discretization:         -0.181681 (  -0.01454%)
      ideal mu1:      -0.734314487473
             Q0:  -11645.018815180869
             G0:      -0.035602846827
   RMS gradient:       0.000028964646
MG BCs: +ve charge blocks (gridpoints):     24640 (   16932620).
MG BCs: -ve charge blocks (gridpoints):      8395 (    1082289).
MG BCs:     Elided blocks (gridpoints):    169274 (  172955716).
MG BCs: Computational effort saved:  99.9827%.
MG BCs: Charge after coarse-graining:           -9.0006706.
MG DL_MG: Calling solver with defect correction order = 8
MG DL_MG: Solver finished
MG Hartree energy from (\int phi*rho dr):              1249.250684
MG Hartree energy from (\int eps (grad phi)^2 dr):     1248.598536
MG Discrepancy due to finite box and discretization:     -0.652149 (  -0.05220%)
MG Correction to account for finite box:                  0.470571
MG Remaining discrepancy, due to discretization:         -0.181578 (  -0.01453%)
     Trial step:       0.558321197572
             Q1:  -11645.027581474860
 Quadratic coef:       0.011111530086
 Linear coef   :      -0.019877824077
           Qmin:  -11645.027705223172
Quadratic minimum step length (  0.499400643209) accepted
    Initial Ne1:    7192.00022335
      Final Ne1:    7192.00000000

=================== Penalty functional idempotency correction ==================
 RMS occupancy error at iteration   1:  0.000018 (step -0.4999 Ne1=   7192.0000)
            Final RMS occupancy error   :  0.000000 (Ne1=   7192.0000)
               Final occupancy bounds   : [ -0.0000,  1.0000]
================================================================================

    4        -1.164501881518E+04     2.8965E-05     2.6198E-05    -4.8453E-02
MG BCs: +ve charge blocks (gridpoints):     24640 (   16932671).
MG BCs: -ve charge blocks (gridpoints):      8395 (    1082274).
MG BCs:     Elided blocks (gridpoints):    169274 (  172955680).
MG BCs: Computational effort saved:  99.9827%.
MG BCs: Charge after coarse-graining:           -9.0006705.
MG DL_MG: Calling solver with defect correction order = 8
MG DL_MG: Solver finished
MG Hartree energy from (\int phi*rho dr):              1249.248838
MG Hartree energy from (\int eps (grad phi)^2 dr):     1248.596678
MG Discrepancy due to finite box and discretization:     -0.652161 (  -0.05220%)
MG Correction to account for finite box:                  0.470571
MG Remaining discrepancy, due to discretization:         -0.181589 (  -0.01454%)
      ideal mu1:      -0.734301995763
             Q0:  -11645.027710134280
             G0:      -0.011656447613
   RMS gradient:       0.000016593667
MG BCs: +ve charge blocks (gridpoints):     24640 (   16933121).
MG BCs: -ve charge blocks (gridpoints):      8394 (    1082120).
MG BCs:     Elided blocks (gridpoints):    169274 (  172955384).
MG BCs: Computational effort saved:  99.9827%.
MG BCs: Charge after coarse-graining:           -9.0006704.
MG DL_MG: Calling solver with defect correction order = 8
MG DL_MG: Solver finished
MG Hartree energy from (\int phi*rho dr):              1249.636199
MG Hartree energy from (\int eps (grad phi)^2 dr):     1248.984072
MG Discrepancy due to finite box and discretization:     -0.652127 (  -0.05219%)
MG Correction to account for finite box:                  0.470570
MG Remaining discrepancy, due to discretization:         -0.181556 (  -0.01453%)
     Trial step:       0.528039738263
             Q1:  -11645.030953217414
 Quadratic coef:       0.002911984413
 Linear coef   :      -0.006155067547
           Qmin:  -11645.030962629067
Quadratic minimum step length (  0.558059349802) accepted
    Initial Ne1:    7192.00009501
      Final Ne1:    7192.00000000

=================== Penalty functional idempotency correction ==================
 RMS occupancy error at iteration   1:  0.000009 (step -0.5000 Ne1=   7192.0000)
            Final RMS occupancy error   :  0.000000 (Ne1=   7192.0000)
               Final occupancy bounds   : [ -0.0000,  1.0000]
================================================================================

    5        -1.164502771013E+04     1.6594E-05     1.5009E-05    -8.8950E-03
MG BCs: +ve charge blocks (gridpoints):     24640 (   16933139).
MG BCs: -ve charge blocks (gridpoints):      8394 (    1082106).
MG BCs:     Elided blocks (gridpoints):    169274 (  172955380).
MG BCs: Computational effort saved:  99.9827%.
MG BCs: Charge after coarse-graining:           -9.0006704.
MG DL_MG: Calling solver with defect correction order = 8
MG DL_MG: Solver finished
MG Hartree energy from (\int phi*rho dr):              1249.658245
MG Hartree energy from (\int eps (grad phi)^2 dr):     1249.006120
MG Discrepancy due to finite box and discretization:     -0.652125 (  -0.05218%)
MG Correction to account for finite box:                  0.470570
MG Remaining discrepancy, due to discretization:         -0.181555 (  -0.01453%)
      ideal mu1:      -0.734656621577
             Q0:  -11645.030963659403
             G0:      -0.003671443962
   RMS gradient:       0.000009313009
MG BCs: +ve charge blocks (gridpoints):     24640 (   16933154).
MG BCs: -ve charge blocks (gridpoints):      8393 (    1082129).
MG BCs:     Elided blocks (gridpoints):    169274 (  172955342).
MG BCs: Computational effort saved:  99.9827%.
MG BCs: Charge after coarse-graining:           -9.0006704.
MG DL_MG: Calling solver with defect correction order = 8
MG DL_MG: Solver finished
MG Hartree energy from (\int phi*rho dr):              1249.633666
MG Hartree energy from (\int eps (grad phi)^2 dr):     1248.981551
MG Discrepancy due to finite box and discretization:     -0.652116 (  -0.05218%)
MG Correction to account for finite box:                  0.470565
MG Remaining discrepancy, due to discretization:         -0.181550 (  -0.01453%)
     Trial step:       0.542842070039
             Q1:  -11645.032212469494
 Quadratic coef:       0.000744204150
 Linear coef   :      -0.001993014240
           Qmin:  -11645.032298006223
Quadratic minimum step length (  0.726878489090) accepted
    Initial Ne1:    7192.00004861
      Final Ne1:    7192.00000000

=================== Penalty functional idempotency correction ==================
 RMS occupancy error at iteration   1:  0.000007 (step -0.4999 Ne1=   7192.0000)
            Final RMS occupancy error   :  0.000000 (Ne1=   7192.0000)
               Final occupancy bounds   : [ -0.0000,  1.0000]
================================================================================

    6        -1.164503096366E+04     9.3130E-06     8.4234E-06    -3.2535E-03
MG BCs: +ve charge blocks (gridpoints):     24640 (   16933159).
MG BCs: -ve charge blocks (gridpoints):      8393 (    1082138).
MG BCs:     Elided blocks (gridpoints):    169274 (  172955328).
MG BCs: Computational effort saved:  99.9827%.
MG BCs: Charge after coarse-graining:           -9.0006704.
MG DL_MG: Calling solver with defect correction order = 8
MG DL_MG: Solver finished
MG Hartree energy from (\int phi*rho dr):              1249.625293
MG Hartree energy from (\int eps (grad phi)^2 dr):     1248.973181
MG Discrepancy due to finite box and discretization:     -0.652112 (  -0.05218%)
MG Correction to account for finite box:                  0.470564
MG Remaining discrepancy, due to discretization:         -0.181549 (  -0.01453%)
      ideal mu1:      -0.734629034471
             Q0:  -11645.032298022183
             G0:      -0.002223605006
   RMS gradient:       0.000007249057
MG BCs: +ve charge blocks (gridpoints):     24641 (   16932922).
MG BCs: -ve charge blocks (gridpoints):      8394 (    1082198).
MG BCs:     Elided blocks (gridpoints):    169273 (  172955505).
MG BCs: Computational effort saved:  99.9827%.
MG BCs: Charge after coarse-graining:           -9.0006705.
MG DL_MG: Calling solver with defect correction order = 8
MG DL_MG: Solver finished
MG Hartree energy from (\int phi*rho dr):              1249.508628
MG Hartree energy from (\int eps (grad phi)^2 dr):     1248.856501
MG Discrepancy due to finite box and discretization:     -0.652126 (  -0.05219%)
MG Correction to account for finite box:                  0.470569
MG Remaining discrepancy, due to discretization:         -0.181557 (  -0.01453%)
     Trial step:       0.628156209620
             Q1:  -11645.032773502404
 Quadratic coef:       0.000921291072
 Linear coef   :      -0.001396771292
           Qmin:  -11645.032827434141
Quadratic minimum step length (  0.476174461910) accepted
    Initial Ne1:    7192.00001435
      Final Ne1:    7192.00000000

=================== Penalty functional idempotency correction ==================
 RMS occupancy error at iteration   1:  0.000001 (step -0.5000 Ne1=   7192.0000)
            Final RMS occupancy error   :  0.000000 (Ne1=   7192.0000)
               Final occupancy bounds   : [  0.0000,  1.0000]
================================================================================

    7        -1.164503229802E+04     7.2491E-06     6.5566E-06    -1.3344E-03
MG BCs: +ve charge blocks (gridpoints):     24641 (   16932982).
MG BCs: -ve charge blocks (gridpoints):      8394 (    1082171).
MG BCs:     Elided blocks (gridpoints):    169273 (  172955472).
MG BCs: Computational effort saved:  99.9827%.
MG BCs: Charge after coarse-graining:           -9.0006705.
MG DL_MG: Calling solver with defect correction order = 8
MG DL_MG: Solver finished
MG Hartree energy from (\int phi*rho dr):              1249.536804
MG Hartree energy from (\int eps (grad phi)^2 dr):     1248.884681
MG Discrepancy due to finite box and discretization:     -0.652123 (  -0.05219%)
MG Correction to account for finite box:                  0.470568
MG Remaining discrepancy, due to discretization:         -0.181555 (  -0.01453%)
      ideal mu1:      -0.734511139825
             Q0:  -11645.032827424235
             G0:      -0.001399837747
   RMS gradient:       0.000005751550
MG BCs: +ve charge blocks (gridpoints):     24641 (   16932939).
MG BCs: -ve charge blocks (gridpoints):      8394 (    1082195).
MG BCs:     Elided blocks (gridpoints):    169273 (  172955491).
MG BCs: Computational effort saved:  99.9827%.
MG BCs: Charge after coarse-graining:           -9.0006705.
MG DL_MG: Calling solver with defect correction order = 8
MG DL_MG: Solver finished
MG Hartree energy from (\int phi*rho dr):              1249.487382
MG Hartree energy from (\int eps (grad phi)^2 dr):     1248.835252
MG Discrepancy due to finite box and discretization:     -0.652130 (  -0.05219%)
MG Correction to account for finite box:                  0.470568
MG Remaining discrepancy, due to discretization:         -0.181562 (  -0.01453%)
     Trial step:       0.546911277185
             Q1:  -11645.033442956628
 Quadratic coef:       0.000150054657
 Linear coef   :      -0.000765587050
           Qmin:  -11645.033803940963
Quadratic minimum step length (  1.395185594554) accepted
    Initial Ne1:    7192.00002637
      Final Ne1:    7192.00000000

=================== Penalty functional idempotency correction ==================
 RMS occupancy error at iteration   1:  0.000014 (step -0.4992 Ne1=   7192.0000)
            Final RMS occupancy error   :  0.000000 (Ne1=   7192.0000)
               Final occupancy bounds   : [ -0.0000,  1.0000]
================================================================================

    8        -1.164503282742E+04     5.7516E-06     5.2021E-06    -5.2940E-04
MG BCs: +ve charge blocks (gridpoints):     24640 (   16932849).
MG BCs: -ve charge blocks (gridpoints):      8394 (    1082234).
MG BCs:     Elided blocks (gridpoints):    169274 (  172955542).
MG BCs: Computational effort saved:  99.9827%.
MG BCs: Charge after coarse-graining:           -9.0006705.
MG DL_MG: Calling solver with defect correction order = 8
MG DL_MG: Solver finished
MG Hartree energy from (\int phi*rho dr):              1249.410078
MG Hartree energy from (\int eps (grad phi)^2 dr):     1248.757937
MG Discrepancy due to finite box and discretization:     -0.652141 (  -0.05220%)
[...]
MG Correction to account for finite box:                  0.006437
MG Remaining discrepancy, due to discretization:         -0.180277 (  -0.01492%)
     Trial step:       0.271249548752
             Q1:  -11678.946991028730
 Quadratic coef:       0.000000000289
 Linear coef   :      -0.000000000172
           Qmin:  -11678.946991028872
Quadratic minimum step length (  0.080873815196) accepted
    Initial Ne1:    7192.00000000
      Final Ne1:    7192.00000000

=================== Penalty functional idempotency correction ==================
 RMS occupancy error at iteration   1:  0.000000 (step -0.5000 Ne1=   7192.0000)
            Final RMS occupancy error   :  0.000000 (Ne1=   7192.0000)
               Final occupancy bounds   : [  0.0000,  1.0000]
================================================================================

    7        -1.167894699103E+04     3.8763E-09     3.5060E-09     0.0000E+00

Reusing previously generated solute cavity.
MG BCs: +ve charge blocks (gridpoints):     28766 (   19138550).
MG BCs: -ve charge blocks (gridpoints):      8383 (    1051057).
MG BCs:     Elided blocks (gridpoints):    165148 (  170781018).
MG BCs: Computational effort saved:  99.9805%.
MG BCs: Charge after coarse-graining:           -9.0009558.
MG DL_MG: Calling solver with defect correction order = 8
MG DL_MG: Solver finished
MG Hartree energy from (\int phi*rho dr):              1207.899194
MG Hartree energy from (\int eps (grad phi)^2 dr):     1207.712480
MG Discrepancy due to finite box and discretization:     -0.186714 (  -0.01546%)
MG Correction to account for finite box:                  0.006437
MG Remaining discrepancy, due to discretization:         -0.180277 (  -0.01492%)
      ideal mu1:      -0.481623642256
             Q0:  -11678.946991028846
             G0:      -0.000000001053
   RMS gradient:       0.000000003595

Reusing previously generated solute cavity.
MG BCs: +ve charge blocks (gridpoints):     28766 (   19138550).
MG BCs: -ve charge blocks (gridpoints):      8383 (    1051057).
MG BCs:     Elided blocks (gridpoints):    165148 (  170781018).
MG BCs: Computational effort saved:  99.9805%.
MG BCs: Charge after coarse-graining:           -9.0009558.
MG DL_MG: Calling solver with defect correction order = 8
MG DL_MG: Solver finished
MG Hartree energy from (\int phi*rho dr):              1207.899185
MG Hartree energy from (\int eps (grad phi)^2 dr):     1207.712471
MG Discrepancy due to finite box and discretization:     -0.186714 (  -0.01546%)
MG Correction to account for finite box:                  0.006437
MG Remaining discrepancy, due to discretization:         -0.180277 (  -0.01492%)
     Trial step:       0.148111396853
             Q1:  -11678.946991028846
 Quadratic coef:       0.000000000156
 Linear coef   :      -0.000000000156
           Qmin:  -11678.946991028884
Quadratic minimum step length (  0.073830123355) accepted
    Initial Ne1:    7192.00000000
      Final Ne1:    7192.00000000

=================== Penalty functional idempotency correction ==================
 RMS occupancy error at iteration   1:  0.000000 (step -0.5000 Ne1=   7192.0000)
            Final RMS occupancy error   :  0.000000 (Ne1=   7192.0000)
               Final occupancy bounds   : [  0.0000,  1.0000]
================================================================================

    8        -1.167894699103E+04     3.5946E-09     3.2512E-09     0.0000E+00

Reusing previously generated solute cavity.
MG BCs: +ve charge blocks (gridpoints):     28766 (   19138550).
MG BCs: -ve charge blocks (gridpoints):      8383 (    1051057).
MG BCs:     Elided blocks (gridpoints):    165148 (  170781018).
MG BCs: Computational effort saved:  99.9805%.
MG BCs: Charge after coarse-graining:           -9.0009558.
MG DL_MG: Calling solver with defect correction order = 8
MG DL_MG: Solver finished
MG Hartree energy from (\int phi*rho dr):              1207.899189
MG Hartree energy from (\int eps (grad phi)^2 dr):     1207.712475
MG Discrepancy due to finite box and discretization:     -0.186714 (  -0.01546%)
MG Correction to account for finite box:                  0.006437
MG Remaining discrepancy, due to discretization:         -0.180277 (  -0.01492%)
      ideal mu1:      -0.481623637242
             Q0:  -11678.946991028846
             G0:      -0.000000001142
   RMS gradient:       0.000000003170

Reusing previously generated solute cavity.
MG BCs: +ve charge blocks (gridpoints):     28766 (   19138550).
MG BCs: -ve charge blocks (gridpoints):      8383 (    1051057).
MG BCs:     Elided blocks (gridpoints):    165148 (  170781018).
MG BCs: Computational effort saved:  99.9805%.
MG BCs: Charge after coarse-graining:           -9.0009558.
MG DL_MG: Calling solver with defect correction order = 8
MG DL_MG: Solver finished
MG Hartree energy from (\int phi*rho dr):              1207.899181
MG Hartree energy from (\int eps (grad phi)^2 dr):     1207.712467
MG Discrepancy due to finite box and discretization:     -0.186714 (  -0.01546%)
MG Correction to account for finite box:                  0.006437
MG Remaining discrepancy, due to discretization:         -0.180277 (  -0.01492%)
     Trial step:       0.104570945773
             Q1:  -11678.946991028613
 Quadratic coef:       0.000000000353
 Linear coef   :      -0.000000000119
           Qmin:  -11678.946991028857
Quadratic minimum step length (  0.017690177868) accepted
    Initial Ne1:    7192.00000000
      Final Ne1:    7192.00000000

=================== Penalty functional idempotency correction ==================
 RMS occupancy error at iteration   1:  0.000000 (step -0.5000 Ne1=   7192.0000)
            Final RMS occupancy error   :  0.000000 (Ne1=   7192.0000)
               Final occupancy bounds   : [  0.0000,  1.0000]
================================================================================

    9        -1.167894699103E+04     3.1702E-09     2.8674E-09     0.0000E+00

Reusing previously generated solute cavity.
MG BCs: +ve charge blocks (gridpoints):     28766 (   19138550).
MG BCs: -ve charge blocks (gridpoints):      8383 (    1051057).
MG BCs:     Elided blocks (gridpoints):    165148 (  170781018).
MG BCs: Computational effort saved:  99.9805%.
MG BCs: Charge after coarse-graining:           -9.0009558.
MG DL_MG: Calling solver with defect correction order = 8
MG DL_MG: Solver finished
MG Hartree energy from (\int phi*rho dr):              1207.899188
MG Hartree energy from (\int eps (grad phi)^2 dr):     1207.712474
MG Discrepancy due to finite box and discretization:     -0.186714 (  -0.01546%)
MG Correction to account for finite box:                  0.006437
MG Remaining discrepancy, due to discretization:         -0.180277 (  -0.01492%)
      ideal mu1:      -0.481623635801
   10        -1.167894699103E+04     3.0547E-09     2.7629E-09     0.0000E+00
Finished density kernel iterations (  10)

Writing density kernel to file "host_11501.dkn" ... done


>>> Density kernel optimised for the current NGWF basis:
     ~~~~~~~~~~~~~~~~~~~~~~~~~~~~~~~~~~~~~~~~~~~~~~~~~~~~~~~~~~~
     Total energy                =  -1.16789469910288E+04  Eh
     Estimated bandgap           =   8.6910E-02  Eh
     RMS occupancy error         =   2.4729E-16
     [H,K] commutator            =   2.7629E-09
     Occupancy bounds            = [  0.000:  1.000]
     ~~~~~~~~~~~~~~~~~~~~~~~~~~~~~~~~~~~~~~~~~~~~~~~~~~~~~~~~~~~




################################################################################
########################### NGWF CG iteration  005 #############################
################################################################################
****** Reciprocal space K.E. preconditioning with k_zero =  3.5000 a0^-1 *******

>>> Checking for convergence of NGWFs: 
           ........................................................
           |         *** NGWF optimisation converged ***          |
           | RMS NGWF gradient =    0.00000091212210              |
           | Criteria satisfied:                                  |
           | -> RMS NGWF gradient lower than set threshold.       |
           ========================================================

Reusing previously generated solute cavity.
MG BCs: +ve charge blocks (gridpoints):     28766 (   19138550).
MG BCs: -ve charge blocks (gridpoints):      8383 (    1051057).
MG BCs:     Elided blocks (gridpoints):    165148 (  170781018).
MG BCs: Computational effort saved:  99.9805%.
MG BCs: Charge after coarse-graining:           -9.0009558.
MG DL_MG: Calling solver with defect correction order = 8
MG DL_MG: Solver finished
MG Hartree energy from (\int phi*rho dr):              1207.899188
MG Hartree energy from (\int eps (grad phi)^2 dr):     1207.712474
MG Discrepancy due to finite box and discretization:     -0.186714 (  -0.01546%)
MG Correction to account for finite box:                  0.006437
MG Remaining discrepancy, due to discretization:         -0.180277 (  -0.01492%)

================================================================================
           ---------------- ENERGY COMPONENTS (Eh) ----------------
           | Kinetic                    :     8532.84410910173210 |
           | Pseudo. (local,OBC,corr'd) :    -5052.91835103419271 |
           | Pseudopotential (non-local):     1403.22719187580196 |
           | Hartree (molecular)        :     1207.89918780140147 |
           | Exchange-correlation       :    -3358.31354038671043 |
           | Ion-ion (open BC)          :   823657.45251520746388 |
           | Dispersion Correction      :       -3.25128984291800 |
           | Smeared ion non-self corr. :  -823609.36655984632671 |
           | Smeared ion self corr.     :   -14457.16956389741972 |
           | Solvent cavitation energy  :        2.31009514334090 |
           | Solute-solvent dis-rep en. :       -1.66078515092636 |
           | Total                      :   -11678.94699102879167 |
           --------------------------------------------------------
           ------ LOCAL ENERGY COMPONENTS FROM MATRIX TRACES ------
           | Pseudopotential (local)    :    -5052.91835103419635 |
           | Hartree                    :    -1992.37084420384485 |
           --------------------------------------------------------
           Integrated density           :     7191.99999999898955
           Integrated density tr(KS)    :     7192.00000000000000
================================================================================


                        <<<<< CALCULATION SUMMARY >>>>>                         
|ITER|    RMS GRADIENT   |     TOTAL ENERGY    |   step   |     Epredicted              
   0     0.00003902301017 -11678.88746474101208   0.616865 -11678.93875815946558        
   1     0.00001037361558 -11678.94630164862610   0.097550 -11678.94687486109433        
   2     0.00000458296547 -11678.94696668977849   0.017806 -11678.94698711148521        
   3     0.00000205068865 -11678.94699004665017   0.003620 -11678.94699087789377        
   4     0.00000091212210 -11678.94699102884624  <-- CG                                 

=================== Finished the calculation in solvent ========================
= Adjusting the following parameters: 
= read_denskern: F
= read_tightbox_ngwfs: F
= maxit_pen: 0 (restored to user-specified value)
= restart read filename prefix: ""
= restart write filename prefix: ""
================================================================================

================================================================================
IS: Calculation in solvent completed (NGWFs converged).      

Individual components of total energy in solvent:     hartree           kcal/mol
- Usual non-electrostatic DFT terms:    -12887.49548882266208    -8087025.340733
- Electrostatic fixed charge energy:      1207.89918780140147      757968.167614
- Apolar cavitation energy:                  2.31009514334090        1449.606557
- Apolar dispersion-repulsion energy:       -1.66078515092636       -1042.158394
 -------------------------------------------------------------------------------
- Total energy in solvent:              -11678.94699102884624    -7328649.724956

Components of total energy in solvent:                hartree           kcal/mol
- Usual non-electrostatic DFT terms:    -12887.49548882266208    -8087025.340733
- Electrostatic energy:                   1207.89918780140147      757968.167614
- Apolar energy terms:                       0.64930999241454         407.448163
 -------------------------------------------------------------------------------
- Total energy in solvent:              -11678.94699102884624    -7328649.724956

Calculation of free energy of solvation:              hartree           kcal/mol
- Total energy in solvent:         (+)  -11678.94699102884624    -7328649.724956
- Total energy in vacuum:          (-)  -11675.16979885532055    -7326279.501133
 -------------------------------------------------------------------------------
- Total free energy of solvation:           -3.77719217352569       -2370.223823

Components of polar term in f.e. of solvation:        hartree           kcal/mol
- Electrostatic:                            -4.61513482248324       -2896.040762
- Change in nonelectrostatic DFT terms:      0.18863265654363         118.368777
 -------------------------------------------------------------------------------
- Polar term in f.e. of solvation:          -4.42650216593961       -2777.671986

Components of free energy of solvation:               hartree           kcal/mol
- Polar term in f.e. of solvation: (+)      -4.42650216593961       -2777.671986
- Apolar (cavitation, dis., rep.): (+)       0.64930999241454         407.448163
 -------------------------------------------------------------------------------
- Total free energy of solvation:           -3.77719217352507       -2370.223823
================================================================================


------------------------------ TIMING INFORMATION ------------------------------
AVERAGE TIME:   38376.300s on     60 node(s)                                    
TOTAL TIME:     38376.300s on     60 node(s)                                    
================= AVERAGE TIMINGS FROM ALL NODES (CUMULATIVE) ==================
|| TAG                                    #calls    cpu time   %total  Gflops ||
|| work_imbalance                       :     1        0.00s   0.000%  ------ ||
|| sparse_set_to_garbage                :   212        0.04s   0.000%  ------ ||
|| parallel_prepare_fd_halos_request    :  2307        0.04s   0.000%  ------ ||
|| ngwfs_initialise_from_radial         :     1        0.11s   0.000%  ------ ||
|| basis_extract_function_from_box      :  4228        0.19s   0.000%  ------ ||
|| parallel_prepare_fd_halos_satisfy    :  2307        0.82s   0.002%  ------ ||
|| parallel_prepare_fd_halos_alloc      :  2307        2.11s   0.005%  ------ ||
|| pseudopotentials_nonlocal_mat        :    36        3.00s   0.008%  ------ ||
|| openbc_locps_radial                  :     1        4.71s   0.012%  ------ ||
|| restart_kernel_read                  :     1        5.84s   0.015%  ------ ||
|| restart_ngwfs_tightbox_input         :     1        9.22s   0.024%  ------ ||
|| parallel_prepare_fd_halos_comms_imbal:  2307       12.15s   0.032%  ------ ||
|| density_init_guess_real              :     1       13.63s   0.036%  ------ ||
|| sparse_init                          :     2       22.58s   0.059%  ------ ||
|| parallel_prepare_fd_halos_clear      :  2307       24.02s   0.063%  ------ ||
|| palser_mano_kernel_optimise          :     1       29.22s   0.076%  ------ ||
|| projectors_func_ovlp_box             :    36       33.10s   0.086%  ------ ||
|| parallel_prepare_fd_halos_comms_wait :  2307       33.24s   0.087%  ------ ||
|| function_ops_brappd_ketppd           :    36       39.95s   0.104%  ------ ||
|| projectors_init_fftbox_recip         :   169       40.86s   0.106%  ------ ||
|| basis_copy_function_to_box           : 68844       52.51s   0.137%  ------ ||
|| pseudo_make_structure_factor         :     2       53.25s   0.139%  ------ ||
|| ngwf_gradient_coeffs                 :    19       57.42s   0.150%  ------ ||
|| fourier_apply_box_pair               :  6078       63.38s   0.165% 591.453 ||
|| parallel_prepare_fd_halos            :  2307       72.39s   0.189%  ------ ||
|| sparse_embed_hotelling_invert_embed  :    36       91.33s   0.238%  ------ ||
|| restart_kernel_write                 :    20      122.80s   0.320%  ------ ||
|| finite_difference_derivative         :  2307      177.22s   0.462%  ------ ||
|| integrals_kinetic                    :    36      187.12s   0.488%  ------ ||
|| projectors_gradient_batch            :   133      189.52s   0.494%  ------ ||
|| basis_dot_function_with_box          : 10.37M     209.46s   0.546%  ------ ||
|| fourier_apply_cell_backward          :  1539      215.14s   0.561%  96.065 ||
|| sparse_trace                         :  5962      221.44s   0.577%  ------ ||
|| openbc_locps_on_grid                 :     2      269.68s   0.703%  ------ ||
|| fourier_apply_cell_forward           :  1537      291.24s   0.759%  70.872 ||
|| kernel_purify                        :   588      354.17s   0.923%  ------ ||
|| basis_add_function_to_box            : 21.73M     509.87s   1.329%  ------ ||
|| hamiltonian_energy_components        :     4      516.19s   1.345%  ------ ||
|| lnv_gradient_norm                    :   190      516.92s   1.347%  ------ ||
|| kernel_fix                           :   190      564.28s   1.470%  ------ ||
|| xc_energy_potential                  :   384      582.91s   1.519%  ------ ||
|| ngwf_gradient_build_batch            :   133      967.71s   2.522%  ------ ||
|| integrals_locpot_mat_els_batch       :  1393      974.60s   2.540%  ------ ||
|| ngwf_gradient_batch                  :   133     1359.66s   3.543%  ------ ||
|| density_batch_row_sums               :  2681     1364.22s   3.555%  ------ ||
|| restart_ngwfs_tightbox_output        :    17     1419.62s   3.699%  ------ ||
|| ngwf_gradient_lnv                    :    19     1545.50s   4.027%  ------ ||
|| cell_grid_deposit_box_real           : 44097     1640.02s   4.274%  ------ ||
|| cell_grid_extract_box_real           : 48153     1846.87s   4.813%  ------ ||
|| sparse_product                       :  7673     2125.84s   5.539%  ------ ||
|| density_fftbox_deposit_to_cell       : 41747     2404.13s   6.265%  ------ ||
|| potential_apply_to_ngwf_batch        :  1393     4414.46s  11.503%  ------ ||
|| density_fftbox_interpolate_multiply  : 41747     4621.35s  12.042%  ------ ||
|| multigrid_prepare_bound_cond         :   384     5335.43s  13.903%  ------ ||
|| integrals_locpot_dbl_grid            :   199     5409.10s  14.095%  ------ ||
|| fourier_apply_box                    : 143.5k    5635.82s  14.686% 760.986 ||
|| density_batch_interp_deposit         :  2681     8154.95s  21.250%  ------ ||
|| dl_mg_solver_calls                   :   384     9635.89s  25.109%  ------ ||
|| density_on_dbl_grid                  :   383    10058.76s  26.211%  ------ ||
|| multigrid_calculate_hartree          :   384    15218.74s  39.657%  ------ ||
|| hamiltonian_lhxc_calculate           :   379    25854.43s  67.371%  ------ ||
|| lnv_denskernel_optimise_cg           :    19    32228.27s  83.980%  ------ ||
|| ngwf_cg_optimise                     :     2    37381.03s  97.407%  ------ ||
|| total_time                           :     1    38376.30s 100.000%  ------ ||
================================================================================
Overhead of generating timer report: 
- 0 ms averaging over threads,
- 15 ms ensuring consistency across MPI ranks,
- 0 ms printing in order.

Job completed: 23-04-2020 17:44 (+0100)

Application 40335930 resources: utime ~7998074s, stime ~272117s, Rss ~3836072, inblocks ~391189121, outblocks ~80670060
