 +---------------------------------------------------------------+
 |                                                               |
 |        ####### #     # ####### ####### ####### ######         |
 |        #     # ##    # #          #    #       #     #        |
 |        #     # # #   # #          #    #       #     #        |
 |        #     # #  #  # #####      #    #####   ######         |
 |        #     # #   # # #          #    #       #              |
 |        #     # #    ## #          #    #       #              |
 |        ####### #     # #######    #    ####### #              |
 |                                                               |
 |        Linear-Scaling Ab Initio Total Energy Program          |
 |                                                               |
 |          Release for academic collaborators of ODG            |
 |                                             Version 5.3.2.6.  |
 |                                                               |
 +---------------------------------------------------------------+
 |                                                               |
 |  Authors:                                                     |
 |  Jacek Dziedzic, Peter D. Haynes, Nicholas D. M. Hine,        |
 |  Arash. A. Mostofi, Mike C. Payne and Chris-Kriton Skylaris   |
 |                                                               |
 |  Contributors:                                                |
 |  J. Aarons, L. Andrinopoulos, P. W. Avraam, R. A. Bell,       |
 |  A. Bhandari, G. A. Bramley, R. J. Charlton, S. J. Clark,     |
 |  R. J. Clements, G. C. Constantinescu, F. Corsetti,           |
 |  N. Corsini, O. Dieguez, S. M. M. Dubois, K. K. B. Duff,      |
 |  J. M. Escartin, A. Greco, H. Helal, Q. O. Hill, L. P. Lee,   |
 |  J.-H. Li, E. B. Linscott, G. Moynihan, D. D. O`Regan,        |
 |  O. K. Okan, M. J. S. Phipps, C. J. Pickard,                  |
 |  J. C. A. Prentice, M. I. J. Probert, L. E. Ratcliff,         |
 |  M. Robinson, A. Ruiz Serrano, J. S. Spencer, E. W. Tait,     |
 |  G. Teobaldi, D. Turban, V. Vitale, K. A. Wilkinson,          |
 |  C. Weber, J. C. Womack, N. Yeung and T. J. Zuehlsdorff       |
 |                                                               |
 |                                   Copyright (c) 2004-2019     |
 |                                                               |
 |  Please cite:                                                 |
 |  "Introducing ONETEP: Linear-scaling density functional       |
 |   simulations on parallel computers".                         |
 |   C.-K. Skylaris, P. D. Haynes, A. A. Mostofi, M. C. Payne.   |
 |   J. Chem. Phys. 122 084119 (2005).                           |
 |                                                               |
 |          in all publications arising from your use of ONETEP. |
 |                                                               |
 +---------------------------------------------------------------+
 |                                                               |
 |   ONETEP is based on developments described in the following  |
 |   publications:                                               |
 |                                                               |
 |  "Nonorthogonal generalized Wannier function pseudopotential  |
 |   plane-wave method".                                         |
 |   C.-K. Skylaris, A. A. Mostofi, P. D. Haynes, O. Dieguez,    |
 |   M. C. Payne.                                                |
 |   Phys. Rev. B 66 035119 (2002).                              |
 |                                                               |
 |  "Preconditioned iterative minimization for linear-scaling    |
 |   electronic structure calculations".                         |
 |   A. A. Mostofi, P. D. Haynes, C.-K. Skylaris, M. C. Payne.   |
 |   J. Chem. Phys. 119(17), pp.8842-8848 (2003).                |
 |                                                               |
 |  "Total-energy calculations on a real space grid with         |
 |   localized functions and a plane-wave basis".                |
 |   A. A. Mostofi, C.-K. Skylaris, P. D. Haynes, M. C. Payne.   |
 |   Comput. Phys. Commun. 147, pp.788-802 (2002).               |
 |                                                               |
 |  "Accurate kinetic energy evaluation in electronic structure  |
 |   calculations with localized functions on real space grids"  |
 |   C.-K. Skylaris, A. A. Mostofi, P. D. Haynes, C. J. Pickard, |
 |   M. C. Payne.                                                |
 |   Comput. Phys. Commun. 140, pp.315-322 (2001).               |
 |                                                               |
 |  "Accurate ionic forces and geometry optimization in linear-  |
 |   scaling density-functional theory with local orbitals"      |
 |   N. D. M. Hine, M. Robinson, P. D. Haynes, C.-K. Skylaris,   |
 |   M. C. Payne, and A. A. Mostofi.                             |
 |   Phys. Rev. B 83 195102 (2011).                              |
 |                                                               |
 +---------------------------------------------------------------+

Job started: 12-06-2020 02:21 (+0100)
 
Reading parameters from file "host_38861.dat" ...... done

If your calculation crashes here, before "Checking processes and threads..."
is displayed, then your stack size is insufficient.
If so, use "ulimit -s unlimited" at runtime.
You can disable this check with "check_stack_size F".

Checking processes and threads...
   Determining the default number of threads...
      No default threads set at compilation time: defaulting to 1.
      OpenMP library call suggests 4 threads.
      Hybrid MPI-OpenMP compilation detected.
      Number of MPI processes > 1.
      OMP_NUM_THREADS environment variable present and
      its value matches the one obtained from the OpenMP library call.
      Using this value as default.
      Default threads: 4
      Default applies to threads_max and threads_num_fftboxes.
      Settings in the input file override this default.
   ... done

   Running with 40 MPI processes.
   There are 10 MPI processes running on the same node as the root process.
   Each MPI process is using: 
               1 threads for simulation cell FFTs.
               1 threads for parallel FFT box operations.
               4 threads for loops over batched FFT box operations.
               4 threads in other parallel regions.
... done

Basic input checks...... done

Reading geometry and species blocks from file "host_38861.dat" ...
  <species_atomic_set> block not found: NGWF initialisation set to SOLVE
IS: Dielectric excluded regions:
    - NONE.
    
  Number of PPD points along a3 set to 1.  This is 
  the default value, it may have been provided also in the input file.
... done
 Writing xyz coordinates to file "host_38861.xyz" ... done


--------------------------------------------------------------------------------
---------------------------------- INPUT FILE ----------------------------------
--------------------------------------------------------------------------------

cutoff_energy       : 800 eV                                                    
xc_functional PBE                                                               
task SINGLEPOINT                                                                
write_xyz true                                                                  
output_detail VERBOSE                                                           
ngwf_threshold_orig : 0.000002                                                  
kernel_cutoff       : 1000                                                      
k_zero              : 3.5                                                       
elec_cg_max 0                                                                   
occ_mix 1.0                                                                     
dispersion 1                                                                    
maxit_ngwf_cg 40                                                                
minit_lnv 10                                                                    
maxit_lnv 10                                                                    
write_denskern T                                                                
write_tightbox_ngwfs T                                                          
charge 9                                                                        
is_implicit_solvent T                                                           
is_auto_solvation T                                                             
is_include_apolar T                                                             
is_smeared_ion_rep T                                                            
is_solvent_surf_tension 4.7624E-5 Ha/bohr**2                                    
is_apolar_scaling_factor 0.281075                                               
is_solvation_beta 1.3                                                           
is_density_threshold 0.00035                                                    
is_bulk_permittivity 78.54                                                      
is_dielectric_model fix_initial                                                 
is_smeared_ion_width 0.8                                                        
mg_defco_fd_order 8                                                             
is_bc_coarseness 10                                                             
is_bc_surface_coarseness 1                                                      
fine_grid_scale 2.0                                                             
%block species                                                                  
N   N   7 4 8.0                                                                 
H   H   1 1 8.0                                                                 
C   C   6 4 8.0                                                                 
S   S  16 9 8.0                                                                 
O   O   8 4 8.0                                                                 
%endblock species                                                               
%block species_pot                                                              
N   N_00.recpot                                                                 
H   H_04.recpot                                                                 
C   C_01.recpot                                                                 
S   S_00.recpot                                                                 
O   O_02.recpot                                                                 
%endblock species_pot                                                           
%block lattice_cart                                                             
135.996   0.000   0.000                                                         
0.000 142.663   0.000                                                           
0.000   0.000   160.158                                                         
%endblock lattice_cart                                                          
%block positions_abs                                                            
     Hash =   000002666920610268062932
%endblock positions_abs                                                         

--------------------------------------------------------------------------------
-------------------------------- END INPUT FILE --------------------------------
--------------------------------------------------------------------------------


 
 ESDF WARNING(1): "kernelcutoff" (esdf_physical) has no units. Assume "bohr".
 ESDF WARNING(2): "kzero" (esdf_physical) has no units. Assume "1/bohr".
 ESDF WARNING(3
 ): "issmearedionwidth" (esdf_physical) has no units. Assume "bohr".
<<<<<<<<<<<<<<<<<<<<<<<<<<<<<<<<< Full system >>>>>>>>>>>>>>>>>>>>>>>>>>>>>>>>>>
<<<<<<<<<<<<<<<<<<<<<<<<< Pseudopotential information >>>>>>>>>>>>>>>>>>>>>>>>>>
File: N_00.recpot [ 2001 points up to Gmax=  52.9 (1/bohr)]
  Atomic number:  7;  ionic charge:  5.000000
    Shell 1: l = 0; rc = 1.48 bohr
File: H_04.recpot [ 2001 points up to Gmax=  52.9 (1/bohr)]
  Atomic number:  1;  ionic charge:  1.000000
    Local potential
File: C_01.recpot [ 2001 points up to Gmax=  52.9 (1/bohr)]
  Atomic number:  6;  ionic charge:  4.000000
    Shell 1: l = 0; rc = 1.48 bohr
File: S_00.recpot [ 2001 points up to Gmax=  52.9 (1/bohr)]
  Atomic number: 16;  ionic charge:  6.000000
    Shell 1: l = 0; rc = 1.90 bohr
    Shell 2: l = 2; rc = 1.84 bohr
File: O_02.recpot [ 2001 points up to Gmax=  52.9 (1/bohr)]
  Atomic number:  8;  ionic charge:  6.000000
    Shell 1: l = 0; rc = 1.31 bohr
<<<<<<<<<<<<<<<<<<<<<<<<<<<<<<<<<<<<<<<<>>>>>>>>>>>>>>>>>>>>>>>>>>>>>>>>>>>>>>>>

-------------------------- Atom counting information ---------------------------
Symbol    Natoms    Nngwfs    Nprojs
  N        236       944       236
  H       1311      1311         0
  C        810      3240       810
  S          6        54        36
  O        239       956       239
.......   ......    ......    ......
Totals:   2602      6505      1321
--------------------------------------------------------------------------------

=============================== PSINC grid sizes ===============================
                      Simulation cell:  270 x 286 x 315
                              FFT-box:   99 x 105 x  99
                                  PPD:    5 x  11 x   1
Grid space d1=  0.503688888889a0 (KE cutoff=  29.94189Eh = 814.76038eV)
Grid space d2=  0.498821678322a0 (KE cutoff=  30.52906Eh = 830.73786eV)
Grid space d3=  0.508438095238a0 (KE cutoff=  29.38514Eh = 799.61048eV)
================================================================================

********************* Fourier parallelisation information **********************
       Coarse grid (whole simulation cell) dimensions:    270   286   315
          Real-space ('12') slabs/node (min max mean):      7     8     7
         Recip-space ('23') slabs/node (min max mean):      3     4     3
********************************************************************************

********************* Fourier parallelisation information **********************
       Double grid (whole simulation cell) dimensions:    540   572   630
          Real-space ('12') slabs/node (min max mean):     15    16    15
         Recip-space ('23') slabs/node (min max mean):      6     7     6
********************************************************************************
ONETEP fine grid is 540 x 572 x 630 gridpoints, 135.9960 x 142.6630 x 160.1580 bohr.
FD multigrid is     537 x 569 x 625 gridpoints, 135.2405 x 141.9148 x 158.8869 bohr.


Calculating local pseudopotential in open BC on a radial grid ...
Discrepancy between calculated realspace psloc and -Z/x on [5a0,253.965a0]:
max |rel. diff| # avg |rel. diff| #  avg rel. diff #  f # pseudopotential file
 0.000259282084    0.000004141996   0.000000074978   54  'N_00.recpot'
 0.000405386992    0.000016970607  -0.000000075982   54  'H_04.recpot'
 0.000371694516    0.000017434762   0.000000149329   54  'C_01.recpot'
 0.000461642895    0.000020341726   0.000000491514   54  'S_00.recpot'
 0.000682525123    0.000027368244   0.000000159803   54  'O_02.recpot'
... done

Atom SCF Calculation for N  : Z (AE atom) =   7 : Z (PS atom) =   5
Config String:
Orbitals (num,occ):  2     2.00 3.00
Orbitals   (num,l):  2        0    1
Real-space Grid (nr,dr,rmax): 1203    0.0066555740    8.0000000000
Spherical Bessel Basis (nsws,lmax,cutoff):   47    1  176.3951722778
Confining potential (l,width,scale):  0    3.0000000000  100.0000000000
Confining potential (l,width,scale):  1    3.0000000000  100.0000000000
  1         -4.7312375307   -3.4155304497    7.0523828109   -1.9351020946
  2         -9.7309464766   -2.0532547791    8.2966052865   -2.2494486027
  3         -9.6627394379   -2.1124926340    8.2327997121   -2.2369778124
  4         -9.6814993499   -2.1215521045    8.2229805960   -2.2365178421
  5         -9.6843326483   -2.1250939529    8.2191374534   -2.2362718126
  6         -9.6859628709   -2.1267894855    8.2172963573   -2.2362066344
  7         -9.6867347035   -2.1276425665    8.2163697352   -2.2361903369
  8         -9.6870802100   -2.1280764625    8.2158983890   -2.2361891460
  9         -9.6872290423   -2.1282977424    8.2156580222   -2.2361920435
 10         -9.6872901988   -2.1284107021    8.2155353368   -2.2361953393
 11         -9.6873135296   -2.1284684031    8.2154726809   -2.2361979819
 12         -9.6873212476   -2.1284978948    8.2154406648   -2.2361998431
 13         -9.6873229586   -2.1285129774    8.2154242957   -2.2362010676
 14         -9.6873226456   -2.1285206957    8.2154159216   -2.2362018403
 15         -9.6873218534   -2.1285246479    8.2154116349   -2.2362023142
 16         -9.6873212599   -2.1285262679    8.2154098784   -2.2362025420
 17         -9.6873207834   -2.1285272564    8.2154088068   -2.2362026955
 18         -9.6873204210   -2.1285278597    8.2154081529   -2.2362027982
 19         -9.6873201550   -2.1285282280    8.2154077538   -2.2362028667
 20         -9.6873199645   -2.1285284529    8.2154075102   -2.2362029121
 21         -9.6873198305   -2.1285285903    8.2154073614   -2.2362029421
 22         -9.6873197377   -2.1285286742    8.2154072705   -2.2362029618
Atom SCF converged after  22 iterations to a total energy of     -9.68731974

Atom SCF Calculation for H  : Z (AE atom) =   1 : Z (PS atom) =   1
Config String:
Orbitals (num,occ):  1     1.00
Orbitals   (num,l):  1        0
Real-space Grid (nr,dr,rmax): 1203    0.0066555740    8.0000000000
Spherical Bessel Basis (nsws,lmax,cutoff):   47    0  176.3951722778
Confining potential (l,width,scale):  0    3.0000000000  100.0000000000
  1         -0.3194257691   -0.2393854593    0.2820953124   -0.2424203209
  2         -0.3951823392   -0.2377116493    0.2886404059   -0.2475147891
  3         -0.4317044583   -0.2352244387    0.2921333887   -0.2514046172
  4         -0.4470703708   -0.2341892222    0.2934391879   -0.2531009782
  5         -0.4532132900   -0.2338556667    0.2938388426   -0.2537313520
  6         -0.4556579251   -0.2337612552    0.2939448584   -0.2539550462
  7         -0.4566418315   -0.2337377355    0.2939680120   -0.2540342273
  8         -0.4570437922   -0.2337331116    0.2939708287   -0.2540627372
  9         -0.4572102946   -0.2337328328    0.2939698291   -0.2540732650
 10         -0.4572800424   -0.2337332404    0.2939687193   -0.2540772588
 11         -0.4573095100   -0.2337335791    0.2939680317   -0.2540788122
 12         -0.4573220379   -0.2337337762    0.2939676699   -0.2540794294
 13         -0.4573273880   -0.2337338775    0.2939674931   -0.2540796787
 14         -0.4573296803   -0.2337339266    0.2939674099   -0.2540797808
 15         -0.4573306647   -0.2337339495    0.2939673718   -0.2540798230
 16         -0.4573310882   -0.2337339601    0.2939673545   -0.2540798406
 17         -0.4573312706   -0.2337339649    0.2939673467   -0.2540798479
 18         -0.4573313493   -0.2337339670    0.2939673433   -0.2540798510
Atom SCF converged after  18 iterations to a total energy of     -0.45733135

Atom SCF Calculation for C  : Z (AE atom) =   6 : Z (PS atom) =   4
Config String:
Orbitals (num,occ):  2     2.00 2.00
Orbitals   (num,l):  2        0    1
Real-space Grid (nr,dr,rmax): 1203    0.0066555740    8.0000000000
Spherical Bessel Basis (nsws,lmax,cutoff):   47    1  176.3951722778
Confining potential (l,width,scale):  0    3.0000000000  100.0000000000
Confining potential (l,width,scale):  1    3.0000000000  100.0000000000
  1         -5.2976922011   -1.3069684169    4.5135249990   -1.4493313817
  2         -5.3721716256   -1.3429755895    4.4750154450   -1.4361613026
  3         -5.3809959565   -1.3617365618    4.4541655428   -1.4305930207
  4         -5.3918938866   -1.3667928461    4.4484735100   -1.4294652294
  5         -5.3956096428   -1.3688539142    4.4461376126   -1.4290734646
  6         -5.3968271862   -1.3696852393    4.4451910874   -1.4289366866
  7         -5.3972028401   -1.3700178062    4.4448112275   -1.4288900460
  8         -5.3973067903   -1.3701500158    4.4446598370   -1.4288749220
  9         -5.3973286940   -1.3702023868    4.4445997329   -1.4288704293
 10         -5.3973289850   -1.3702230869    4.4445759233   -1.4288693188
 11         -5.3973254264   -1.3702312560    4.4445665049   -1.4288691775
 12         -5.3973224003   -1.3702344755    4.4445627836   -1.4288692549
 13         -5.3973208708   -1.3702354890    4.4445616088   -1.4288693270
 14         -5.3973198783   -1.3702360102    4.4445610034   -1.4288693814
 15         -5.3973192535   -1.3702362780    4.4445606917   -1.4288694190
 16         -5.3973188684   -1.3702364155    4.4445605313   -1.4288694437
 17         -5.3973186349   -1.3702364860    4.4445604489   -1.4288694595
 18         -5.3973184951   -1.3702365221    4.4445604065   -1.4288694693
 19         -5.3973184122   -1.3702365405    4.4445603848   -1.4288694753
Atom SCF converged after  19 iterations to a total energy of     -5.39731841

Atom SCF Calculation for S  : Z (AE atom) =  16 : Z (PS atom) =   6
Config String:
Orbitals (num,occ):  3     2.00 4.00 0.00
Orbitals   (num,l):  3        0    1    2
Real-space Grid (nr,dr,rmax): 1203    0.0066555740    8.0000000000
Spherical Bessel Basis (nsws,lmax,cutoff):   47    2  176.3951722778
Confining potential (l,width,scale):  0    3.0000000000  100.0000000000
Confining potential (l,width,scale):  1    3.0000000000  100.0000000000
Confining potential (l,width,scale):  2    3.0000000000  100.0000000000
  1        -12.4735062396   -1.0328741412   10.1554312477   -2.4512393157
  2         -9.9458301913   -2.4607392455    8.3041325857   -2.0306994528
  3        -10.1450417646   -2.2931184565    8.4831893826   -2.0812538287
  4        -10.1528335592   -2.2733105793    8.5050388867   -2.0896035179
  5        -10.1571940363   -2.2633716629    8.5160794258   -2.0939370707
  6        -10.1594380571   -2.2584938667    8.5215163935   -2.0961289008
  7        -10.1605856507   -2.2561081821    8.5241804044   -2.0972291378
  8        -10.1611799191   -2.2549395235    8.5254868240   -2.0977806248
  9        -10.1614918752   -2.2543658586    8.5261285885   -2.0980571586
 10        -10.1616572884   -2.2540839121    8.5264441898   -2.0981959233
 11        -10.1617455602   -2.2539453058    8.5265994231   -2.0982656006
 12        -10.1617928447   -2.2538772062    8.5266757320   -2.0983006047
 13        -10.1618182292   -2.2538437891    8.5267131983   -2.0983181961
 14        -10.1618318741   -2.2538274201    8.5267315620   -2.0983270391
 15        -10.1618392144   -2.2538194197    8.5267405433   -2.0983314852
 16        -10.1618431651   -2.2538155200    8.5267449245   -2.0983337210
 17        -10.1618452923   -2.2538136252    8.5267470551   -2.0983348455
 18        -10.1618464380   -2.2538127080    8.5267480875   -2.0983354110
 19        -10.1618470552   -2.2538122659    8.5267485856   -2.0983356955
 20        -10.1618473878   -2.2538120540    8.5267488248   -2.0983358386
 21        -10.1618475670   -2.2538119530    8.5267489389   -2.0983359106
 22        -10.1618476637   -2.2538119053    8.5267489929   -2.0983359468
Atom SCF converged after  22 iterations to a total energy of    -10.16184766

Atom SCF Calculation for O  : Z (AE atom) =   8 : Z (PS atom) =   6
Config String:
Orbitals (num,occ):  2     2.00 4.00
Orbitals   (num,l):  2        0    1
Real-space Grid (nr,dr,rmax): 1203    0.0066555740    8.0000000000
Spherical Bessel Basis (nsws,lmax,cutoff):   47    1  176.3951722778
Confining potential (l,width,scale):  0    3.0000000000  100.0000000000
Confining potential (l,width,scale):  1    3.0000000000  100.0000000000
  1         -1.8735052164   -7.5539365035   10.1554312477   -2.4512393157
  2        -16.0318313751   -3.1285771268   13.6395848164   -3.2358799643
  3        -15.9524020423   -3.0762819706   13.6967272503   -3.2536856837
  4        -15.8521515939   -3.0781493909   13.6951909330   -3.2561700440
  5        -15.8357139793   -3.0748501933   13.6988803334   -3.2580493133
  6        -15.8246052853   -3.0740779781   13.6997881576   -3.2588327446
  7        -15.8189019501   -3.0737449687   13.7001869911   -3.2592378801
  8        -15.8159785510   -3.0736026016   13.7003615168   -3.2594475790
  9        -15.8144776168   -3.0735437994   13.7004360379   -3.2595560735
 10        -15.8137058024   -3.0735207882   13.7004667348   -3.2596122456
 11        -15.8133083127   -3.0735125946   13.7004786868   -3.2596413656
 12        -15.8131032938   -3.0735102195   13.7004828997   -3.2596564858
 13        -15.8129973902   -3.0735099286   13.7004840891   -3.2596643505
 14        -15.8129426040   -3.0735102506   13.7004842061   -3.2596684489
 15        -15.8129142203   -3.0735106556   13.7004840157   -3.2596705887
 16        -15.8128994940   -3.0735109855   13.7004837906   -3.2596717080
 17        -15.8128918425   -3.0735112169   13.7004836103   -3.2596722946
 18        -15.8128878614   -3.0735113674   13.7004834848   -3.2596726026
 19        -15.8128857871   -3.0735114608   13.7004834035   -3.2596727646
 20        -15.8128847048   -3.0735115170   13.7004833533   -3.2596728500
 21        -15.8128841394   -3.0735115501   13.7004833231   -3.2596728951
 22        -15.8128838436   -3.0735115693   13.7004833054   -3.2596729190
 23        -15.8128836887   -3.0735115802   13.7004832951   -3.2596729316
 24        -15.8128836074   -3.0735115864   13.7004832893   -3.2596729383
Atom SCF converged after  24 iterations to a total energy of    -15.81288361

========================== Calculation in vacuum ==============================
= Adjusting the following parameters: 
= is_implicit_solvent: F
= is_include_apolar: F
= write_denskern: T
= write_tightbox_ngwfs: T
= restart read filename prefix: ""
= restart write filename prefix: "vacuum_"
===============================================================================

Determining parallel strategy ...
... using space-filling curve
... NGWF load balancing: max    163;  min    162;  average    163
... Projector load balancing: max     36;  min     32;  average     33
... done
Calculating direct Ion-Ion energy ...
Ion-Ion Energy        :    828822.08332912530750
======================= Empirical dispersion information =======================
Model : Elstner
Dispersion Correction Energy: -0.32495460E+01 Hartree
================================================================================
Basis initialisation ...... NGWF spheres initialised
... Projector spheres initialised
... NGWF tight boxes initialised
... Tight-boxes gathered
... NGWF basis size (local,global):    1267225  50815555
... Nonlocal pseudopotential projector initialisation
... done

========================== Sparse matrix information ===========================
                        Overlap matrix filling:   6.76%
                        Density kernel filling: 100.00%
              NGWF-Proj overlap matrix filling:   1.78%
                    Hamiltonian matrix filling:   7.63%
                  NGWF diagonal matrix filling:   0.05%
                             KS matrix filling: 100.00% 
                           KSKS matrix filling: 100.00% 
================================================================================

Sparse matrix initialisation ... done

Generating smeared ion density ... done
Smeared ion self correction:     -14457.169564
Smeared ion non-self correction: -828774.085318
NGWF initialisation ...... done
============ Calculation of NGWF S^-1 using Hotelling algorithm ================ 
         Iteration  |  Frobenius norm and Maximum abs value    (of I-S*S_n^-1)   
               1       0.78508187E+02     0.98285823E+00
               2       0.76677011E+02     0.96613988E+00
               3       0.73704390E+02     0.93390104E+00
               4       0.69466410E+02     0.87410394E+00
               5       0.64175481E+02     0.77144950E+00
               6       0.58219083E+02     0.70402394E+00
               7       0.52214911E+02     0.67118509E+00
               8       0.46663391E+02     0.64442054E+00
               9       0.40629004E+02     0.60438953E+00
              10       0.32420031E+02     0.53832969E+00
              11       0.21881718E+02     0.44066995E+00
              12       0.11254316E+02     0.30479657E+00
              13       0.37547824E+01     0.14861201E+00
              14       0.61000364E+00     0.36157810E-01
              15       0.30797283E-01     0.24371776E-02
              16       0.18014770E-03     0.19776006E-04
              17       0.99232637E-08     0.13367902E-08
              18       0.96474781E-13     0.57731597E-14
================================================================================
Calculating local pseudopotential in open BC on the fine real space grid ...
... done

MG BCs: +ve charge blocks (gridpoints):     20258 (   15997940).
MG BCs: -ve charge blocks (gridpoints):      8067 (    1083592).
MG BCs:     Elided blocks (gridpoints):    173656 (  173889093).
MG BCs: Computational effort saved:  99.9852%.
MG BCs: Charge after coarse-graining:           -9.0002199.
MG DL_MG: Calling solver with defect correction order = 8
MG DL_MG: Solver finished
MG Hartree energy from (\int phi*rho dr):              1462.449343
MG Hartree energy from (\int eps (grad phi)^2 dr):     1461.831976
MG Discrepancy due to finite box and discretization:     -0.617367 (  -0.04221%)
MG Correction to account for finite box:                  0.466787
MG Remaining discrepancy, due to discretization:         -0.150579 (  -0.01030%)
Up spin density kernel initialisation ... 
======= Optimisation of K by Palser-Manolopoulos canonical purification ======== 
         Iteration  |  Band structure energy |    c_n   
               1       -2569.56695355791680    0.5284876
               2       -2744.82515139549560    0.5181013
               3       -2926.53442990788244    0.5152452
               4       -3080.88441262087463    0.5273189
               5       -3178.10353753888057    0.5617168
               6       -3219.75507741351976    0.6076350
               7       -3233.85147493651129    0.6201705
               8       -3239.88008917284651    0.6152632
               9       -3242.84556972029986    0.6257210
              10       -3244.07479425544989    0.6492487
              11       -3244.53569853628869    0.6592709
              12       -3244.73339261543333    0.6542591
              13       -3244.82888925446741    0.6325248
              14       -3244.87704286629969    0.5724507
              15       -3244.90325564341219    0.4967799
              16       -3244.91354240393593    0.4712242
              17       -3244.91516170963951    0.5007468
              18       -3244.91634634769389    0.5146238
              19       -3244.91681561662608    0.5047331
              20       -3244.91690968703278    0.5002030
              21       -3244.91691386340426    0.5000008
              22       -3244.91691387158789    0.5000008
Termination criterion satisfied: band energy change below threshold.
Final occupancy bounds: [    0.00000000000000:    1.00000000000000]
Closest occupancy to 0.5:     1.00000000000000
================================================================================
... done

Writing density kernel to file "host_38861.vacuum_dkn" ... done

>>> Optimising kernel for current NGWFs:
   Initial electron number for spin 1:    7192.00000000
     Final electron number for spin 1:    7192.00000000

=================== Penalty functional idempotency correction ==================
 RMS occupancy error at iteration   1:  0.000000 (step -0.5000 Ne1=   7192.0000)
            Final RMS occupancy error   :  0.000000 (Ne1=   7192.0000)
               Final occupancy bounds   : [  0.0000,  1.0000]
================================================================================

................................................................................
<<<<<<<<<<<<<< LNV (Original version) density kernel optimisation >>>>>>>>>>>>>>
~~~~~~~~~~~~~~~~~~~~~~~~~~~~~~~~~~~~~~~~~~~~~~~~~~~~~~~~~~~~~~~~~~~~~~~~~~~~~~~~
   iter  |      energy (Eh)       | rms gradient |  commutator  |   dE (Eh)
MG BCs: +ve charge blocks (gridpoints):     31352 (   17168924).
MG BCs: -ve charge blocks (gridpoints):      8387 (    1116586).
MG BCs:     Elided blocks (gridpoints):    162555 (  172685115).
MG BCs: Computational effort saved:  99.9792%.
MG BCs: Charge after coarse-graining:           -9.0009594.
MG DL_MG: Calling solver with defect correction order = 8
MG DL_MG: Solver finished
MG Hartree energy from (\int phi*rho dr):              1417.550025
MG Hartree energy from (\int eps (grad phi)^2 dr):     1416.877220
MG Discrepancy due to finite box and discretization:     -0.672805 (  -0.04746%)
MG Correction to account for finite box:                  0.479921
MG Remaining discrepancy, due to discretization:         -0.192884 (  -0.01361%)
      ideal mu1:      -0.703657378217
             Q0:  -11507.246636358439
             G0:    -144.757927654419
   RMS gradient:       0.001849583224
MG BCs: +ve charge blocks (gridpoints):     31301 (   17247023).
MG BCs: -ve charge blocks (gridpoints):      8293 (    1096598).
MG BCs:     Elided blocks (gridpoints):    162604 (  172627004).
MG BCs: Computational effort saved:  99.9793%.
MG BCs: Charge after coarse-graining:           -9.0009803.
MG DL_MG: Calling solver with defect correction order = 8
MG DL_MG: Solver finished
MG Hartree energy from (\int phi*rho dr):              1442.916020
MG Hartree energy from (\int eps (grad phi)^2 dr):     1442.260066
MG Discrepancy due to finite box and discretization:     -0.655954 (  -0.04546%)
MG Correction to account for finite box:                  0.478854
MG Remaining discrepancy, due to discretization:         -0.177099 (  -0.01227%)
     Trial step:       0.500000000000
             Q1:  -11518.731292260694
 Quadratic coef:      60.894307924955
 Linear coef   :     -72.378963827209
           Qmin:  -11528.754042318109
Quadratic minimum step length (  0.297149956595) accepted
    Initial Ne1:    7192.00000000
      Final Ne1:    7192.00000000

=================== Penalty functional idempotency correction ==================
 RMS occupancy error at iteration   1:  0.003396 (step -0.4886 Ne1=   7192.0000)
 RMS occupancy error at iteration   2:  0.000027 (step -0.5001 Ne1=   7192.0000)
            Final RMS occupancy error   :  0.000000 (Ne1=   7192.0000)
               Final occupancy bounds   : [  0.0000,  1.0000]
================================================================================

    1        -1.150724663636E+04     1.8496E-03     1.6729E-03
MG BCs: +ve charge blocks (gridpoints):     31330 (   17216975).
MG BCs: -ve charge blocks (gridpoints):      8338 (    1105189).
MG BCs:     Elided blocks (gridpoints):    162576 (  172648461).
MG BCs: Computational effort saved:  99.9792%.
MG BCs: Charge after coarse-graining:           -9.0009714.
MG DL_MG: Calling solver with defect correction order = 8
MG DL_MG: Solver finished
MG Hartree energy from (\int phi*rho dr):              1424.699731
MG Hartree energy from (\int eps (grad phi)^2 dr):     1424.037864
MG Discrepancy due to finite box and discretization:     -0.661866 (  -0.04646%)
MG Correction to account for finite box:                  0.479191
MG Remaining discrepancy, due to discretization:         -0.182676 (  -0.01282%)
      ideal mu1:      -0.746396233911
             Q0:  -11529.150250319159
             G0:     -12.062315198797
   RMS gradient:       0.000530351398
MG BCs: +ve charge blocks (gridpoints):     31328 (   17233008).
MG BCs: -ve charge blocks (gridpoints):      8310 (    1100125).
MG BCs:     Elided blocks (gridpoints):    162577 (  172637492).
MG BCs: Computational effort saved:  99.9792%.
MG BCs: Charge after coarse-graining:           -9.0009753.
MG DL_MG: Calling solver with defect correction order = 8
MG DL_MG: Solver finished
MG Hartree energy from (\int phi*rho dr):              1429.859901
MG Hartree energy from (\int eps (grad phi)^2 dr):     1429.202224
MG Discrepancy due to finite box and discretization:     -0.657677 (  -0.04600%)
MG Correction to account for finite box:                  0.478147
MG Remaining discrepancy, due to discretization:         -0.179530 (  -0.01256%)
     Trial step:       0.385454249293
             Q1:  -11531.978088788455
 Quadratic coef:       1.821632180385
 Linear coef   :      -4.649470649682
           Qmin:  -11532.117037131973
Quadratic minimum step length (  0.491910012948) accepted
    Initial Ne1:    7191.99987999
      Final Ne1:    7192.00000000

=================== Penalty functional idempotency correction ==================
 RMS occupancy error at iteration   1:  0.001801 (step -0.4930 Ne1=   7192.0000)
 RMS occupancy error at iteration   2:  0.000013 (step -0.5003 Ne1=   7192.0000)
            Final RMS occupancy error   :  0.000000 (Ne1=   7192.0000)
               Final occupancy bounds   : [  0.0000,  1.0000]
================================================================================

    2        -1.152915025032E+04     5.3035E-04     4.7969E-04    -2.1904E+01
MG BCs: +ve charge blocks (gridpoints):     31328 (   17237449).
MG BCs: -ve charge blocks (gridpoints):      8307 (    1098666).
MG BCs:     Elided blocks (gridpoints):    162577 (  172634510).
MG BCs: Computational effort saved:  99.9792%.
MG BCs: Charge after coarse-graining:           -9.0009765.
MG DL_MG: Calling solver with defect correction order = 8
MG DL_MG: Solver finished
MG Hartree energy from (\int phi*rho dr):              1431.334091
MG Hartree energy from (\int eps (grad phi)^2 dr):     1430.677495
MG Discrepancy due to finite box and discretization:     -0.656596 (  -0.04587%)
MG Correction to account for finite box:                  0.477873
MG Remaining discrepancy, due to discretization:         -0.178723 (  -0.01249%)
      ideal mu1:      -0.770248793824
             Q0:  -11532.153340611025
             G0:      -1.947669463713
   RMS gradient:       0.000213199071
MG BCs: +ve charge blocks (gridpoints):     31330 (   17237069).
MG BCs: -ve charge blocks (gridpoints):      8307 (    1099710).
MG BCs:     Elided blocks (gridpoints):    162575 (  172633846).
MG BCs: Computational effort saved:  99.9792%.
MG BCs: Charge after coarse-graining:           -9.0009762.
MG DL_MG: Calling solver with defect correction order = 8
MG DL_MG: Solver finished
MG Hartree energy from (\int phi*rho dr):              1429.132185
MG Hartree energy from (\int eps (grad phi)^2 dr):     1428.476274
MG Discrepancy due to finite box and discretization:     -0.655912 (  -0.04590%)
MG Correction to account for finite box:                  0.477402
MG Remaining discrepancy, due to discretization:         -0.178510 (  -0.01249%)
     Trial step:       0.435440931425
             Q1:  -11532.652230449603
 Quadratic coef:       0.349205166809
 Linear coef   :      -0.848095005388
           Qmin:  -11532.668270805741
Quadratic minimum step length (  0.528765485427) accepted
    Initial Ne1:    7191.99988633
      Final Ne1:    7192.00000000

=================== Penalty functional idempotency correction ==================
 RMS occupancy error at iteration   1:  0.000653 (step -0.4967 Ne1=   7192.0000)
 RMS occupancy error at iteration   2:  0.000004 (step -0.5000 Ne1=   7192.0000)
            Final RMS occupancy error   :  0.000000 (Ne1=   7192.0000)
               Final occupancy bounds   : [  0.0000,  1.0000]
================================================================================

    3        -1.153215334061E+04     2.1320E-04     1.9283E-04    -3.0031E+00
MG BCs: +ve charge blocks (gridpoints):     31328 (   17237021).
MG BCs: -ve charge blocks (gridpoints):      8309 (    1099924).
MG BCs:     Elided blocks (gridpoints):    162577 (  172633680).
MG BCs: Computational effort saved:  99.9792%.
MG BCs: Charge after coarse-graining:           -9.0009761.
MG DL_MG: Calling solver with defect correction order = 8
MG DL_MG: Solver finished
MG Hartree energy from (\int phi*rho dr):              1428.669925
MG Hartree energy from (\int eps (grad phi)^2 dr):     1428.014149
MG Discrepancy due to finite box and discretization:     -0.655776 (  -0.04590%)
MG Correction to account for finite box:                  0.477301
MG Remaining discrepancy, due to discretization:         -0.178474 (  -0.01249%)
      ideal mu1:      -0.771755861627
             Q0:  -11532.673124858062
             G0:      -0.526257955616
   RMS gradient:       0.000110942083
MG BCs: +ve charge blocks (gridpoints):     31328 (   17238044).
MG BCs: -ve charge blocks (gridpoints):      8303 (    1099589).
MG BCs:     Elided blocks (gridpoints):    162577 (  172632992).
MG BCs: Computational effort saved:  99.9792%.
MG BCs: Charge after coarse-graining:           -9.0009763.
MG DL_MG: Calling solver with defect correction order = 8
MG DL_MG: Solver finished
MG Hartree energy from (\int phi*rho dr):              1429.912778
MG Hartree energy from (\int eps (grad phi)^2 dr):     1429.257208
MG Discrepancy due to finite box and discretization:     -0.655569 (  -0.04585%)
MG Correction to account for finite box:                  0.476989
MG Remaining discrepancy, due to discretization:         -0.178580 (  -0.01249%)
     Trial step:       0.479839697691
             Q1:  -11532.806238964433
 Quadratic coef:       0.119405351959
 Linear coef   :      -0.252519458330
           Qmin:  -11532.806632434960
Quadratic minimum step length (  0.507384545826) accepted
    Initial Ne1:    7191.99997046
      Final Ne1:    7192.00000000

=================== Penalty functional idempotency correction ==================
 RMS occupancy error at iteration   1:  0.000321 (step -0.4947 Ne1=   7192.0000)
 RMS occupancy error at iteration   2:  0.000003 (step -0.5000 Ne1=   7192.0000)
            Final RMS occupancy error   :  0.000000 (Ne1=   7192.0000)
               Final occupancy bounds   : [  0.0000,  1.0000]
================================================================================

    4        -1.153267312486E+04     1.1094E-04     1.0034E-04    -5.1978E-01
MG BCs: +ve charge blocks (gridpoints):     31327 (   17238103).
MG BCs: -ve charge blocks (gridpoints):      8303 (    1099568).
MG BCs:     Elided blocks (gridpoints):    162578 (  172632954).
MG BCs: Computational effort saved:  99.9792%.
MG BCs: Charge after coarse-graining:           -9.0009764.
MG DL_MG: Calling solver with defect correction order = 8
MG DL_MG: Solver finished
MG Hartree energy from (\int phi*rho dr):              1429.984846
MG Hartree energy from (\int eps (grad phi)^2 dr):     1429.329288
MG Discrepancy due to finite box and discretization:     -0.655558 (  -0.04584%)
MG Correction to account for finite box:                  0.476972
MG Remaining discrepancy, due to discretization:         -0.178587 (  -0.01249%)
      ideal mu1:      -0.771969469196
             Q0:  -11532.807306134724
             G0:      -0.213019660018
   RMS gradient:       0.000070783168
MG BCs: +ve charge blocks (gridpoints):     31324 (   17238355).
MG BCs: -ve charge blocks (gridpoints):      8306 (    1099404).
MG BCs:     Elided blocks (gridpoints):    162580 (  172632866).
MG BCs: Computational effort saved:  99.9792%.
MG BCs: Charge after coarse-graining:           -9.0009763.
MG DL_MG: Calling solver with defect correction order = 8
MG DL_MG: Solver finished
MG Hartree energy from (\int phi*rho dr):              1430.413450
MG Hartree energy from (\int eps (grad phi)^2 dr):     1429.757901
MG Discrepancy due to finite box and discretization:     -0.655549 (  -0.04583%)
MG Correction to account for finite box:                  0.476798
MG Remaining discrepancy, due to discretization:         -0.178751 (  -0.01250%)
     Trial step:       0.493419950024
             Q1:  -11532.876941735391
 Quadratic coef:       0.035472549334
 Linear coef   :      -0.105108150000
           Qmin:  -11532.885167209019
Quadratic minimum step length (  0.731022425699) accepted
    Initial Ne1:    7191.99998209
      Final Ne1:    7192.00000000

=================== Penalty functional idempotency correction ==================
 RMS occupancy error at iteration   1:  0.000628 (step -0.4698 Ne1=   7192.0000)
 RMS occupancy error at iteration   2:  0.000013 (step -0.5000 Ne1=   7192.0000)
            Final RMS occupancy error   :  0.000000 (Ne1=   7192.0000)
               Final occupancy bounds   : [  0.0000,  1.0000]
================================================================================

    5        -1.153280730613E+04     7.0783E-05     6.4022E-05    -1.3418E-01
MG BCs: +ve charge blocks (gridpoints):     31324 (   17238530).
MG BCs: -ve charge blocks (gridpoints):      8304 (    1099262).
MG BCs:     Elided blocks (gridpoints):    162580 (  172632833).
MG BCs: Computational effort saved:  99.9792%.
MG BCs: Charge after coarse-graining:           -9.0009762.
MG DL_MG: Calling solver with defect correction order = 8
MG DL_MG: Solver finished
MG Hartree energy from (\int phi*rho dr):              1430.619000
MG Hartree energy from (\int eps (grad phi)^2 dr):     1429.963459
MG Discrepancy due to finite box and discretization:     -0.655541 (  -0.04582%)
MG Correction to account for finite box:                  0.476711
MG Remaining discrepancy, due to discretization:         -0.178830 (  -0.01250%)
      ideal mu1:      -0.771804151458
             Q0:  -11532.884080697666
             G0:      -0.207898825031
   RMS gradient:       0.000070769717
MG BCs: +ve charge blocks (gridpoints):     31325 (   17237589).
MG BCs: -ve charge blocks (gridpoints):      8309 (    1099835).
MG BCs:     Elided blocks (gridpoints):    162579 (  172633201).
MG BCs: Computational effort saved:  99.9792%.
MG BCs: Charge after coarse-graining:           -9.0009759.
MG DL_MG: Calling solver with defect correction order = 8
MG DL_MG: Solver finished
MG Hartree energy from (\int phi*rho dr):              1429.134458
MG Hartree energy from (\int eps (grad phi)^2 dr):     1428.479196
MG Discrepancy due to finite box and discretization:     -0.655262 (  -0.04585%)
MG Correction to account for finite box:                  0.476430
MG Remaining discrepancy, due to discretization:         -0.178832 (  -0.01251%)
     Trial step:       0.600583923157
             Q1:  -11532.972632455174
 Quadratic coef:       0.036308934448
 Linear coef   :      -0.124860691957
           Qmin:  -11532.991424748330
Quadratic minimum step length (  1.032656636214) accepted
    Initial Ne1:    7191.99994985
      Final Ne1:    7192.00000000

=================== Penalty functional idempotency correction ==================
 RMS occupancy error at iteration   1:  0.003744 (step -0.3499 Ne1=   7192.0000)
 RMS occupancy error at iteration   2:  0.000132 (step -0.4994 Ne1=   7192.0000)
 RMS occupancy error at iteration   3:  0.000000 (step -0.5000 Ne1=   7192.0000)
            Final RMS occupancy error   :  0.000000 (Ne1=   7192.0000)
               Final occupancy bounds   : [  0.0000,  1.0000]
================================================================================

    6        -1.153288408070E+04     7.0770E-05     6.4010E-05    -7.6775E-02
MG BCs: +ve charge blocks (gridpoints):     31326 (   17236994).
MG BCs: -ve charge blocks (gridpoints):      8313 (    1100178).
MG BCs:     Elided blocks (gridpoints):    162578 (  172633453).
MG BCs: Computational effort saved:  99.9792%.
MG BCs: Charge after coarse-graining:           -9.0009757.
MG DL_MG: Calling solver with defect correction order = 8
MG DL_MG: Solver finished
MG Hartree energy from (\int phi*rho dr):              1428.089717
MG Hartree energy from (\int eps (grad phi)^2 dr):     1427.434617
MG Discrepancy due to finite box and discretization:     -0.655099 (  -0.04587%)
MG Correction to account for finite box:                  0.476267
MG Remaining discrepancy, due to discretization:         -0.178832 (  -0.01252%)
      ideal mu1:      -0.770978893099
             Q0:  -11532.980264793965
             G0:      -0.293591285420
   RMS gradient:       0.000083296025
MG BCs: +ve charge blocks (gridpoints):     31324 (   17238951).
MG BCs: -ve charge blocks (gridpoints):      8306 (    1099039).
MG BCs:     Elided blocks (gridpoints):    162580 (  172632635).
MG BCs: Computational effort saved:  99.9792%.
MG BCs: Charge after coarse-graining:           -9.0009765.
MG DL_MG: Calling solver with defect correction order = 8
MG DL_MG: Solver finished
MG Hartree energy from (\int phi*rho dr):              1430.648460
MG Hartree energy from (\int eps (grad phi)^2 dr):     1429.993705
MG Discrepancy due to finite box and discretization:     -0.654756 (  -0.04577%)
MG Correction to account for finite box:                  0.476130
MG Remaining discrepancy, due to discretization:         -0.178625 (  -0.01249%)
     Trial step:       0.787525855990
             Q1:  -11533.066219606088
 Quadratic coef:       0.145255916239
 Linear coef   :      -0.231210728361
           Qmin:  -11533.072272063433
Quadratic minimum step length (  0.626771120521) accepted
    Initial Ne1:    7192.00000000
      Final Ne1:    7192.00000000

=================== Penalty functional idempotency correction ==================
 RMS occupancy error at iteration   1:  0.000143 (step -0.4921 Ne1=   7192.0000)
 RMS occupancy error at iteration   2:  0.000001 (step -0.5000 Ne1=   7192.0000)
            Final RMS occupancy error   :  0.000000 (Ne1=   7192.0000)
               Final occupancy bounds   : [  0.0000,  1.0000]
================================================================================

    7        -1.153298026479E+04     8.3296E-05     7.5339E-05    -9.6184E-02
MG BCs: +ve charge blocks (gridpoints):     31327 (   17238569).
MG BCs: -ve charge blocks (gridpoints):      8306 (    1099268).
MG BCs:     Elided blocks (gridpoints):    162577 (  172632788).
MG BCs: Computational effort saved:  99.9792%.
MG BCs: Charge after coarse-graining:           -9.0009764.
MG DL_MG: Calling solver with defect correction order = 8
MG DL_MG: Solver finished
MG Hartree energy from (\int phi*rho dr):              1430.124229
MG Hartree energy from (\int eps (grad phi)^2 dr):     1429.469403
MG Discrepancy due to finite box and discretization:     -0.654826 (  -0.04579%)
MG Correction to account for finite box:                  0.476160
MG Remaining discrepancy, due to discretization:         -0.178666 (  -0.01249%)
      ideal mu1:      -0.772252111072
             Q0:  -11533.072388914297
             G0:      -0.205188959895
   RMS gradient:       0.000069602135
MG BCs: +ve charge blocks (gridpoints):     31327 (   17238434).
MG BCs: -ve charge blocks (gridpoints):      8304 (    1099256).
MG BCs:     Elided blocks (gridpoints):    162578 (  172632935).
MG BCs: Computational effort saved:  99.9792%.
MG BCs: Charge after coarse-graining:           -9.0009765.
MG DL_MG: Calling solver with defect correction order = 8
MG DL_MG: Solver finished
MG Hartree energy from (\int phi*rho dr):              1430.073377
MG Hartree energy from (\int eps (grad phi)^2 dr):     1429.418780
MG Discrepancy due to finite box and discretization:     -0.654597 (  -0.04577%)
MG Correction to account for finite box:                  0.476059
MG Remaining discrepancy, due to discretization:         -0.178539 (  -0.01248%)
     Trial step:       0.702565629104
             Q1:  -11533.153147740406
 Quadratic coef:       0.063399884586
 Linear coef   :      -0.144158710694
           Qmin:  -11533.154335963589
Quadratic minimum step length (  0.798747158065) accepted
    Initial Ne1:    7191.99999997
      Final Ne1:    7192.00000000

=================== Penalty functional idempotency correction ==================
 RMS occupancy error at iteration   1:  0.000945 (step -0.4501 Ne1=   7192.0000)
 RMS occupancy error at iteration   2:  0.000011 (step -0.4998 Ne1=   7192.0000)
            Final RMS occupancy error   :  0.000000 (Ne1=   7192.0000)
               Final occupancy bounds   : [ -0.0000,  1.0000]
================================================================================

    8        -1.153307238891E+04     6.9602E-05     6.2954E-05    -9.2124E-02
MG BCs: +ve charge blocks (gridpoints):     31327 (   17238465).
MG BCs: -ve charge blocks (gridpoints):      8305 (    1099263).
MG BCs:     Elided blocks (gridpoints):    162578 (  172632897).
MG BCs: Computational effort saved:  99.9792%.
MG BCs: Charge after coarse-graining:           -9.0009764.
MG DL_MG: Calling solver with defect correction order = 8
MG DL_MG: Solver finished
MG Hartree energy from (\int phi*rho dr):              1430.068375
MG Hartree energy from (\int eps (grad phi)^2 dr):     1429.413807
MG Discrepancy due to finite box and discretization:     -0.654568 (  -0.04577%)
MG Correction to account for finite box:                  0.476047
MG Remaining discrepancy, due to discretization:         -0.178521 (  -0.01248%)
      ideal mu1:      -0.772026223811
             Q0:  -11533.153761171503
             G0:      -0.193296615253
   RMS gradient:       0.000067712429
MG BCs: +ve charge blocks (gridpoints):     31329 (   17237519).
MG BCs: -ve charge blocks (gridpoints):      8306 (    1099804).
MG BCs:     Elided blocks (gridpoints):    162576 (  172633302).
MG BCs: Computational effort saved:  99.9792%.
MG BCs: Charge after coarse-graining:           -9.0009762.
MG DL_MG: Calling solver with defect correction order = 8
MG DL_MG: Solver finished
MG Hartree energy from (\int phi*rho dr):              1428.847273
MG Hartree energy from (\int eps (grad phi)^2 dr):     1428.192955
MG Discrepancy due to finite box and discretization:     -0.654318 (  -0.04579%)
MG Correction to account for finite box:                  0.475874
MG Remaining discrepancy, due to discretization:         -0.178444 (  -0.01249%)
     Trial step:       0.749114343475
             Q1:  -11533.224637768813
 Quadratic coef:       0.073924669721
 Linear coef   :      -0.144801267031
           Qmin:  -11533.224669188450
Quadratic minimum step length (  0.733670549328) accepted
    Initial Ne1:    7192.00005645
      Final Ne1:    7192.00000000

=================== Penalty functional idempotency correction ==================
 RMS occupancy error at iteration   1:  0.002548 (step -0.3856 Ne1=   7192.0000)
 RMS occupancy error at iteration   2:  0.000045 (step -0.4990 Ne1=   7192.0000)
            Final RMS occupancy error   :  0.000000 (Ne1=   7192.0000)
               Final occupancy bounds   : [ -0.0000,  1.0000]
================================================================================

    9        -1.153315376117E+04     6.7712E-05     6.1244E-05    -8.1372E-02
MG BCs: +ve charge blocks (gridpoints):     31329 (   17237553).
MG BCs: -ve charge blocks (gridpoints):      8306 (    1099782).
MG BCs:     Elided blocks (gridpoints):    162576 (  172633290).
MG BCs: Computational effort saved:  99.9792%.
MG BCs: Charge after coarse-graining:           -9.0009762.
MG DL_MG: Calling solver with defect correction order = 8
MG DL_MG: Solver finished
MG Hartree energy from (\int phi*rho dr):              1428.875582
MG Hartree energy from (\int eps (grad phi)^2 dr):     1428.221258
MG Discrepancy due to finite box and discretization:     -0.654324 (  -0.04579%)
MG Correction to account for finite box:                  0.475878
MG Remaining discrepancy, due to discretization:         -0.178446 (  -0.01249%)
      ideal mu1:      -0.770920369601
   10        -1.153322680267E+04     6.0911E-05     5.5093E-05    -7.3041E-02
Finished density kernel iterations (  10)

Writing density kernel to file "host_38861.vacuum_dkn" ... done


>>> Density kernel optimised for the current NGWF basis:
     ~~~~~~~~~~~~~~~~~~~~~~~~~~~~~~~~~~~~~~~~~~~~~~~~~~~~~~~~~~~
     Total energy                =  -1.15332268026650E+04  Eh
     Estimated bandgap           =  -4.7966E-01  Eh
     RMS occupancy error         =   7.3333E-08
     [H,K] commutator            =   5.5093E-05
     Occupancy bounds            = [ -0.000:  1.000]
     ~~~~~~~~~~~~~~~~~~~~~~~~~~~~~~~~~~~~~~~~~~~~~~~~~~~~~~~~~~~




################################################################################
########################### NGWF CG iteration  001 #############################
################################################################################
****** Reciprocal space K.E. preconditioning with k_zero =  3.5000 a0^-1 *******

>>> Checking for convergence of NGWFs:   NOT CONVERGED
  ========================================================================
         NGWF RMS gradient =  1.5829E-03 >  2.0000E-06  | above tolerance
  ========================================================================

>>> Improving NGWFs using line search:
============ Calculation of NGWF S^-1 using Hotelling algorithm ================ 
         Iteration  |  Frobenius norm and Maximum abs value    (of I-S*S_n^-1)   
               1       0.19546298E+00     0.51381556E-02
               2       0.89175030E-03     0.36046253E-04
               3       0.32097943E-07     0.22681153E-08
               4       0.12977548E-12     0.62172489E-14
================================================================================
MG BCs: +ve charge blocks (gridpoints):     30865 (   17176091).
MG BCs: -ve charge blocks (gridpoints):      8313 (    1099465).
MG BCs:     Elided blocks (gridpoints):    163042 (  172695069).
MG BCs: Computational effort saved:  99.9795%.
MG BCs: Charge after coarse-graining:           -9.0009797.
MG DL_MG: Calling solver with defect correction order = 8
MG DL_MG: Solver finished
MG Hartree energy from (\int phi*rho dr):              1397.381257
MG Hartree energy from (\int eps (grad phi)^2 dr):     1396.727702
MG Discrepancy due to finite box and discretization:     -0.653554 (  -0.04677%)
MG Correction to account for finite box:                  0.475796
MG Remaining discrepancy, due to discretization:         -0.177758 (  -0.01272%)
============ Calculation of NGWF S^-1 using Hotelling algorithm ================ 
         Iteration  |  Frobenius norm and Maximum abs value    (of I-S*S_n^-1)   
               1       0.18447759E+01     0.41830950E-01
               2       0.70917928E-01     0.22558689E-02
               3       0.14370173E-03     0.97419721E-05
               4       0.11574748E-08     0.20651900E-09
               5       0.11054502E-12     0.55511151E-14
================================================================================
------------------------------- NGWF line search -------------------------------
RMS gradient                =       0.00158293792455
Trial step length           =               0.122474
Gradient along search dir.  =       -273.64521916656
Functional at step 0        =  -11533.22680266504176
Functional at step 1        =  -11564.19513131247368
Functional predicted        =  -11643.51003808685891
Selected quadratic step     =               0.806031
--------------------------- NGWF line search finished --------------------------
                                               
Writing NGWFs to file "host_38861.vacuum_tightbox_ngwfs"....  done

>>> Optimising kernel for current NGWFs:
   Initial electron number for spin 1:    7226.33446369
     Final electron number for spin 1:    7192.00000000

=================== Penalty functional idempotency correction ==================
 RMS occupancy error at iteration   1:  0.004249 (step -0.4860 Ne1=   7192.0000)
 RMS occupancy error at iteration   2:  0.000071 (step -0.5003 Ne1=   7192.0000)
            Final RMS occupancy error   :  0.000000 (Ne1=   7192.0000)
               Final occupancy bounds   : [  0.0000,  1.0000]
================================================================================

................................................................................
<<<<<<<<<<<<<< LNV (Original version) density kernel optimisation >>>>>>>>>>>>>>
~~~~~~~~~~~~~~~~~~~~~~~~~~~~~~~~~~~~~~~~~~~~~~~~~~~~~~~~~~~~~~~~~~~~~~~~~~~~~~~~
   iter  |      energy (Eh)       | rms gradient |  commutator  |   dE (Eh)
MG BCs: +ve charge blocks (gridpoints):     24597 (   16860508).
MG BCs: -ve charge blocks (gridpoints):      8458 (    1082838).
MG BCs:     Elided blocks (gridpoints):    169317 (  173027279).
MG BCs: Computational effort saved:  99.9827%.
MG BCs: Charge after coarse-graining:           -9.0006569.
MG DL_MG: Calling solver with defect correction order = 8
MG DL_MG: Solver finished
MG Hartree energy from (\int phi*rho dr):              1243.689226
MG Hartree energy from (\int eps (grad phi)^2 dr):     1243.035357
MG Discrepancy due to finite box and discretization:     -0.653869 (  -0.05257%)
MG Correction to account for finite box:                  0.475424
MG Remaining discrepancy, due to discretization:         -0.178446 (  -0.01435%)
      ideal mu1:      -0.711561426533
             Q0:  -11642.712553089834
             G0:      -9.950650329235
   RMS gradient:       0.000484929307
MG BCs: +ve charge blocks (gridpoints):     24672 (   16875884).
MG BCs: -ve charge blocks (gridpoints):      8436 (    1079292).
MG BCs:     Elided blocks (gridpoints):    169242 (  173015449).
MG BCs: Computational effort saved:  99.9827%.
MG BCs: Charge after coarse-graining:           -9.0006530.
MG DL_MG: Calling solver with defect correction order = 8
MG DL_MG: Solver finished
MG Hartree energy from (\int phi*rho dr):              1259.929797
MG Hartree energy from (\int eps (grad phi)^2 dr):     1259.270801
MG Discrepancy due to finite box and discretization:     -0.658997 (  -0.05230%)
MG Correction to account for finite box:                  0.474437
MG Remaining discrepancy, due to discretization:         -0.184559 (  -0.01465%)
     Trial step:       0.741352231997
             Q1:  -11641.828648286290
 Quadratic coef:       8.260841634943
 Linear coef   :      -7.376936831398
           Qmin:  -11644.359455409818
Quadratic minimum step length (  0.331014007224) accepted
    Initial Ne1:    7191.99956737
      Final Ne1:    7192.00000000

=================== Penalty functional idempotency correction ==================
 RMS occupancy error at iteration   1:  0.000361 (step -0.4986 Ne1=   7192.0000)
 RMS occupancy error at iteration   2:  0.000000 (step -0.5000 Ne1=   7192.0000)
            Final RMS occupancy error   :  0.000000 (Ne1=   7192.0000)
               Final occupancy bounds   : [  0.0000,  1.0000]
================================================================================

    1        -1.164271255309E+04     4.8493E-04     4.3861E-04
MG BCs: +ve charge blocks (gridpoints):     24628 (   16867568).
MG BCs: -ve charge blocks (gridpoints):      8444 (    1081233).
MG BCs:     Elided blocks (gridpoints):    169286 (  173021824).
MG BCs: Computational effort saved:  99.9827%.
MG BCs: Charge after coarse-graining:           -9.0006550.
MG DL_MG: Calling solver with defect correction order = 8
MG DL_MG: Solver finished
MG Hartree energy from (\int phi*rho dr):              1249.942608
MG Hartree energy from (\int eps (grad phi)^2 dr):     1249.286560
MG Discrepancy due to finite box and discretization:     -0.656048 (  -0.05249%)
MG Correction to account for finite box:                  0.474950
MG Remaining discrepancy, due to discretization:         -0.181097 (  -0.01449%)
      ideal mu1:      -0.718145708349
             Q0:  -11644.332031301223
             G0:      -1.016752409873
   RMS gradient:       0.000155752846
MG BCs: +ve charge blocks (gridpoints):     24628 (   16867194).
MG BCs: -ve charge blocks (gridpoints):      8448 (    1082054).
MG BCs:     Elided blocks (gridpoints):    169286 (  173021377).
MG BCs: Computational effort saved:  99.9827%.
MG BCs: Charge after coarse-graining:           -9.0006550.
MG DL_MG: Calling solver with defect correction order = 8
MG DL_MG: Solver finished
MG Hartree energy from (\int phi*rho dr):              1250.986344
MG Hartree energy from (\int eps (grad phi)^2 dr):     1250.330048
MG Discrepancy due to finite box and discretization:     -0.656296 (  -0.05246%)
MG Correction to account for finite box:                  0.474807
MG Remaining discrepancy, due to discretization:         -0.181489 (  -0.01451%)
     Trial step:       0.495376597225
             Q1:  -11644.544205346494
 Quadratic coef:       0.291501303751
 Linear coef   :      -0.503675349023
           Qmin:  -11644.549602246832
Quadratic minimum step length (  0.427972323441) accepted
    Initial Ne1:    7191.99994228
      Final Ne1:    7192.00000000

=================== Penalty functional idempotency correction ==================
 RMS occupancy error at iteration   1:  0.000154 (step -0.4991 Ne1=   7192.0000)
 RMS occupancy error at iteration   2:  0.000000 (step -0.5000 Ne1=   7192.0000)
            Final RMS occupancy error   :  0.000000 (Ne1=   7192.0000)
               Final occupancy bounds   : [  0.0000,  1.0000]
================================================================================

    2        -1.164433203130E+04     1.5575E-04     1.4087E-04    -1.6195E+00
MG BCs: +ve charge blocks (gridpoints):     24628 (   16867212).
MG BCs: -ve charge blocks (gridpoints):      8447 (    1081947).
MG BCs:     Elided blocks (gridpoints):    169286 (  173021466).
MG BCs: Computational effort saved:  99.9827%.
MG BCs: Charge after coarse-graining:           -9.0006550.
MG DL_MG: Calling solver with defect correction order = 8
MG DL_MG: Solver finished
MG Hartree energy from (\int phi*rho dr):              1250.844072
MG Hartree energy from (\int eps (grad phi)^2 dr):     1250.187812
MG Discrepancy due to finite box and discretization:     -0.656260 (  -0.05247%)
MG Correction to account for finite box:                  0.474826
MG Remaining discrepancy, due to discretization:         -0.181434 (  -0.01450%)
      ideal mu1:      -0.719003655026
             Q0:  -11644.550086925621
             G0:      -0.173325992161
   RMS gradient:       0.000063930542
MG BCs: +ve charge blocks (gridpoints):     24628 (   16866662).
MG BCs: -ve charge blocks (gridpoints):      8449 (    1082340).
MG BCs:     Elided blocks (gridpoints):    169286 (  173021623).
MG BCs: Computational effort saved:  99.9827%.
MG BCs: Charge after coarse-graining:           -9.0006549.
MG DL_MG: Calling solver with defect correction order = 8
MG DL_MG: Solver finished
MG Hartree energy from (\int phi*rho dr):              1250.344396
MG Hartree energy from (\int eps (grad phi)^2 dr):     1249.688254
MG Discrepancy due to finite box and discretization:     -0.656143 (  -0.05248%)
MG Correction to account for finite box:                  0.474723
MG Remaining discrepancy, due to discretization:         -0.181420 (  -0.01451%)
     Trial step:       0.460442692735
             Q1:  -11644.605687452480
 Quadratic coef:       0.024206159693
 Linear coef   :      -0.079806686551
           Qmin:  -11644.615866744674
Quadratic minimum step length (  0.759030059299) accepted
    Initial Ne1:    7191.99998275
      Final Ne1:    7192.00000000

=================== Penalty functional idempotency correction ==================
 RMS occupancy error at iteration   1:  0.000191 (step -0.4906 Ne1=   7192.0000)
 RMS occupancy error at iteration   2:  0.000002 (step -0.5000 Ne1=   7192.0000)
            Final RMS occupancy error   :  0.000000 (Ne1=   7192.0000)
               Final occupancy bounds   : [  0.0000,  1.0000]
================================================================================

    3        -1.164455008693E+04     6.3931E-05     5.7824E-05    -2.1806E-01
MG BCs: +ve charge blocks (gridpoints):     24628 (   16866199).
MG BCs: -ve charge blocks (gridpoints):      8450 (    1082632).
MG BCs:     Elided blocks (gridpoints):    169286 (  173021794).
MG BCs: Computational effort saved:  99.9827%.
MG BCs: Charge after coarse-graining:           -9.0006550.
MG DL_MG: Calling solver with defect correction order = 8
MG DL_MG: Solver finished
MG Hartree energy from (\int phi*rho dr):              1250.020419
MG Hartree energy from (\int eps (grad phi)^2 dr):     1249.364351
MG Discrepancy due to finite box and discretization:     -0.656068 (  -0.05248%)
MG Correction to account for finite box:                  0.474656
MG Remaining discrepancy, due to discretization:         -0.181412 (  -0.01451%)
      ideal mu1:      -0.718161347470
             Q0:  -11644.615888867411
             G0:      -0.078071272034
   RMS gradient:       0.000042924709
MG BCs: +ve charge blocks (gridpoints):     24628 (   16866252).
MG BCs: -ve charge blocks (gridpoints):      8449 (    1082553).
MG BCs:     Elided blocks (gridpoints):    169286 (  173021820).
MG BCs: Computational effort saved:  99.9827%.
MG BCs: Charge after coarse-graining:           -9.0006550.
MG DL_MG: Calling solver with defect correction order = 8
MG DL_MG: Solver finished
MG Hartree energy from (\int phi*rho dr):              1250.034725
MG Hartree energy from (\int eps (grad phi)^2 dr):     1249.378865
MG Discrepancy due to finite box and discretization:     -0.655860 (  -0.05247%)
MG Correction to account for finite box:                  0.474586
MG Remaining discrepancy, due to discretization:         -0.181275 (  -0.01450%)
     Trial step:       0.591176660881
             Q1:  -11644.644544153707
 Quadratic coef:       0.017498627616
 Linear coef   :      -0.046153913912
           Qmin:  -11644.646322450777
Quadratic minimum step length (  0.779635903787) accepted
    Initial Ne1:    7191.99999162
      Final Ne1:    7192.00000000

=================== Penalty functional idempotency correction ==================
 RMS occupancy error at iteration   1:  0.000386 (step -0.4759 Ne1=   7192.0000)
 RMS occupancy error at iteration   2:  0.000005 (step -0.5000 Ne1=   7192.0000)
            Final RMS occupancy error   :  0.000000 (Ne1=   7192.0000)
               Final occupancy bounds   : [  0.0000,  1.0000]
================================================================================

    4        -1.164461588887E+04     4.2925E-05     3.8824E-05    -6.5802E-02
MG BCs: +ve charge blocks (gridpoints):     24628 (   16866230).
MG BCs: -ve charge blocks (gridpoints):      8449 (    1082585).
MG BCs:     Elided blocks (gridpoints):    169286 (  173021810).
MG BCs: Computational effort saved:  99.9827%.
MG BCs: Charge after coarse-graining:           -9.0006550.
MG DL_MG: Calling solver with defect correction order = 8
MG DL_MG: Solver finished
MG Hartree energy from (\int phi*rho dr):              1250.040890
MG Hartree energy from (\int eps (grad phi)^2 dr):     1249.385095
MG Discrepancy due to finite box and discretization:     -0.655795 (  -0.05246%)
MG Correction to account for finite box:                  0.474563
MG Remaining discrepancy, due to discretization:         -0.181231 (  -0.01450%)
      ideal mu1:      -0.718668985723
             Q0:  -11644.646250697318
             G0:      -0.079400040047
   RMS gradient:       0.000043284375
MG BCs: +ve charge blocks (gridpoints):     24628 (   16867692).
MG BCs: -ve charge blocks (gridpoints):      8450 (    1082027).
MG BCs:     Elided blocks (gridpoints):    169286 (  173020906).
MG BCs: Computational effort saved:  99.9827%.
MG BCs: Charge after coarse-graining:           -9.0006546.
MG DL_MG: Calling solver with defect correction order = 8
MG DL_MG: Solver finished
MG Hartree energy from (\int phi*rho dr):              1250.980621
MG Hartree energy from (\int eps (grad phi)^2 dr):     1250.325067
MG Discrepancy due to finite box and discretization:     -0.655554 (  -0.05240%)
MG Correction to account for finite box:                  0.474421
MG Remaining discrepancy, due to discretization:         -0.181133 (  -0.01448%)
     Trial step:       0.678898041169
             Q1:  -11644.677353820181
 Quadratic coef:       0.022801408793
 Linear coef   :      -0.053904531656
           Qmin:  -11644.678109458320
Quadratic minimum step length (  0.802487277941) accepted
    Initial Ne1:    7191.99998739
      Final Ne1:    7192.00000000

=================== Penalty functional idempotency correction ==================
 RMS occupancy error at iteration   1:  0.001237 (step -0.4290 Ne1=   7192.0000)
 RMS occupancy error at iteration   2:  0.000039 (step -0.4982 Ne1=   7192.0000)
            Final RMS occupancy error   :  0.000000 (Ne1=   7192.0000)
               Final occupancy bounds   : [ -0.0000,  1.0000]
================================================================================

    5        -1.164464625070E+04     4.3284E-05     3.9150E-05    -3.0362E-02
MG BCs: +ve charge blocks (gridpoints):     24628 (   16867895).
MG BCs: -ve charge blocks (gridpoints):      8450 (    1081960).
MG BCs:     Elided blocks (gridpoints):    169286 (  173020770).
MG BCs: Computational effort saved:  99.9827%.
MG BCs: Charge after coarse-graining:           -9.0006546.
MG DL_MG: Calling solver with defect correction order = 8
MG DL_MG: Solver finished
MG Hartree energy from (\int phi*rho dr):              1251.153621
MG Hartree energy from (\int eps (grad phi)^2 dr):     1250.498108
MG Discrepancy due to finite box and discretization:     -0.655513 (  -0.05239%)
MG Correction to account for finite box:                  0.474397
MG Remaining discrepancy, due to discretization:         -0.181116 (  -0.01448%)
      ideal mu1:      -0.720275077725
             Q0:  -11644.678694387432
             G0:      -0.067783938969
   RMS gradient:       0.000039028252
MG BCs: +ve charge blocks (gridpoints):     24627 (   16868011).
MG BCs: -ve charge blocks (gridpoints):      8447 (    1081999).
MG BCs:     Elided blocks (gridpoints):    169287 (  173020615).
MG BCs: Computational effort saved:  99.9827%.
MG BCs: Charge after coarse-graining:           -9.0006546.
MG DL_MG: Calling solver with defect correction order = 8
MG DL_MG: Solver finished
MG Hartree energy from (\int phi*rho dr):              1250.958972
MG Hartree energy from (\int eps (grad phi)^2 dr):     1250.303603
MG Discrepancy due to finite box and discretization:     -0.655368 (  -0.05239%)
MG Correction to account for finite box:                  0.474224
MG Remaining discrepancy, due to discretization:         -0.181144 (  -0.01448%)
     Trial step:       0.738110453156
             Q1:  -11644.708006576053
 Quadratic coef:       0.020719845288
 Linear coef   :      -0.050032033909
           Qmin:  -11644.708897368948
Quadratic minimum step length (  0.891154511706) accepted
    Initial Ne1:    7192.00110055
      Final Ne1:    7192.00000000

=================== Penalty functional idempotency correction ==================
 RMS occupancy error at iteration   1:  0.002349 (step -0.3827 Ne1=   7192.0000)
 RMS occupancy error at iteration   2:  0.000112 (step -0.4947 Ne1=   7192.0000)
 RMS occupancy error at iteration   3:  0.000001 (step -0.5000 Ne1=   7192.0000)
            Final RMS occupancy error   :  0.000000 (Ne1=   7192.0000)
               Final occupancy bounds   : [  0.0000,  1.0000]
================================================================================

    6        -1.164467869439E+04     3.9028E-05     3.5300E-05    -3.2444E-02
MG BCs: +ve charge blocks (gridpoints):     24627 (   16868014).
MG BCs: -ve charge blocks (gridpoints):      8447 (    1082032).
MG BCs:     Elided blocks (gridpoints):    169287 (  173020579).
MG BCs: Computational effort saved:  99.9827%.
MG BCs: Charge after coarse-graining:           -9.0006545.
MG DL_MG: Calling solver with defect correction order = 8
MG DL_MG: Solver finished
MG Hartree energy from (\int phi*rho dr):              1250.920176
MG Hartree energy from (\int eps (grad phi)^2 dr):     1250.264833
MG Discrepancy due to finite box and discretization:     -0.655342 (  -0.05239%)
MG Correction to account for finite box:                  0.474192
MG Remaining discrepancy, due to discretization:         -0.181150 (  -0.01448%)
      ideal mu1:      -0.720640822752
             Q0:  -11644.711683885660
             G0:      -0.053734921576
   RMS gradient:       0.000035635348
MG BCs: +ve charge blocks (gridpoints):     24628 (   16866156).
MG BCs: -ve charge blocks (gridpoints):      8451 (    1082555).
MG BCs:     Elided blocks (gridpoints):    169286 (  173021914).
MG BCs: Computational effort saved:  99.9827%.
MG BCs: Charge after coarse-graining:           -9.0006550.
MG DL_MG: Calling solver with defect correction order = 8
MG DL_MG: Solver finished
MG Hartree energy from (\int phi*rho dr):              1250.012111
MG Hartree energy from (\int eps (grad phi)^2 dr):     1249.356731
MG Discrepancy due to finite box and discretization:     -0.655380 (  -0.05243%)
MG Correction to account for finite box:                  0.474192
MG Remaining discrepancy, due to discretization:         -0.181188 (  -0.01449%)
     Trial step:       0.811030492933
             Q1:  -11644.725829036441
 Quadratic coef:       0.029435509152
 Linear coef   :      -0.043580659933
           Qmin:  -11644.727814691401
Quadratic minimum step length (  0.600384452763) accepted
    Initial Ne1:    7191.99999993
      Final Ne1:    7192.00000000

=================== Penalty functional idempotency correction ==================
 RMS occupancy error at iteration   1:  0.000030 (step -0.4983 Ne1=   7192.0000)
            Final RMS occupancy error   :  0.000000 (Ne1=   7192.0000)
               Final occupancy bounds   : [ -0.0000,  1.0000]
================================================================================

    7        -1.164471168389E+04     3.5635E-05     3.2231E-05    -3.2989E-02
MG BCs: +ve charge blocks (gridpoints):     24627 (   16866639).
MG BCs: -ve charge blocks (gridpoints):      8451 (    1082399).
MG BCs:     Elided blocks (gridpoints):    169287 (  173021587).
MG BCs: Computational effort saved:  99.9827%.
MG BCs: Charge after coarse-graining:           -9.0006549.
MG DL_MG: Calling solver with defect correction order = 8
MG DL_MG: Solver finished
MG Hartree energy from (\int phi*rho dr):              1250.246351
MG Hartree energy from (\int eps (grad phi)^2 dr):     1249.590980
MG Discrepancy due to finite box and discretization:     -0.655371 (  -0.05242%)
MG Correction to account for finite box:                  0.474193
MG Remaining discrepancy, due to discretization:         -0.181178 (  -0.01449%)
      ideal mu1:      -0.720022562561
             Q0:  -11644.727820954635
             G0:      -0.044529477417
   RMS gradient:       0.000032433601
MG BCs: +ve charge blocks (gridpoints):     24628 (   16866454).
MG BCs: -ve charge blocks (gridpoints):      8449 (    1082397).
MG BCs:     Elided blocks (gridpoints):    169286 (  173021774).
MG BCs: Computational effort saved:  99.9827%.
MG BCs: Charge after coarse-graining:           -9.0006550.
MG DL_MG: Calling solver with defect correction order = 8
MG DL_MG: Solver finished
MG Hartree energy from (\int phi*rho dr):              1250.064690
MG Hartree energy from (\int eps (grad phi)^2 dr):     1249.409373
MG Discrepancy due to finite box and discretization:     -0.655317 (  -0.05242%)
MG Correction to account for finite box:                  0.474058
MG Remaining discrepancy, due to discretization:         -0.181259 (  -0.01450%)
     Trial step:       0.697803768028
             Q1:  -11644.749602836790
 Quadratic coef:       0.009290954975
 Linear coef   :      -0.031072837130
           Qmin:  -11644.753801093650
Quadratic minimum step length (  1.166873743947) accepted
    Initial Ne1:    7192.00047950
      Final Ne1:    7192.00000000

[...]
MG Hartree energy from (\int eps (grad phi)^2 dr):     1208.268239
MG Discrepancy due to finite box and discretization:     -0.186753 (  -0.01545%)
MG Correction to account for finite box:                  0.006396
MG Remaining discrepancy, due to discretization:         -0.180357 (  -0.01492%)
     Trial step:       0.249227742496
             Q1:  -11679.113495063270
 Quadratic coef:       0.000000000506
 Linear coef   :      -0.000000000156
           Qmin:  -11679.113495063631
Quadratic minimum step length (  0.038479285869) accepted
    Initial Ne1:    7192.00000000
      Final Ne1:    7192.00000000

=================== Penalty functional idempotency correction ==================
 RMS occupancy error at iteration   1:  0.000000 (step -0.5000 Ne1=   7192.0000)
            Final RMS occupancy error   :  0.000000 (Ne1=   7192.0000)
               Final occupancy bounds   : [ -0.0000,  1.0000]
================================================================================

    7        -1.167911349506E+04     3.8479E-09     3.4803E-09     1.1642E-10

Reusing previously generated solute cavity.
MG BCs: +ve charge blocks (gridpoints):     29116 (   19016329).
MG BCs: -ve charge blocks (gridpoints):      8445 (    1050670).
MG BCs:     Elided blocks (gridpoints):    164798 (  170903626).
MG BCs: Computational effort saved:  99.9803%.
MG BCs: Charge after coarse-graining:           -9.0009456.
MG DL_MG: Calling solver with defect correction order = 8
MG DL_MG: Solver finished
MG Hartree energy from (\int phi*rho dr):              1208.454988
MG Hartree energy from (\int eps (grad phi)^2 dr):     1208.268234
MG Discrepancy due to finite box and discretization:     -0.186753 (  -0.01545%)
MG Correction to account for finite box:                  0.006396
MG Remaining discrepancy, due to discretization:         -0.180357 (  -0.01492%)
      ideal mu1:      -0.481705957394
             Q0:  -11679.113495063502
             G0:      -0.000000001047
   RMS gradient:       0.000000003581

Reusing previously generated solute cavity.
MG BCs: +ve charge blocks (gridpoints):     29116 (   19016329).
MG BCs: -ve charge blocks (gridpoints):      8445 (    1050670).
MG BCs:     Elided blocks (gridpoints):    164798 (  170903626).
MG BCs: Computational effort saved:  99.9803%.
MG BCs: Charge after coarse-graining:           -9.0009456.
MG DL_MG: Calling solver with defect correction order = 8
MG DL_MG: Solver finished
MG Hartree energy from (\int phi*rho dr):              1208.454991
MG Hartree energy from (\int eps (grad phi)^2 dr):     1208.268238
MG Discrepancy due to finite box and discretization:     -0.186753 (  -0.01545%)
MG Correction to account for finite box:                  0.006396
MG Remaining discrepancy, due to discretization:         -0.180357 (  -0.01492%)
     Trial step:       0.097929084291
             Q1:  -11679.113495063270
 Quadratic coef:       0.000000000335
 Linear coef   :      -0.000000000103
           Qmin:  -11679.113495063510
Quadratic minimum step length (  0.015006709766) accepted
    Initial Ne1:    7192.00000000
      Final Ne1:    7192.00000000

=================== Penalty functional idempotency correction ==================
 RMS occupancy error at iteration   1:  0.000000 (step -0.5000 Ne1=   7192.0000)
            Final RMS occupancy error   :  0.000000 (Ne1=   7192.0000)
               Final occupancy bounds   : [  0.0000,  1.0000]
================================================================================

    8        -1.167911349506E+04     3.5815E-09     3.2393E-09     1.1642E-10

Reusing previously generated solute cavity.
MG BCs: +ve charge blocks (gridpoints):     29116 (   19016329).
MG BCs: -ve charge blocks (gridpoints):      8445 (    1050670).
MG BCs:     Elided blocks (gridpoints):    164798 (  170903626).
MG BCs: Computational effort saved:  99.9803%.
MG BCs: Charge after coarse-graining:           -9.0009456.
MG DL_MG: Calling solver with defect correction order = 8
MG DL_MG: Solver finished
MG Hartree energy from (\int phi*rho dr):              1208.454988
MG Hartree energy from (\int eps (grad phi)^2 dr):     1208.268235
MG Discrepancy due to finite box and discretization:     -0.186753 (  -0.01545%)
MG Correction to account for finite box:                  0.006396
MG Remaining discrepancy, due to discretization:         -0.180357 (  -0.01492%)
      ideal mu1:      -0.481705957146
             Q0:  -11679.113495063502
             G0:      -0.000000001386
   RMS gradient:       0.000000003402

Reusing previously generated solute cavity.
MG BCs: +ve charge blocks (gridpoints):     29116 (   19016329).
MG BCs: -ve charge blocks (gridpoints):      8445 (    1050670).
MG BCs:     Elided blocks (gridpoints):    164798 (  170903626).
MG BCs: Computational effort saved:  99.9803%.
MG BCs: Charge after coarse-graining:           -9.0009456.
MG DL_MG: Calling solver with defect correction order = 8
MG DL_MG: Solver finished
MG Hartree energy from (\int phi*rho dr):              1208.454990
MG Hartree energy from (\int eps (grad phi)^2 dr):     1208.268237
MG Discrepancy due to finite box and discretization:     -0.186753 (  -0.01545%)
MG Correction to account for finite box:                  0.006396
MG Remaining discrepancy, due to discretization:         -0.180357 (  -0.01492%)
     Trial step:       0.038335275473
             Q1:  -11679.113495063386
 Quadratic coef:       0.000000000169
 Linear coef   :      -0.000000000053
           Qmin:  -11679.113495063506
Quadratic minimum step length (  0.006019887121) accepted
    Initial Ne1:    7192.00000000
      Final Ne1:    7192.00000000

=================== Penalty functional idempotency correction ==================
 RMS occupancy error at iteration   1:  0.000000 (step -0.5000 Ne1=   7192.0000)
            Final RMS occupancy error   :  0.000000 (Ne1=   7192.0000)
               Final occupancy bounds   : [  0.0000,  1.0000]
================================================================================

    9        -1.167911349506E+04     3.4016E-09     3.0766E-09     0.0000E+00

Reusing previously generated solute cavity.
MG BCs: +ve charge blocks (gridpoints):     29116 (   19016329).
MG BCs: -ve charge blocks (gridpoints):      8445 (    1050670).
MG BCs:     Elided blocks (gridpoints):    164798 (  170903626).
MG BCs: Computational effort saved:  99.9803%.
MG BCs: Charge after coarse-graining:           -9.0009456.
MG DL_MG: Calling solver with defect correction order = 8
MG DL_MG: Solver finished
MG Hartree energy from (\int phi*rho dr):              1208.454988
MG Hartree energy from (\int eps (grad phi)^2 dr):     1208.268235
MG Discrepancy due to finite box and discretization:     -0.186753 (  -0.01545%)
MG Correction to account for finite box:                  0.006396
MG Remaining discrepancy, due to discretization:         -0.180357 (  -0.01492%)
      ideal mu1:      -0.481705957019
   10        -1.167911349506E+04     3.3038E-09     2.9882E-09     0.0000E+00
Finished density kernel iterations (  10)

Writing density kernel to file "host_38861.dkn" ... done


>>> Density kernel optimised for the current NGWF basis:
     ~~~~~~~~~~~~~~~~~~~~~~~~~~~~~~~~~~~~~~~~~~~~~~~~~~~~~~~~~~~
     Total energy                =  -1.16791134950635E+04  Eh
     Estimated bandgap           =   9.4957E-02  Eh
     RMS occupancy error         =   6.4252E-16
     [H,K] commutator            =   2.9882E-09
     Occupancy bounds            = [  0.000:  1.000]
     ~~~~~~~~~~~~~~~~~~~~~~~~~~~~~~~~~~~~~~~~~~~~~~~~~~~~~~~~~~~




################################################################################
########################### NGWF CG iteration  005 #############################
################################################################################
****** Reciprocal space K.E. preconditioning with k_zero =  3.5000 a0^-1 *******

>>> Checking for convergence of NGWFs: 
           ........................................................
           |         *** NGWF optimisation converged ***          |
           | RMS NGWF gradient =    0.00000088695871              |
           | Criteria satisfied:                                  |
           | -> RMS NGWF gradient lower than set threshold.       |
           ========================================================

Reusing previously generated solute cavity.
MG BCs: +ve charge blocks (gridpoints):     29116 (   19016329).
MG BCs: -ve charge blocks (gridpoints):      8445 (    1050670).
MG BCs:     Elided blocks (gridpoints):    164798 (  170903626).
MG BCs: Computational effort saved:  99.9803%.
MG BCs: Charge after coarse-graining:           -9.0009456.
MG DL_MG: Calling solver with defect correction order = 8
MG DL_MG: Solver finished
MG Hartree energy from (\int phi*rho dr):              1208.454988
MG Hartree energy from (\int eps (grad phi)^2 dr):     1208.268235
MG Discrepancy due to finite box and discretization:     -0.186753 (  -0.01545%)
MG Correction to account for finite box:                  0.006396
MG Remaining discrepancy, due to discretization:         -0.180357 (  -0.01492%)

================================================================================
           ---------------- ENERGY COMPONENTS (Eh) ----------------
           | Kinetic                    :     8530.17340231538765 |
           | Pseudo. (local,OBC,corr'd) :    -5051.60509113258740 |
           | Pseudopotential (non-local):     1403.33699012442912 |
           | Hartree (molecular)        :     1208.45498846910959 |
           | Exchange-correlation       :    -3357.70687613437622 |
           | Ion-ion (open BC)          :   828822.08332912530750 |
           | Dispersion Correction      :       -3.24954599759146 |
           | Smeared ion non-self corr. :  -828774.08531760342885 |
           | Smeared ion self corr.     :   -14457.16956389741972 |
           | Solvent cavitation energy  :        2.32745590198604 |
           | Solute-solvent dis-rep en. :       -1.67326623433532 |
           | Total                      :   -11679.11349506351507 |
           --------------------------------------------------------
           ------ LOCAL ENERGY COMPONENTS FROM MATRIX TRACES ------
           | Pseudopotential (local)    :    -5051.60509113260196 |
           | Hartree                    :    -1992.44824706125837 |
           --------------------------------------------------------
           Integrated density           :     7191.99999999833744
           Integrated density tr(KS)    :     7192.00000000000000
================================================================================


                        <<<<< CALCULATION SUMMARY >>>>>                         
|ITER|    RMS GRADIENT   |     TOTAL ENERGY    |   step   |     Epredicted              
   0     0.00003828179253 -11679.05699956999160   0.608159 -11679.10566626962645        
   1     0.00001044673201 -11679.11278644378763   0.099303 -11679.11337821696179        
   2     0.00000455102244 -11679.11347135447431   0.017626 -11679.11349128889924        
   3     0.00000200714022 -11679.11349415744189   0.003479 -11679.11349492277077        
   4     0.00000088695871 -11679.11349506350234  <-- CG                                 

=================== Finished the calculation in solvent ========================
= Adjusting the following parameters: 
= read_denskern: F
= read_tightbox_ngwfs: F
= maxit_pen: 0 (restored to user-specified value)
= restart read filename prefix: ""
= restart write filename prefix: ""
================================================================================

================================================================================
IS: Calculation in solvent completed (NGWFs converged).      

Individual components of total energy in solvent:     hartree           kcal/mol
- Usual non-electrostatic DFT terms:    -12888.22267320026367    -8087481.655809
- Electrostatic fixed charge energy:      1208.45498846910959      758316.937791
- Apolar cavitation energy:                  2.32745590198604        1460.500597
- Apolar dispersion-repulsion energy:       -1.67326623433532       -1049.990392
 -------------------------------------------------------------------------------
- Total energy in solvent:              -11679.11349506350234    -7328754.207812

Components of total energy in solvent:                hartree           kcal/mol
- Usual non-electrostatic DFT terms:    -12888.22267320026367    -8087481.655809
- Electrostatic energy:                   1208.45498846910959      758316.937791
- Apolar energy terms:                       0.65418966765073         410.510205
 -------------------------------------------------------------------------------
- Total energy in solvent:              -11679.11349506350234    -7328754.207812

Calculation of free energy of solvation:              hartree           kcal/mol
- Total energy in solvent:         (+)  -11679.11349506350234    -7328754.207812
- Total energy in vacuum:          (-)  -11675.39807983522769    -7326422.749607
 -------------------------------------------------------------------------------
- Total free energy of solvation:           -3.71541522827465       -2331.458205

Components of polar term in f.e. of solvation:        hartree           kcal/mol
- Electrostatic:                            -4.65818858474972       -2923.057405
- Change in nonelectrostatic DFT terms:      0.28858368882356         181.088995
 -------------------------------------------------------------------------------
- Polar term in f.e. of solvation:          -4.36960489592616       -2741.968411

Components of free energy of solvation:               hartree           kcal/mol
- Polar term in f.e. of solvation: (+)      -4.36960489592616       -2741.968411
- Apolar (cavitation, dis., rep.): (+)       0.65418966765073         410.510205
 -------------------------------------------------------------------------------
- Total free energy of solvation:           -3.71541522827543       -2331.458205
================================================================================


------------------------------ TIMING INFORMATION ------------------------------
AVERAGE TIME:   29309.291s on     40 node(s)                                    
TOTAL TIME:     29309.293s on     40 node(s)                                    
================= AVERAGE TIMINGS FROM ALL NODES (CUMULATIVE) ==================
|| TAG                                    #calls    cpu time   %total  Gflops ||
|| work_imbalance                       :     1        0.00s   0.000%  ------ ||
|| parallel_prepare_fd_halos_request    :  2073        0.02s   0.000%  ------ ||
|| sparse_set_to_garbage                :   194        0.04s   0.000%  ------ ||
|| parallel_prepare_fd_halos_satisfy    :  2073        0.06s   0.000%  ------ ||
|| ngwfs_initialise_from_radial         :     1        0.17s   0.001%  ------ ||
|| parallel_prepare_fd_halos_alloc      :  2073        0.19s   0.001%  ------ ||
|| basis_extract_function_from_box      :  5691        0.23s   0.001%  ------ ||
|| restart_ngwfs_tightbox_input         :     1        0.96s   0.003%  ------ ||
|| pseudopotentials_nonlocal_mat        :    33        1.57s   0.005%  ------ ||
|| parallel_prepare_fd_halos_comms_imbal:  2073        3.90s   0.013%  ------ ||
|| openbc_locps_radial                  :     1        4.38s   0.015%  ------ ||
|| restart_kernel_read                  :     1        5.10s   0.017%  ------ ||
|| density_init_guess_real              :     1        6.57s   0.022%  ------ ||
|| parallel_prepare_fd_halos_clear      :  2073       15.35s   0.052%  ------ ||
|| restart_kernel_write                 :    18       21.85s   0.075%  ------ ||
|| sparse_init                          :     2       22.97s   0.078%  ------ ||
|| parallel_prepare_fd_halos_comms_wait :  2073       26.49s   0.090%  ------ ||
|| projectors_func_ovlp_box             :    33       26.69s   0.091%  ------ ||
|| function_ops_brappd_ketppd           :    33       30.24s   0.103%  ------ ||
|| projectors_init_fftbox_recip         :   220       30.46s   0.104%  ------ ||
|| palser_mano_kernel_optimise          :     1       38.33s   0.131%  ------ ||
|| parallel_prepare_fd_halos            :  2073       46.02s   0.157%  ------ ||
|| pseudo_make_structure_factor         :     2       54.44s   0.186%  ------ ||
|| fourier_apply_box_pair               :  8222       59.80s   0.204% 565.237 ||
|| basis_copy_function_to_box           : 92858       62.76s   0.214%  ------ ||
|| ngwf_gradient_coeffs                 :    17       68.24s   0.233%  ------ ||
|| restart_ngwfs_tightbox_output        :    15       99.13s   0.338%  ------ ||
|| sparse_embed_hotelling_invert_embed  :    33      103.22s   0.352%  ------ ||
|| finite_difference_derivative         :  2073      116.68s   0.398%  ------ ||
|| openbc_locps_on_grid                 :     2      182.81s   0.624%  ------ ||
|| integrals_kinetic                    :    33      185.08s   0.631%  ------ ||
|| fourier_apply_cell_backward          :  1383      239.44s   0.817%  77.566 ||
|| projectors_gradient_batch            :   187      239.50s   0.817%  ------ ||
|| fourier_apply_cell_forward           :  1381      257.10s   0.877%  72.133 ||
|| sparse_trace                         :  5727      282.86s   0.965%  ------ ||
|| basis_dot_function_with_box          : 14.11M     285.18s   0.973%  ------ ||
|| kernel_purify                        :   527      378.43s   1.291%  ------ ||
|| hamiltonian_energy_components        :     4      440.78s   1.504%  ------ ||
|| xc_energy_potential                  :   345      575.76s   1.964%  ------ ||
|| basis_add_function_to_box            : 29.46M     586.17s   2.000%  ------ ||
|| lnv_gradient_norm                    :   170      614.73s   2.097%  ------ ||
|| kernel_fix                           :   170      717.35s   2.448%  ------ ||
|| ngwf_gradient_build_batch            :   187      872.67s   2.977%  ------ ||
|| cell_grid_deposit_box_real           : 58209      987.97s   3.371%  ------ ||
|| integrals_locpot_mat_els_batch       :  1969      995.74s   3.397%  ------ ||
|| cell_grid_extract_box_real           : 53862     1089.63s   3.718%  ------ ||
|| ngwf_gradient_batch                  :   187     1189.40s   4.058%  ------ ||
|| density_batch_row_sums               :  3784     1352.83s   4.616%  ------ ||
|| ngwf_gradient_lnv                    :    17     1368.36s   4.669%  ------ ||
|| density_fftbox_deposit_to_cell       : 56072     1749.63s   5.970%  ------ ||
|| sparse_product                       :  7131     2338.63s   7.979%  ------ ||
|| multigrid_prepare_bound_cond         :   345     2661.73s   9.082%  ------ ||
|| potential_apply_to_ngwf_batch        :  1969     3750.47s  12.796%  ------ ||
|| density_fftbox_interpolate_multiply  : 56072     4158.52s  14.188%  ------ ||
|| fourier_apply_box                    : 193.5k    4165.95s  14.214% 924.919 ||
|| integrals_locpot_dbl_grid            :   179     4770.77s  16.277%  ------ ||
|| density_batch_interp_deposit         :  3784     6707.67s  22.886%  ------ ||
|| dl_mg_solver_calls                   :   345     7024.13s  23.966%  ------ ||
|| density_on_dbl_grid                  :   344     8575.08s  29.257%  ------ ||
|| multigrid_calculate_hartree          :   345     9849.42s  33.605%  ------ ||
|| hamiltonian_lhxc_calculate           :   340    19020.86s  64.897%  ------ ||
|| lnv_denskernel_optimise_cg           :    17    25205.53s  85.998%  ------ ||
|| ngwf_cg_optimise                     :     2    28508.29s  97.267%  ------ ||
|| total_time                           :     1    29309.29s 100.000%  ------ ||
================================================================================
Overhead of generating timer report: 
- 0 ms averaging over threads,
- 5 ms ensuring consistency across MPI ranks,
- 2 ms printing in order.

Job completed: 12-06-2020 10:29 (+0100)

